<event>
11    1  0.8453735E-009  0.1538356E+03  0.7561462E-02  0.1093023E+00
         22   -1    0    0    0    0  0.00000000000E+00  0.00000000000E+00  0.13231019700E+04  0.13231019700E+04  0.00000000000E+00 0.  1.
         22   -1    0    0    0    0 -0.00000000000E+00 -0.00000000000E+00 -0.62261102211E+03  0.62261102211E+03  0.00000000000E+00 0.  1.
        -24    2    1    2    0    0  0.85593526883E+02  0.25600626563E+02 -0.59600431704E+03  0.60746885413E+03  0.76260205095E+02 0.  0.
         25    2    1    2    0    0 -0.93914894012E+02 -0.41219355135E+02  0.32746795512E+03  0.36524203477E+03  0.12508972692E+03 0.  0.
         24    2    1    2    0    0  0.83213671293E+01  0.15618728572E+02  0.96902730978E+03  0.97300210316E+03  0.86057979494E+02 0.  0.
        -11    1    5    5    0    0  0.16747974198E+01 -0.17500763755E-01  0.93468784394E+03  0.93468934457E+03  0.00000000000E+00 0.  1.
         12    1    5    5    0    0  0.66465697094E+01  0.15636229335E+02  0.34339465837E+02  0.38312758589E+02  0.00000000000E+00 0. -1.
         13    1    3    3    0    0  0.63209447031E+02 -0.12547408329E+02 -0.45900222606E+03  0.46350395379E+03  0.00000000000E+00 0. -1.
        -14    1    3    3    0    0  0.22384079852E+02  0.38148034892E+02 -0.13700209098E+03  0.14396490034E+03  0.00000000000E+00 0.  1.
          5    1    4    4  501    0  0.24742808322E+02  0.40611525785E+01  0.11413046486E+03  0.11692704962E+03  0.41800000000E+01 0.  1.
         -5    1    4    4    0  501 -0.11865770233E+03 -0.45280507713E+02  0.21333749026E+03  0.24831498515E+03  0.41800000000E+01 0.  1.
</event>
<event>
11    1  0.8453735E-009  0.1511534E+03  0.7561462E-02  0.1095706E+00
         22   -1    0    0    0    0  0.00000000000E+00  0.00000000000E+00  0.18695305555E+03  0.18695305555E+03  0.00000000000E+00 0. -1.
         22   -1    0    0    0    0 -0.00000000000E+00 -0.00000000000E+00 -0.52380765399E+03  0.52380765399E+03  0.00000000000E+00 0. -1.
        -24    2    1    2    0    0  0.17313323810E+02 -0.15158017171E+02 -0.26831884571E+03  0.28022788190E+03  0.77479972694E+02 0.  0.
         25    2    1    2    0    0 -0.15965837643E+01  0.97479438186E+02 -0.20019240943E+03  0.25540418819E+03  0.12509799600E+03 0.  0.
         24    2    1    2    0    0 -0.15716740045E+02 -0.82321421015E+02  0.13165665670E+03  0.17512863944E+03  0.79452708084E+02 0.  0.
        -11    1    5    5    0    0 -0.31206017168E+02 -0.53352869688E+01  0.16378822478E+02  0.35644727805E+02  0.00000000000E+00 0.  1.
         12    1    5    5    0    0  0.15489277123E+02 -0.76986134046E+02  0.11527783422E+03  0.13948391163E+03  0.00000000000E+00 0. -1.
         11    1    3    3    0    0  0.45151810086E+02  0.55733603816E+01 -0.16909790147E+03  0.17511096077E+03  0.00000000000E+00 0. -1.
        -12    1    3    3    0    0 -0.27838486277E+02 -0.20731377553E+02 -0.99220944239E+02  0.10511692114E+03  0.00000000000E+00 0.  1.
          5    1    4    4  501    0 -0.16853775398E+02  0.55227377288E+02 -0.20211895482E+03  0.21024665810E+03  0.41800000000E+01 0. -1.
         -5    1    4    4    0  501  0.15257191634E+02  0.42252060898E+02  0.19265453835E+01  0.45157530089E+02  0.41800000000E+01 0. -1.
</event>
<event>
11    1  0.8453735E-009  0.1378701E+03  0.7561462E-02  0.1109960E+00
         22   -1    0    0    0    0  0.00000000000E+00  0.00000000000E+00  0.10218857566E+03  0.10218857566E+03  0.00000000000E+00 0. -1.
         22   -1    0    0    0    0 -0.00000000000E+00 -0.00000000000E+00 -0.68871322902E+03  0.68871322902E+03  0.00000000000E+00 0. -1.
         24    2    1    2    0    0  0.30113591687E+02  0.52957504495E+02 -0.54128849501E+03  0.55052807985E+03  0.79853654791E+02 0.  0.
         25    2    1    2    0    0 -0.10977701453E+02 -0.32833738339E+02 -0.75030342179E+02  0.14992102979E+03  0.12509276008E+03 0.  0.
        -24    2    1    2    0    0 -0.19135890234E+02 -0.20123766156E+02  0.29794183828E+02  0.90452695033E+02  0.80764152874E+02 0.  0.
        -11    1    3    3    0    0  0.21733919621E+02  0.57481793946E+02 -0.20281967414E+03  0.21192531731E+03  0.00000000000E+00 0.  1.
         12    1    3    3    0    0  0.83796720659E+01 -0.45242894503E+01 -0.33846882087E+03  0.33860276254E+03  0.00000000000E+00 0. -1.
         13    1    5    5    0    0 -0.37926124448E+02 -0.31954680852E+02  0.42111551172E+02  0.65060550921E+02  0.00000000000E+00 0. -1.
        -14    1    5    5    0    0  0.18790234214E+02  0.11830914695E+02 -0.12317367344E+02  0.25392144113E+02  0.00000000000E+00 0.  1.
          5    1    4    4  501    0  0.51535160552E+02 -0.95024860067E+01 -0.45357527479E+01  0.52765665602E+02  0.41800000000E+01 0. -1.
         -5    1    4    4    0  501 -0.62512862006E+02 -0.23331252332E+02 -0.70494589431E+02  0.97155364189E+02  0.41800000000E+01 0. -1.
</event>
<event>
11    1  0.8453735E-009  0.1672895E+03  0.7561462E-02  0.1080415E+00
         22   -1    0    0    0    0  0.00000000000E+00  0.00000000000E+00  0.12852700803E+04  0.12852700803E+04  0.00000000000E+00 0. -1.
         22   -1    0    0    0    0 -0.00000000000E+00 -0.00000000000E+00 -0.71200855351E+03  0.71200855351E+03  0.00000000000E+00 0. -1.
         24    2    1    2    0    0 -0.11080934835E+03 -0.77501552501E+01 -0.68951514686E+03  0.70321347159E+03  0.82093070839E+02 0.  0.
         25    2    1    2    0    0  0.10332112514E+03  0.47838886600E+02  0.54222913125E+03  0.56801026205E+03  0.12513757647E+03 0.  0.
        -24    2    1    2    0    0  0.74882232118E+01 -0.40088731349E+02  0.72054754237E+03  0.72605490014E+03  0.79396330697E+02 0.  0.
        -11    1    3    3    0    0 -0.53262656498E+02 -0.45759986745E+01 -0.12753951726E+03  0.13829019779E+03  0.00000000000E+00 0.  1.
         12    1    3    3    0    0 -0.57546691855E+02 -0.31741565756E+01 -0.56197562960E+03  0.56492327380E+03  0.00000000000E+00 0. -1.
         11    1    5    5    0    0  0.38726702247E+02 -0.29747855696E+02  0.56264315679E+03  0.56475836804E+03  0.00000000000E+00 0. -1.
        -12    1    5    5    0    0 -0.31238479036E+02 -0.10340875653E+02  0.15790438558E+03  0.16129653210E+03  0.00000000000E+00 0.  1.
          5    1    4    4  501    0  0.10711971319E+03  0.18634439446E+02  0.23078750219E+03  0.25515136459E+03  0.41800000000E+01 0. -1.
         -5    1    4    4    0  501 -0.37985880488E+01  0.29204447153E+02  0.31144162907E+03  0.31285889746E+03  0.41800000000E+01 0. -1.
</event>
<event>
11    1  0.8453735E-009  0.1848774E+03  0.7561462E-02  0.1065764E+00
         22   -1    0    0    0    0  0.00000000000E+00  0.00000000000E+00  0.15997498705E+04  0.15997498705E+04  0.00000000000E+00 0. -1.
         22   -1    0    0    0    0 -0.00000000000E+00 -0.00000000000E+00 -0.82074683459E+02  0.82074683459E+02  0.00000000000E+00 0.  1.
        -24    2    1    2    0    0  0.61428504876E+01 -0.43645833809E+02 -0.66621984414E+01  0.91209932685E+02  0.79574955302E+02 0.  0.
         25    2    1    2    0    0  0.12233650238E+03 -0.10539164403E+02  0.24519277272E+03  0.30140750203E+03  0.12509873176E+03 0.  0.
         24    2    1    2    0    0 -0.12847935287E+03  0.54184998212E+02  0.12791446127E+04  0.12892071192E+04  0.80006860854E+02 0.  0.
        -13    1    5    5    0    0 -0.38141509976E+02  0.27178352201E+02  0.17886569085E+03  0.18489557316E+03  0.00000000000E+00 0.  1.
         14    1    5    5    0    0 -0.90337842894E+02  0.27006646010E+02  0.11002789219E+04  0.11043115460E+04  0.00000000000E+00 0. -1.
         11    1    3    3    0    0 -0.19891402561E+02 -0.54809317977E+02 -0.17506084538E+02  0.60878503832E+02  0.00000000000E+00 0. -1.
        -12    1    3    3    0    0  0.26034253049E+02  0.11163484168E+02  0.10843886096E+02  0.30331428853E+02  0.00000000000E+00 0.  1.
          5    1    4    4  501    0  0.70422271402E+02 -0.40027565620E+02  0.45633988821E+02  0.93066834343E+02  0.41800000000E+01 0. -1.
         -5    1    4    4    0  501  0.51914230980E+02  0.29488401217E+02  0.19955878389E+03  0.20834066769E+03  0.41800000000E+01 0. -1.
</event>
<event>
11    1  0.8453735E-009  0.1428329E+03  0.7561462E-02  0.1104436E+00
         22   -1    0    0    0    0  0.00000000000E+00  0.00000000000E+00  0.26042841622E+03  0.26042841622E+03  0.00000000000E+00 0. -1.
         22   -1    0    0    0    0 -0.00000000000E+00 -0.00000000000E+00 -0.11508802167E+04  0.11508802167E+04  0.00000000000E+00 0.  1.
        -24    2    1    2    0    0  0.45593752184E+02  0.13260740619E+01 -0.85662987171E+03  0.86134416051E+03  0.77578843943E+02 0.  0.
         25    2    1    2    0    0 -0.69175261842E+02  0.62582493675E+02 -0.25405723143E+03  0.29815178367E+03  0.12509046286E+03 0.  0.
         24    2    1    2    0    0  0.23581509658E+02 -0.63908567737E+02  0.22023530263E+03  0.25181268878E+03  0.10131953948E+03 0.  0.
        -13    1    5    5    0    0 -0.35019033738E+01  0.81691977261E+01 -0.73635283859E+01  0.11542125845E+02  0.00000000000E+00 0.  1.
         14    1    5    5    0    0  0.27083413032E+02 -0.72077765463E+02  0.22759883101E+03  0.24027056294E+03  0.00000000000E+00 0. -1.
         13    1    3    3    0    0  0.84670972802E+01  0.85154506628E+01 -0.16731316736E+02  0.20594698251E+02  0.00000000000E+00 0. -1.
        -14    1    3    3    0    0  0.37126654904E+02 -0.71893766009E+01 -0.83989855498E+03  0.84074946226E+03  0.00000000000E+00 0.  1.
          5    1    4    4  501    0  0.19668361779E+01  0.68653181612E+02 -0.19022352059E+03  0.20228590651E+03  0.41800000000E+01 0.  1.
         -5    1    4    4    0  501 -0.71142098020E+02 -0.60706879364E+01 -0.63833710844E+02  0.95865877155E+02  0.41800000000E+01 0.  1.
</event>
<event>
11    1  0.8453735E-009  0.1413384E+03  0.7561462E-02  0.1106073E+00
         22   -1    0    0    0    0  0.00000000000E+00  0.00000000000E+00  0.86151479223E+02  0.86151479223E+02  0.00000000000E+00 0.  1.
         22   -1    0    0    0    0 -0.00000000000E+00 -0.00000000000E+00 -0.18302501042E+04  0.18302501042E+04  0.00000000000E+00 0.  1.
        -24    2    1    2    0    0  0.23711879830E+02  0.99346750764E+01 -0.12286293921E+04  0.12321891409E+04  0.89994137522E+02 0.  0.
         25    2    1    2    0    0  0.14651472446E+02 -0.63801762758E+02 -0.55433743774E+03  0.57203301952E+03  0.12508577044E+03 0.  0.
         24    2    1    2    0    0 -0.38363352276E+02  0.53867087681E+02  0.38868204914E+02  0.11217942296E+03  0.81853989817E+02 0.  0.
        -11    1    5    5    0    0 -0.67077225179E+00 -0.79333698802E+01  0.38986649098E+02  0.39791294286E+02  0.00000000000E+00 0.  1.
         12    1    5    5    0    0 -0.37692580024E+02  0.61800457561E+02 -0.11844418377E+00  0.72388128672E+02  0.00000000000E+00 0. -1.
         13    1    3    3    0    0  0.49146004134E+02 -0.10951858284E+02 -0.43969711938E+03  0.44257070590E+03  0.00000000000E+00 0. -1.
        -14    1    3    3    0    0 -0.25434124304E+02  0.20886533360E+02 -0.78893227274E+03  0.78961843502E+03  0.00000000000E+00 0.  1.
          5    1    4    4  501    0 -0.34607498737E+02  0.95027837162E+01 -0.61506903465E+02  0.71334097324E+02  0.41800000000E+01 0. -1.
         -5    1    4    4    0  501  0.49258971183E+02 -0.73304546474E+02 -0.49283053427E+03  0.50069892219E+03  0.41800000000E+01 0. -1.
</event>
<event>
11    1  0.8453735E-009  0.1648349E+03  0.7561462E-02  0.1082616E+00
         22   -1    0    0    0    0  0.00000000000E+00  0.00000000000E+00  0.36608795245E+03  0.36608795245E+03  0.00000000000E+00 0. -1.
         22   -1    0    0    0    0 -0.00000000000E+00 -0.00000000000E+00 -0.32689804963E+03  0.32689804963E+03  0.00000000000E+00 0. -1.
         24    2    1    2    0    0 -0.35685928538E+02  0.27561720755E+02 -0.25240894267E+03  0.26907154550E+03  0.81584853453E+02 0.  0.
         25    2    1    2    0    0 -0.74499381233E+02 -0.62353960047E+02  0.10250247506E+03  0.18865633723E+03  0.12508509921E+03 0.  0.
        -24    2    1    2    0    0  0.11018530977E+03  0.34792239292E+02  0.18909637042E+03  0.23525811935E+03  0.78978750352E+02 0.  0.
        -11    1    3    3    0    0 -0.12365400821E+02  0.48996744301E+02 -0.86609678666E+02  0.10027372801E+03  0.00000000000E+00 0.  1.
         12    1    3    3    0    0 -0.23320527717E+02 -0.21435023547E+02 -0.16579926400E+03  0.16879781749E+03  0.00000000000E+00 0. -1.
         13    1    5    5    0    0  0.10255716457E+03  0.19042571612E+02  0.19102834774E+03  0.21765206449E+03  0.00000000000E+00 0. -1.
        -14    1    5    5    0    0  0.76281452061E+01  0.15749667680E+02 -0.19319773140E+01  0.17606054858E+02  0.00000000000E+00 0.  1.
          5    1    4    4  501    0 -0.23318163289E+02 -0.63515832671E+02 -0.65570394737E+01  0.68106276551E+02  0.41800000000E+01 0.  1.
         -5    1    4    4    0  501 -0.51181217944E+02  0.11618726240E+01  0.10905951454E+03  0.12055006068E+03  0.41800000000E+01 0.  1.
</event>
<event>
11    1  0.8453735E-009  0.2075572E+03  0.7561462E-02  0.1049305E+00
         22   -1    0    0    0    0  0.00000000000E+00  0.00000000000E+00  0.48691070377E+03  0.48691070377E+03  0.00000000000E+00 0.  1.
         22   -1    0    0    0    0 -0.00000000000E+00 -0.00000000000E+00 -0.55255593740E+03  0.55255593740E+03  0.00000000000E+00 0. -1.
         24    2    1    2    0    0 -0.26928992759E+02  0.15515251389E+03 -0.26106519288E+03  0.31535091652E+03  0.80583449923E+02 0.  0.
         25    2    1    2    0    0  0.21567670444E+02 -0.17831516440E+03 -0.21389457011E+03  0.30603860585E+03  0.12508908379E+03 0.  0.
        -24    2    1    2    0    0  0.53613223152E+01  0.23162650510E+02  0.40931452936E+03  0.41807711880E+03  0.81760877973E+02 0.  0.
        -13    1    3    3    0    0  0.45556071929E+01  0.27345635194E+01 -0.64088762869E+02  0.64308637994E+02  0.00000000000E+00 0.  1.
         14    1    3    3    0    0 -0.31484599952E+02  0.15241795037E+03 -0.19697643001E+03  0.25104227853E+03  0.00000000000E+00 0. -1.
         11    1    5    5    0    0 -0.12462907241E+02  0.42822037658E+02  0.12865663205E+03  0.13616747018E+03  0.00000000000E+00 0. -1.
        -12    1    5    5    0    0  0.17824229556E+02 -0.19659387148E+02  0.28065789731E+03  0.28190964862E+03  0.00000000000E+00 0.  1.
          5    1    4    4  501    0  0.45595998099E+02 -0.14277845930E+02 -0.78299410231E+02  0.91821141191E+02  0.41800000000E+01 0.  1.
         -5    1    4    4    0  501 -0.24028327656E+02 -0.16403731847E+03 -0.13559515988E+03  0.21421746466E+03  0.41800000000E+01 0.  1.
</event>
<event>
11    1  0.8453735E-009  0.1433067E+03  0.7561462E-02  0.1103921E+00
         22   -1    0    0    0    0  0.00000000000E+00  0.00000000000E+00  0.15560576761E+03  0.15560576761E+03  0.00000000000E+00 0.  1.
         22   -1    0    0    0    0 -0.00000000000E+00 -0.00000000000E+00 -0.12236795549E+04  0.12236795549E+04  0.00000000000E+00 0.  1.
        -24    2    1    2    0    0  0.15533901918E+02  0.14700208498E+02 -0.99096198277E+03  0.99440146321E+03  0.79819925419E+02 0.  0.
         25    2    1    2    0    0 -0.11662645649E+02  0.56617739612E+02 -0.18572418658E+03  0.23126234677E+03  0.12508882368E+03 0.  0.
         24    2    1    2    0    0 -0.38712562693E+01 -0.71317948110E+02  0.10861238208E+03  0.15362151251E+03  0.81863808958E+02 0.  0.
        -13    1    5    5    0    0 -0.26058510235E+02 -0.65917600742E+02  0.40175326785E+02  0.81475351644E+02  0.00000000000E+00 0.  1.
         14    1    5    5    0    0  0.22187253966E+02 -0.54003473676E+01  0.68437055295E+02  0.72146160866E+02  0.00000000000E+00 0. -1.
         13    1    3    3    0    0  0.40974436753E+02  0.54305434578E+01 -0.29151882829E+03  0.29443441123E+03  0.00000000000E+00 0. -1.
        -14    1    3    3    0    0 -0.25440534835E+02  0.92696650406E+01 -0.69944315449E+03  0.69996705198E+03  0.00000000000E+00 0.  1.
          5    1    4    4  501    0 -0.40187359657E+02  0.82189428149E+02 -0.91488519634E+02  0.12945171919E+03  0.41800000000E+01 0. -1.
         -5    1    4    4    0  501  0.28524714008E+02 -0.25571688538E+02 -0.94235666949E+02  0.10181062759E+03  0.41800000000E+01 0. -1.
</event>
<event>
11    1  0.8453735E-009  0.1315671E+03  0.7561462E-02  0.1117358E+00
         22   -1    0    0    0    0  0.00000000000E+00  0.00000000000E+00  0.10218567762E+04  0.10218567762E+04  0.00000000000E+00 0.  1.
         22   -1    0    0    0    0 -0.00000000000E+00 -0.00000000000E+00 -0.20614970412E+03  0.20614970412E+03  0.00000000000E+00 0.  1.
         24    2    1    2    0    0  0.21201037805E+02  0.33684292509E+02 -0.16122291169E+03  0.18464507249E+03  0.80727070888E+02 0.  0.
         25    2    1    2    0    0 -0.30936270726E+02 -0.42586404624E+02  0.11226695658E+03  0.17613427023E+03  0.12509499152E+03 0.  0.
        -24    2    1    2    0    0  0.97352329213E+01  0.89021121152E+01  0.86466302719E+03  0.86722713760E+03  0.65320251380E+02 0.  0.
        -13    1    3    3    0    0  0.34304759412E+02  0.38118439088E+02 -0.16283365626E+03  0.17071798830E+03  0.00000000000E+00 0.  1.
         14    1    3    3    0    0 -0.13103721607E+02 -0.44341465796E+01  0.16107445759E+01  0.13927084186E+02  0.00000000000E+00 0. -1.
         13    1    5    5    0    0  0.12383995743E+02  0.22020897417E+02  0.12945108626E+03  0.13189339259E+03  0.00000000000E+00 0. -1.
        -14    1    5    5    0    0 -0.26487628217E+01 -0.13118785302E+02  0.73521194093E+03  0.73533374502E+03  0.00000000000E+00 0.  1.
          5    1    4    4  501    0  0.13049400867E+02  0.13579011381E+02  0.10215525268E+03  0.10396078329E+03  0.41800000000E+01 0. -1.
         -5    1    4    4    0  501 -0.43985671594E+02 -0.56165416005E+02  0.10111703902E+02  0.72173486935E+02  0.41800000000E+01 0. -1.
</event>
<event>
11    1  0.8453735E-009  0.1590333E+03  0.7561462E-02  0.1087990E+00
         22   -1    0    0    0    0  0.00000000000E+00  0.00000000000E+00  0.20815194767E+04  0.20815194767E+04  0.00000000000E+00 0. -1.
         22   -1    0    0    0    0 -0.00000000000E+00 -0.00000000000E+00 -0.32003327636E+03  0.32003327636E+03  0.00000000000E+00 0.  1.
         24    2    1    2    0    0  0.97686499132E+02  0.13695908943E+02 -0.27141332283E+03  0.30132312718E+03  0.86024444950E+02 0.  0.
         25    2    1    2    0    0 -0.77754608987E+02 -0.89992668624E+02  0.20124346283E+03  0.26512433470E+03  0.12509005514E+03 0.  0.
        -24    2    1    2    0    0 -0.19931890145E+02  0.76296759681E+02  0.18316560604E+04  0.18351052912E+04  0.80181235695E+02 0.  0.
        -11    1    3    3    0    0  0.19386314542E+02 -0.22991033838E+02 -0.14551763138E+03  0.14859272483E+03  0.00000000000E+00 0.  1.
         12    1    3    3    0    0  0.78300184590E+02  0.36686942782E+02 -0.12589569144E+03  0.15273040235E+03  0.00000000000E+00 0. -1.
         13    1    5    5    0    0 -0.35433941802E+02  0.25109737054E+02  0.13089359293E+04  0.13096561878E+04  0.00000000000E+00 0. -1.
        -14    1    5    5    0    0  0.15502051657E+02  0.51187022627E+02  0.52272013103E+03  0.52544910341E+03  0.00000000000E+00 0.  1.
          5    1    4    4  501    0 -0.11063535781E+03 -0.59917920098E+02  0.16496177185E+03  0.20750951332E+03  0.41800000000E+01 0.  1.
         -5    1    4    4    0  501  0.32880748825E+02 -0.30074748526E+02  0.36281690979E+02  0.57614821378E+02  0.41800000000E+01 0.  1.
</event>
<event>
11    1  0.8453735E-009  0.1510733E+03  0.7561462E-02  0.1095787E+00
         22   -1    0    0    0    0  0.00000000000E+00  0.00000000000E+00  0.10186154766E+04  0.10186154766E+04  0.00000000000E+00 0. -1.
         22   -1    0    0    0    0 -0.00000000000E+00 -0.00000000000E+00 -0.23860927302E+03  0.23860927302E+03  0.00000000000E+00 0.  1.
        -24    2    1    2    0    0  0.76301318051E+02  0.35291933871E+02 -0.20556961663E+03  0.23587261254E+03  0.79433055673E+02 0.  0.
         25    2    1    2    0    0 -0.85192801860E+02 -0.65702626252E+02  0.46278831759E+03  0.49131924730E+03  0.12508767841E+03 0.  0.
         24    2    1    2    0    0  0.88914838095E+01  0.30410692381E+02  0.52278750259E+03  0.53003288973E+03  0.81389327573E+02 0.  0.
        -13    1    5    5    0    0 -0.14939634803E+02 -0.12325432557E+02  0.36774359624E+02  0.41562753777E+02  0.00000000000E+00 0.  1.
         14    1    5    5    0    0  0.23831118612E+02  0.42736124938E+02  0.48601314296E+03  0.48847013596E+03  0.00000000000E+00 0. -1.
         11    1    3    3    0    0  0.32627093703E+01 -0.15081043547E+02 -0.83794295221E+02  0.85203093010E+02  0.00000000000E+00 0. -1.
        -12    1    3    3    0    0  0.73038608681E+02  0.50372977418E+02 -0.12177532141E+03  0.15066951953E+03  0.00000000000E+00 0.  1.
          5    1    4    4  501    0 -0.53678593618E+02 -0.14926774751E+02  0.52457790696E+02  0.76638712293E+02  0.41800000000E+01 0. -1.
         -5    1    4    4    0  501 -0.31514208243E+02 -0.50775851501E+02  0.41033052689E+03  0.41468053501E+03  0.41800000000E+01 0. -1.
</event>
<event>
11    1  0.8453735E-009  0.1455185E+03  0.7561462E-02  0.1101548E+00
         22   -1    0    0    0    0  0.00000000000E+00  0.00000000000E+00  0.88051295531E+03  0.88051295531E+03  0.00000000000E+00 0. -1.
         22   -1    0    0    0    0 -0.00000000000E+00 -0.00000000000E+00 -0.24521843197E+03  0.24521843197E+03  0.00000000000E+00 0.  1.
        -24    2    1    2    0    0 -0.26627497185E+02  0.12861968710E+02 -0.18921402745E+03  0.20786426354E+03  0.80815530846E+02 0.  0.
         25    2    1    2    0    0  0.97551493489E+02  0.63495577741E+00  0.10524496036E+03  0.19038880711E+03  0.12511874016E+03 0.  0.
         24    2    1    2    0    0 -0.70923996304E+02 -0.13496924487E+02  0.71926359043E+03  0.72747831663E+03  0.81683587292E+02 0.  0.
        -13    1    5    5    0    0 -0.41237601136E+02 -0.58409722910E+00  0.11199149867E+03  0.11934394283E+03  0.00000000000E+00 0.  1.
         14    1    5    5    0    0 -0.29686395167E+02 -0.12912827258E+02  0.60727209176E+03  0.60813437380E+03  0.00000000000E+00 0. -1.
         13    1    3    3    0    0 -0.47910453887E+02  0.97790952170E+01 -0.62586530439E+02  0.79423649420E+02  0.00000000000E+00 0. -1.
        -14    1    3    3    0    0  0.21282956701E+02  0.30828734927E+01 -0.12662749701E+03  0.12844061412E+03  0.00000000000E+00 0.  1.
          5    1    4    4  501    0  0.96217894887E+01 -0.23540276820E+02 -0.21931369537E+02  0.33840520615E+02  0.41800000000E+01 0.  1.
         -5    1    4    4    0  501  0.87929704000E+02  0.24175232598E+02  0.12717632990E+03  0.15654828649E+03  0.41800000000E+01 0.  1.
</event>
<event>
11    1  0.8453735E-009  0.1410655E+03  0.7561462E-02  0.1106374E+00
         22   -1    0    0    0    0  0.00000000000E+00  0.00000000000E+00  0.13799716423E+03  0.13799716423E+03  0.00000000000E+00 0. -1.
         22   -1    0    0    0    0 -0.00000000000E+00 -0.00000000000E+00 -0.12133837637E+04  0.12133837637E+04  0.00000000000E+00 0.  1.
        -24    2    1    2    0    0  0.58193785076E+02 -0.29010779247E+02 -0.10957960435E+04  0.11006124078E+04  0.79690409550E+02 0.  0.
         25    2    1    2    0    0 -0.39311206994E+02  0.78436127580E+02 -0.94743494699E+00  0.15279587595E+03  0.12509230580E+03 0.  0.
         24    2    1    2    0    0 -0.18882578082E+02 -0.49425348333E+02  0.21356879006E+02  0.97972644119E+02  0.79643618087E+02 0.  0.
        -13    1    5    5    0    0  0.22212916201E+02 -0.34215281990E+02 -0.12423976894E+02  0.42643339101E+02  0.00000000000E+00 0.  1.
         14    1    5    5    0    0 -0.41095494283E+02 -0.15210066343E+02  0.33780855900E+02  0.55329305018E+02  0.00000000000E+00 0. -1.
         13    1    3    3    0    0 -0.79988359976E+01 -0.35455955864E+02 -0.38809465689E+03  0.38979298209E+03  0.00000000000E+00 0. -1.
        -14    1    3    3    0    0  0.66192621074E+02  0.64451766168E+01 -0.70770138661E+03  0.71081942573E+03  0.00000000000E+00 0.  1.
          5    1    4    4  501    0 -0.16068576645E+02  0.11087419110E+03  0.50611945115E+01  0.11222465637E+03  0.41800000000E+01 0. -1.
         -5    1    4    4    0  501 -0.23242630349E+02 -0.32438063520E+02 -0.60086294585E+01  0.40571219583E+02  0.41800000000E+01 0. -1.
</event>
<event>
11    1  0.8453735E-009  0.1382285E+03  0.7561462E-02  0.1109553E+00
         22   -1    0    0    0    0  0.00000000000E+00  0.00000000000E+00  0.23748575401E+04  0.23748575401E+04  0.00000000000E+00 0. -1.
         22   -1    0    0    0    0 -0.00000000000E+00 -0.00000000000E+00 -0.51957480670E+03  0.51957480670E+03  0.00000000000E+00 0.  1.
        -24    2    1    2    0    0 -0.34051578737E+02 -0.47759511562E+02 -0.50708221261E+03  0.51694883982E+03  0.81628742999E+02 0.  0.
         25    2    1    2    0    0  0.23809749298E+02  0.10545015522E+03  0.12622466661E+04  0.12730283638E+04  0.12509168527E+03 0.  0.
         24    2    1    2    0    0  0.10241829439E+02 -0.57690643658E+02  0.11001182799E+04  0.11044551431E+04  0.78280444099E+02 0.  0.
        -11    1    5    5    0    0  0.17664299100E+02  0.13493051438E+02  0.41846992050E+03  0.41905985761E+03  0.00000000000E+00 0.  1.
         12    1    5    5    0    0 -0.74224696611E+01 -0.71183695096E+02  0.68164835942E+03  0.68539528551E+03  0.00000000000E+00 0. -1.
         13    1    3    3    0    0 -0.20805164221E+02  0.39906588991E+01 -0.29118414836E+02  0.36009197426E+02  0.00000000000E+00 0. -1.
        -14    1    3    3    0    0 -0.13246414516E+02 -0.51750170461E+02 -0.47796379778E+03  0.48093964239E+03  0.00000000000E+00 0.  1.
          5    1    4    4  501    0 -0.97729045045E+01 -0.19851759495E+02  0.65471705137E+02  0.69235963133E+02  0.41800000000E+01 0. -1.
         -5    1    4    4    0  501  0.33582653802E+02  0.12530191471E+03  0.11967749609E+04  0.12037924007E+04  0.41800000000E+01 0. -1.
</event>
<event>
11    1  0.8453735E-009  0.1330875E+03  0.7561462E-02  0.1115533E+00
         22   -1    0    0    0    0  0.00000000000E+00  0.00000000000E+00  0.91440613394E+03  0.91440613394E+03  0.00000000000E+00 0.  1.
         22   -1    0    0    0    0 -0.00000000000E+00 -0.00000000000E+00 -0.27604692863E+03  0.27604692863E+03  0.00000000000E+00 0.  1.
        -24    2    1    2    0    0 -0.26450880600E+02 -0.18158875981E+02 -0.24516857262E+03  0.25983380515E+03  0.79853512337E+02 0.  0.
         25    2    1    2    0    0  0.19498468024E+02  0.61020830106E+02  0.22186064815E+03  0.26262998724E+03  0.12509448846E+03 0.  0.
         24    2    1    2    0    0  0.69524125761E+01 -0.42861954124E+02  0.66166712978E+03  0.66798927018E+03  0.80751416632E+02 0.  0.
        -11    1    5    5    0    0  0.15229429348E+02 -0.37005790398E+02  0.65413649331E+03  0.65535937921E+03  0.00000000000E+00 0.  1.
         12    1    5    5    0    0 -0.82770167723E+01 -0.58561637260E+01  0.75306364794E+01  0.12629890974E+02  0.00000000000E+00 0. -1.
         13    1    3    3    0    0 -0.33829427345E+02  0.19044536798E+02 -0.18248503617E+03  0.18656878883E+03  0.00000000000E+00 0. -1.
        -14    1    3    3    0    0  0.73785467445E+01 -0.37203412780E+02 -0.62683536449E+02  0.73265016320E+02  0.00000000000E+00 0.  1.
          5    1    4    4  501    0  0.26208532449E+02  0.46790126117E+01  0.19979947272E+03  0.20160873501E+03  0.41800000000E+01 0. -1.
         -5    1    4    4    0  501 -0.67100644245E+01  0.56341817494E+02  0.22061175422E+02  0.61021252233E+02  0.41800000000E+01 0. -1.
</event>
<event>
11    1  0.8453735E-009  0.1476227E+03  0.7561462E-02  0.1099333E+00
         22   -1    0    0    0    0  0.00000000000E+00  0.00000000000E+00  0.68182369827E+03  0.68182369827E+03  0.00000000000E+00 0.  1.
         22   -1    0    0    0    0 -0.00000000000E+00 -0.00000000000E+00 -0.10239158252E+03  0.10239158252E+03  0.00000000000E+00 0. -1.
        -24    2    1    2    0    0  0.47891268151E+02  0.23118741852E+01  0.22509433244E+02  0.96573957361E+02  0.80752314692E+02 0.  0.
         25    2    1    2    0    0 -0.18597502247E+02 -0.76456123234E+02  0.32959242045E+02  0.15141188998E+03  0.12509133831E+03 0.  0.
         24    2    1    2    0    0 -0.29293765904E+02  0.74144249049E+02  0.52396344046E+03  0.53622943345E+03  0.81540321134E+02 0.  0.
        -11    1    5    5    0    0 -0.36803762529E+02  0.88555603278E+02  0.47669383698E+03  0.48624440976E+03  0.00000000000E+00 0.  1.
         12    1    5    5    0    0  0.75099966251E+01 -0.14411354229E+02  0.47269603480E+02  0.49985023689E+02  0.00000000000E+00 0. -1.
         11    1    3    3    0    0  0.46356431887E+02  0.34245236110E+02  0.28099116052E+02  0.64118759317E+02  0.00000000000E+00 0. -1.
        -12    1    3    3    0    0  0.15348362645E+01 -0.31933361925E+02 -0.55896828089E+01  0.32455198044E+02  0.00000000000E+00 0.  1.
          5    1    4    4  501    0 -0.22819854300E+02 -0.48717565833E+02 -0.43850900443E+02  0.69530718683E+02  0.41800000000E+01 0. -1.
         -5    1    4    4    0  501  0.42223520527E+01 -0.27738557401E+02  0.76810142488E+02  0.81881171294E+02  0.41800000000E+01 0. -1.
</event>
<event>
11    1  0.8453735E-009  0.1595102E+03  0.7561462E-02  0.1087539E+00
         22   -1    0    0    0    0  0.00000000000E+00  0.00000000000E+00  0.48312446879E+03  0.48312446879E+03  0.00000000000E+00 0. -1.
         22   -1    0    0    0    0 -0.00000000000E+00 -0.00000000000E+00 -0.21406708088E+04  0.21406708088E+04  0.00000000000E+00 0.  1.
        -24    2    1    2    0    0 -0.13158059219E+02 -0.29060549475E+02 -0.20255684870E+04  0.20274207254E+04  0.80557137407E+02 0.  0.
         25    2    1    2    0    0  0.91600006452E+02 -0.32273943342E+02 -0.44629949534E+02  0.16453373089E+03  0.12508935848E+03 0.  0.
         24    2    1    2    0    0 -0.78441947234E+02  0.61334492818E+02  0.41265209646E+03  0.43184082132E+03  0.79307522681E+02 0.  0.
        -13    1    5    5    0    0 -0.16632395279E+02  0.61810382205E+02  0.17705085791E+03  0.18826621101E+03  0.00000000000E+00 0.  1.
         14    1    5    5    0    0 -0.61809551955E+02 -0.47588938778E+00  0.23560123855E+03  0.24357461032E+03  0.00000000000E+00 0. -1.
         11    1    3    3    0    0 -0.40687888297E+02 -0.38697604445E+02 -0.11556207992E+04  0.11569842005E+04  0.00000000000E+00 0. -1.
        -12    1    3    3    0    0  0.27529829078E+02  0.96370549695E+01 -0.86994768781E+03  0.87043652488E+03  0.00000000000E+00 0.  1.
          5    1    4    4  501    0  0.11713559217E+02 -0.37289016912E+02 -0.70153223064E+02  0.80415330367E+02  0.41800000000E+01 0. -1.
         -5    1    4    4    0  501  0.79886447236E+02  0.50150735701E+01  0.25523273530E+02  0.84118400523E+02  0.41800000000E+01 0. -1.
</event>
<event>
11    1  0.8453735E-009  0.1420606E+03  0.7561462E-02  0.1105279E+00
         22   -1    0    0    0    0  0.00000000000E+00  0.00000000000E+00  0.18985077175E+03  0.18985077175E+03  0.00000000000E+00 0.  1.
         22   -1    0    0    0    0 -0.00000000000E+00 -0.00000000000E+00 -0.27716224610E+04  0.27716224610E+04  0.00000000000E+00 0.  1.
        -24    2    1    2    0    0  0.34350354057E+02 -0.56380513758E+02 -0.23087979829E+04  0.23110616721E+04  0.78097487215E+02 0.  0.
         25    2    1    2    0    0  0.81626316246E+01  0.10166320397E+03 -0.43229908729E+03  0.46144283965E+03  0.12507980571E+03 0.  0.
         24    2    1    2    0    0 -0.42512985681E+02 -0.45282690208E+02  0.15932538089E+03  0.18896872100E+03  0.80415947026E+02 0.  0.
        -11    1    5    5    0    0 -0.19352794359E+02 -0.58705837636E+02  0.14706143026E+03  0.15952419971E+03  0.00000000000E+00 0.  1.
         12    1    5    5    0    0 -0.23160191322E+02  0.13423147428E+02  0.12263950628E+02  0.29444521290E+02  0.00000000000E+00 0. -1.
         11    1    3    3    0    0  0.10575913122E+02  0.19389454001E+02 -0.62898596038E+03  0.62937360862E+03  0.00000000000E+00 0. -1.
        -12    1    3    3    0    0  0.23774440935E+02 -0.75769967759E+02 -0.16798120225E+04  0.16816880635E+04  0.00000000000E+00 0.  1.
          5    1    4    4  501    0 -0.21545729602E+02  0.91407617841E+02 -0.41461643081E+03  0.42513977485E+03  0.41800000000E+01 0. -1.
         -5    1    4    4    0  501  0.29708361227E+02  0.10255586125E+02 -0.17682656483E+02  0.36303064799E+02  0.41800000000E+01 0. -1.
</event>
<event>
11    1  0.8453735E-009  0.1510882E+03  0.7561462E-02  0.1095772E+00
         22   -1    0    0    0    0  0.00000000000E+00  0.00000000000E+00  0.28319322832E+03  0.28319322832E+03  0.00000000000E+00 0.  1.
         22   -1    0    0    0    0 -0.00000000000E+00 -0.00000000000E+00 -0.51271496681E+03  0.51271496681E+03  0.00000000000E+00 0. -1.
        -24    2    1    2    0    0 -0.64389887785E+02 -0.52467002124E+02 -0.43285613074E+03  0.44803997709E+03  0.80476997874E+02 0.  0.
         25    2    1    2    0    0 -0.25032262669E+02 -0.19773724332E+02  0.44652748643E+02  0.13659782241E+03  0.12508989878E+03 0.  0.
         24    2    1    2    0    0  0.89422150455E+02  0.72240726456E+02  0.15868164361E+03  0.21127039564E+03  0.78995395449E+02 0.  0.
        -13    1    5    5    0    0  0.85594821880E+02  0.76295608640E+02  0.16619654673E+03  0.20191281676E+03  0.00000000000E+00 0.  1.
         14    1    5    5    0    0  0.38273285746E+01 -0.40548821838E+01 -0.75149031132E+01  0.93575788719E+01  0.00000000000E+00 0. -1.
         13    1    3    3    0    0 -0.79495132449E+02 -0.36370429901E+02 -0.27269664473E+03  0.28636645107E+03  0.00000000000E+00 0. -1.
        -14    1    3    3    0    0  0.15105244664E+02 -0.16096572223E+02 -0.16015948601E+03  0.16167352601E+03  0.00000000000E+00 0.  1.
          5    1    4    4  501    0 -0.22571088144E+02  0.36450919238E+02  0.63820694412E+02  0.76997902364E+02  0.41800000000E+01 0. -1.
         -5    1    4    4    0  501 -0.24611745254E+01 -0.56224643570E+02 -0.19167945769E+02  0.59599920047E+02  0.41800000000E+01 0. -1.
</event>
<event>
11    1  0.8453735E-009  0.1896780E+03  0.7561462E-02  0.1062073E+00
         22   -1    0    0    0    0  0.00000000000E+00  0.00000000000E+00  0.17946240075E+04  0.17946240075E+04  0.00000000000E+00 0. -1.
         22   -1    0    0    0    0 -0.00000000000E+00 -0.00000000000E+00 -0.29769245688E+03  0.29769245688E+03  0.00000000000E+00 0.  1.
        -24    2    1    2    0    0  0.59575206576E+02 -0.16424018649E+02 -0.22000272594E+03  0.24238544023E+03  0.80811809676E+02 0.  0.
         25    2    1    2    0    0 -0.16941093424E+03 -0.70883541774E+02  0.13538959595E+03  0.26019680261E+03  0.12508993670E+03 0.  0.
         24    2    1    2    0    0  0.10983572766E+03  0.87307560423E+02  0.15815446806E+04  0.15897342215E+04  0.79276864118E+02 0.  0.
        -13    1    5    5    0    0  0.28940189016E+02 -0.13189797397E+02  0.35603112196E+03  0.35744882864E+03  0.00000000000E+00 0.  1.
         14    1    5    5    0    0  0.80895538645E+02  0.10049735782E+03  0.12255135586E+04  0.12322853929E+04  0.00000000000E+00 0. -1.
         13    1    3    3    0    0  0.14389223018E+02 -0.71154362640E+01  0.15064294162E+01  0.16122918528E+02  0.00000000000E+00 0. -1.
        -14    1    3    3    0    0  0.45185983558E+02 -0.93085823854E+01 -0.22150915536E+03  0.22626252170E+03  0.00000000000E+00 0.  1.
          5    1    4    4  501    0 -0.92551380086E+02  0.48660635484E+01  0.11911744197E+03  0.15098302524E+03  0.41800000000E+01 0. -1.
         -5    1    4    4    0  501 -0.76859554151E+02 -0.75749605322E+02  0.16272153977E+02  0.10921377736E+03  0.41800000000E+01 0. -1.
</event>
<event>
11    1  0.8453735E-009  0.2092630E+03  0.7561462E-02  0.1048160E+00
         22   -1    0    0    0    0  0.00000000000E+00  0.00000000000E+00  0.71962409555E+03  0.71962409555E+03  0.00000000000E+00 0.  1.
         22   -1    0    0    0    0 -0.00000000000E+00 -0.00000000000E+00 -0.98266078812E+03  0.98266078812E+03  0.00000000000E+00 0. -1.
        -24    2    1    2    0    0 -0.14228286610E+03  0.49697850341E+02 -0.59652413567E+03  0.62106518311E+03  0.84655932584E+02 0.  0.
         25    2    1    2    0    0  0.22976154983E+03 -0.18792428608E+03 -0.28879788430E+03  0.43261296593E+03  0.12507539020E+03 0.  0.
         24    2    1    2    0    0 -0.87478683730E+02  0.13822643574E+03  0.62228532739E+03  0.64860673464E+03  0.81808311823E+02 0.  0.
        -13    1    5    5    0    0 -0.44481772008E+02  0.84747577827E+02  0.49334876725E+03  0.50254729741E+03  0.00000000000E+00 0.  1.
         14    1    5    5    0    0 -0.42996911722E+02  0.53478857908E+02  0.12893656014E+03  0.14605943722E+03  0.00000000000E+00 0. -1.
         11    1    3    3    0    0 -0.46858782680E+02  0.13800684168E+02 -0.36278050048E+03  0.36605449858E+03  0.00000000000E+00 0. -1.
        -12    1    3    3    0    0 -0.95424083422E+02  0.35897166173E+02 -0.23374363518E+03  0.25501068453E+03  0.00000000000E+00 0.  1.
          5    1    4    4  501    0  0.17798906016E+03 -0.66530243000E+02 -0.17051710466E+03  0.25534277776E+03  0.41800000000E+01 0. -1.
         -5    1    4    4    0  501  0.51772489668E+02 -0.12139404308E+03 -0.11828077964E+03  0.17727018817E+03  0.41800000000E+01 0. -1.
</event>
<event>
11    1  0.8453735E-009  0.1492713E+03  0.7561462E-02  0.1097626E+00
         22   -1    0    0    0    0  0.00000000000E+00  0.00000000000E+00  0.14293029899E+04  0.14293029899E+04  0.00000000000E+00 0.  1.
         22   -1    0    0    0    0 -0.00000000000E+00 -0.00000000000E+00 -0.10689150688E+03  0.10689150688E+03  0.00000000000E+00 0. -1.
         24    2    1    2    0    0 -0.94981798640E+01 -0.79353584879E+02 -0.49997844808E+02  0.12422198699E+03  0.80895677963E+02 0.  0.
         25    2    1    2    0    0 -0.30956916587E+02  0.10004712184E+03  0.36581347054E+03  0.40055428818E+03  0.12512587776E+03 0.  0.
        -24    2    1    2    0    0  0.40455096451E+02 -0.20693536957E+02  0.10065958573E+04  0.10114182216E+04  0.87560046576E+02 0.  0.
        -11    1    3    3    0    0  0.79539557144E+01  0.10229978786E+02  0.87911448874E+01  0.15658930548E+02  0.00000000000E+00 0.  1.
         12    1    3    3    0    0 -0.17452135578E+02 -0.89583563665E+02 -0.58788989696E+02  0.10856305645E+03  0.00000000000E+00 0. -1.
         11    1    5    5    0    0 -0.26973555338E+02  0.86271598506E+00  0.22171042976E+03  0.22334688632E+03  0.00000000000E+00 0. -1.
        -12    1    5    5    0    0  0.67428651790E+02 -0.21556252942E+02  0.78488542753E+03  0.78807133527E+03  0.00000000000E+00 0.  1.
          5    1    4    4  501    0 -0.30117166956E+02  0.98161773132E+02  0.13484539004E+03  0.16953916676E+03  0.41800000000E+01 0.  1.
         -5    1    4    4    0  501 -0.83974963122E+00  0.18853487046E+01  0.23096808050E+03  0.23101512143E+03  0.41800000000E+01 0.  1.
</event>
<event>
11    1  0.8453735E-009  0.1347089E+03  0.7561462E-02  0.1113615E+00
         22   -1    0    0    0    0  0.00000000000E+00  0.00000000000E+00  0.90944821319E+02  0.90944821319E+02  0.00000000000E+00 0.  1.
         22   -1    0    0    0    0 -0.00000000000E+00 -0.00000000000E+00 -0.17984092511E+04  0.17984092511E+04  0.00000000000E+00 0. -1.
         24    2    1    2    0    0  0.43642622634E+02  0.25131211895E+02 -0.14067833039E+04  0.14098952577E+04  0.78924758170E+02 0.  0.
         25    2    1    2    0    0 -0.26931472161E+02 -0.45897355968E+02 -0.35277506884E+03  0.37805990364E+03  0.12508864881E+03 0.  0.
        -24    2    1    2    0    0 -0.16711150472E+02  0.20766144073E+02  0.52093942876E+02  0.10139891109E+03  0.82809812198E+02 0.  0.
        -13    1    3    3    0    0  0.25058298548E+02  0.85039293866E+01 -0.12054657455E+03  0.12341682129E+03  0.00000000000E+00 0.  1.
         14    1    3    3    0    0  0.18584324086E+02  0.16627282508E+02 -0.12862367293E+04  0.12864784364E+04  0.00000000000E+00 0. -1.
         11    1    5    5    0    0  0.86735477355E+01 -0.20046391203E+02 -0.90354555369E+01  0.23637421335E+02  0.00000000000E+00 0. -1.
        -12    1    5    5    0    0 -0.25384698208E+02  0.40812535277E+02  0.61129398413E+02  0.77761489757E+02  0.00000000000E+00 0.  1.
          5    1    4    4  501    0  0.18157883544E+02 -0.65285249825E+02 -0.10224356695E+03  0.12273178872E+03  0.41800000000E+01 0. -1.
         -5    1    4    4    0  501 -0.45089355705E+02  0.19387893857E+02 -0.25053150189E+03  0.25532811492E+03  0.41800000000E+01 0. -1.
</event>
<event>
11    1  0.8453735E-009  0.2262248E+03  0.7561462E-02  0.1037387E+00
         22   -1    0    0    0    0  0.00000000000E+00  0.00000000000E+00  0.10227824096E+04  0.10227824096E+04  0.00000000000E+00 0.  1.
         22   -1    0    0    0    0 -0.00000000000E+00 -0.00000000000E+00 -0.31064813107E+03  0.31064813107E+03  0.00000000000E+00 0.  1.
        -24    2    1    2    0    0 -0.58891465776E+02 -0.95182418338E+02 -0.13728481353E+03  0.19611223135E+03  0.84172381207E+02 0.  0.
         25    2    1    2    0    0 -0.95465822611E+02 -0.27517049743E+02 -0.83721043764E+02  0.18035497883E+03  0.12509114240E+03 0.  0.
         24    2    1    2    0    0  0.15435728839E+03  0.12269946808E+03  0.93314013582E+03  0.95696333049E+03  0.78402620327E+02 0.  0.
        -13    1    5    5    0    0  0.14882534001E+03  0.81079036322E+02  0.71412867906E+03  0.73396359733E+03  0.00000000000E+00 0.  1.
         14    1    5    5    0    0  0.55319483718E+01  0.41620431758E+02  0.21901145676E+03  0.22299973315E+03  0.00000000000E+00 0. -1.
         13    1    3    3    0    0 -0.44805189399E+02 -0.53206245296E+01 -0.68707623560E+02  0.82198245588E+02  0.00000000000E+00 0. -1.
        -14    1    3    3    0    0 -0.14086276377E+02 -0.89861793808E+02 -0.68577189973E+02  0.11391398577E+03  0.00000000000E+00 0.  1.
          5    1    4    4  501    0 -0.19490560859E+01 -0.48751729410E+02 -0.66894680634E+02  0.82902959159E+02  0.41800000000E+01 0.  1.
         -5    1    4    4    0  501 -0.93516766525E+02  0.21234679668E+02 -0.16826363129E+02  0.97452019671E+02  0.41800000000E+01 0.  1.
</event>
<event>
11    1  0.8453735E-009  0.1372497E+03  0.7561462E-02  0.1110669E+00
         22   -1    0    0    0    0  0.00000000000E+00  0.00000000000E+00  0.17787413456E+03  0.17787413456E+03  0.00000000000E+00 0.  1.
         22   -1    0    0    0    0 -0.00000000000E+00 -0.00000000000E+00 -0.11398664550E+04  0.11398664550E+04  0.00000000000E+00 0. -1.
         24    2    1    2    0    0 -0.56308246270E+02 -0.13821953971E+01 -0.78523945610E+03  0.79123365938E+03  0.79228601203E+02 0.  0.
         25    2    1    2    0    0  0.57219005532E+02 -0.95966398483E+01 -0.32667310056E+03  0.35458402083E+03  0.12509357742E+03 0.  0.
        -24    2    1    2    0    0 -0.91075926194E+00  0.10978835245E+02  0.14992023621E+03  0.17192290935E+03  0.83426885519E+02 0.  0.
        -11    1    3    3    0    0  0.11549877042E+02  0.11476800848E+02 -0.46415496083E+02  0.49188564667E+02  0.00000000000E+00 0.  1.
         12    1    3    3    0    0 -0.67858123312E+02 -0.12858996245E+02 -0.73882396002E+03  0.74204509471E+03  0.00000000000E+00 0. -1.
         13    1    5    5    0    0  0.24176390650E+02  0.32299382468E+01  0.53284014675E+01  0.24966422013E+02  0.00000000000E+00 0. -1.
        -14    1    5    5    0    0 -0.25087149912E+02  0.77488969987E+01  0.14459183474E+03  0.14695648734E+03  0.00000000000E+00 0.  1.
          5    1    4    4  501    0 -0.32100481759E+02 -0.11354649649E+02 -0.17645181133E+03  0.17975562055E+03  0.41800000000E+01 0. -1.
         -5    1    4    4    0  501  0.89319487291E+02  0.17580098004E+01 -0.15022128923E+03  0.17482840028E+03  0.41800000000E+01 0. -1.
</event>
<event>
11    1  0.8453735E-009  0.1865816E+03  0.7561462E-02  0.1064440E+00
         22   -1    0    0    0    0  0.00000000000E+00  0.00000000000E+00  0.17356487477E+04  0.17356487477E+04  0.00000000000E+00 0. -1.
         22   -1    0    0    0    0 -0.00000000000E+00 -0.00000000000E+00 -0.15215060517E+04  0.15215060517E+04  0.00000000000E+00 0.  1.
        -24    2    1    2    0    0  0.90528524346E+02  0.10408226632E+03 -0.14806964306E+04  0.14892901829E+04  0.80590304616E+02 0.  0.
         25    2    1    2    0    0 -0.53120525793E+02 -0.20947937658E+03  0.44405016050E+03  0.50944246283E+03  0.12509068081E+03 0.  0.
         24    2    1    2    0    0 -0.37407998554E+02  0.10539711027E+03  0.12507889662E+04  0.12584221537E+04  0.81519136658E+02 0.  0.
        -13    1    5    5    0    0 -0.38989547689E+02  0.54977803564E+02  0.36319600031E+03  0.36939691167E+03  0.00000000000E+00 0.  1.
         14    1    5    5    0    0  0.15815491352E+01  0.50419306704E+02  0.88759296588E+03  0.88902524198E+03  0.00000000000E+00 0. -1.
         11    1    3    3    0    0  0.73065708070E+01  0.63812138533E+02 -0.46889554110E+03  0.47327413142E+03  0.00000000000E+00 0. -1.
        -12    1    3    3    0    0  0.83221953540E+02  0.40270127783E+02 -0.10118008895E+04  0.10160160515E+04  0.00000000000E+00 0.  1.
          5    1    4    4  501    0 -0.83523866478E+01 -0.18678260434E+03  0.27139612122E+03  0.32959191535E+03  0.41800000000E+01 0. -1.
         -5    1    4    4    0  501 -0.44768139145E+02 -0.22696772241E+02  0.17265403928E+03  0.17985054749E+03  0.41800000000E+01 0. -1.
</event>
<event>
11    1  0.8453735E-009  0.1886896E+03  0.7561462E-02  0.1062823E+00
         22   -1    0    0    0    0  0.00000000000E+00  0.00000000000E+00  0.58356909377E+03  0.58356909377E+03  0.00000000000E+00 0. -1.
         22   -1    0    0    0    0 -0.00000000000E+00 -0.00000000000E+00 -0.13214980715E+04  0.13214980715E+04  0.00000000000E+00 0. -1.
        -24    2    1    2    0    0  0.37582926246E+02 -0.15093389012E+03 -0.11974732543E+04  0.12102808296E+04  0.81510589372E+02 0.  0.
         25    2    1    2    0    0 -0.12235082120E+01  0.49895781797E+02 -0.67763501260E+02  0.15076393036E+03  0.12508710797E+03 0.  0.
         24    2    1    2    0    0 -0.36359418034E+02  0.10103810832E+03  0.52730777786E+03  0.54402240530E+03  0.79850975365E+02 0.  0.
        -13    1    5    5    0    0 -0.56474525849E+02  0.39935048850E+02  0.29195252033E+03  0.30003408860E+03  0.00000000000E+00 0.  1.
         14    1    5    5    0    0  0.20115107815E+02  0.61103059469E+02  0.23535525753E+03  0.24398831670E+03  0.00000000000E+00 0. -1.
         11    1    3    3    0    0  0.56018334268E+02 -0.10586523729E+03 -0.98741449984E+03  0.99465214861E+03  0.00000000000E+00 0. -1.
        -12    1    3    3    0    0 -0.18435408022E+02 -0.45068652821E+02 -0.21005875450E+03  0.21562868102E+03  0.00000000000E+00 0.  1.
          5    1    4    4  501    0  0.57084570829E+02  0.11542076238E+02 -0.53945647418E+02  0.79495113220E+02  0.41800000000E+01 0.  1.
         -5    1    4    4    0  501 -0.58308079041E+02  0.38353705559E+02 -0.13817853842E+02  0.71268817139E+02  0.41800000000E+01 0.  1.
</event>
<event>
11    1  0.8453735E-009  0.1753774E+03  0.7561462E-02  0.1073445E+00
         22   -1    0    0    0    0  0.00000000000E+00  0.00000000000E+00  0.16019742295E+03  0.16019742295E+03  0.00000000000E+00 0.  1.
         22   -1    0    0    0    0 -0.00000000000E+00 -0.00000000000E+00 -0.75500136475E+03  0.75500136475E+03  0.00000000000E+00 0.  1.
         24    2    1    2    0    0 -0.63374057562E+02 -0.10186295234E+03 -0.55447674457E+03  0.57303068464E+03  0.80792159498E+02 0.  0.
         25    2    1    2    0    0  0.28076918623E+02  0.14685366032E+03 -0.10872739095E+03  0.22321045375E+03  0.12508777003E+03 0.  0.
        -24    2    1    2    0    0  0.35297138939E+02 -0.44990707987E+02  0.68400193728E+02  0.11895764931E+03  0.78754580853E+02 0.  0.
        -13    1    3    3    0    0 -0.11586950232E+02 -0.28860757202E+02 -0.32857295039E+03  0.33004148898E+03  0.00000000000E+00 0.  1.
         14    1    3    3    0    0 -0.51787107330E+02 -0.73002195135E+02 -0.22590379419E+03  0.24298919566E+03  0.00000000000E+00 0. -1.
         13    1    5    5    0    0 -0.14320373418E+02 -0.15659888119E+01 -0.92265829876E+01  0.17107169533E+02  0.00000000000E+00 0. -1.
        -14    1    5    5    0    0  0.49617512357E+02 -0.43424719175E+02  0.77626776716E+02  0.10185047978E+03  0.00000000000E+00 0.  1.
          5    1    4    4  501    0 -0.27001278678E+01  0.16024586058E+03 -0.97145567935E+02  0.18745868956E+03  0.41800000000E+01 0. -1.
         -5    1    4    4    0  501  0.30777046491E+02 -0.13392200252E+02 -0.11581823015E+02  0.35751764189E+02  0.41800000000E+01 0. -1.
</event>
<event>
11    1  0.8453735E-009  0.2986336E+03  0.7561462E-02  0.1000771E+00
         22   -1    0    0    0    0  0.00000000000E+00  0.00000000000E+00  0.33662166310E+03  0.33662166310E+03  0.00000000000E+00 0. -1.
         22   -1    0    0    0    0 -0.00000000000E+00 -0.00000000000E+00 -0.10073284674E+04  0.10073284674E+04  0.00000000000E+00 0.  1.
        -24    2    1    2    0    0  0.28016142879E+02  0.26981338367E+03 -0.48706955649E+03  0.56337701942E+03  0.81072479218E+02 0.  0.
         25    2    1    2    0    0 -0.83088796518E+02 -0.26134688696E+03 -0.42447803759E+03  0.52060892590E+03  0.12508439510E+03 0.  0.
         24    2    1    2    0    0  0.55072653638E+02 -0.84664967150E+01  0.24084078974E+03  0.25996418521E+03  0.80451307290E+02 0.  0.
        -11    1    5    5    0    0  0.71418120023E+01  0.20347886222E+02  0.12609384316E+02  0.24980763103E+02  0.00000000000E+00 0.  1.
         12    1    5    5    0    0  0.47930841636E+02 -0.28814382937E+02  0.22823140543E+03  0.23498342211E+03  0.00000000000E+00 0. -1.
         11    1    3    3    0    0 -0.20398640140E+02  0.66410009817E+02 -0.81563052792E+02  0.10713974755E+03  0.00000000000E+00 0. -1.
        -12    1    3    3    0    0  0.48414783019E+02  0.20340337386E+03 -0.40550650370E+03  0.45623727188E+03  0.00000000000E+00 0.  1.
          5    1    4    4  501    0 -0.74165704036E+02 -0.23509838081E+03 -0.27847226027E+03  0.37193557567E+03  0.41800000000E+01 0.  1.
         -5    1    4    4    0  501 -0.89230924813E+01 -0.26248506152E+02 -0.14600577732E+03  0.14867335022E+03  0.41800000000E+01 0.  1.
</event>
<event>
11    1  0.8453735E-009  0.2116089E+03  0.7561462E-02  0.1046605E+00
         22   -1    0    0    0    0  0.00000000000E+00  0.00000000000E+00  0.17852068141E+04  0.17852068141E+04  0.00000000000E+00 0. -1.
         22   -1    0    0    0    0 -0.00000000000E+00 -0.00000000000E+00 -0.78419183183E+03  0.78419183183E+03  0.00000000000E+00 0.  1.
        -24    2    1    2    0    0  0.13883463571E+03 -0.96126180078E+02 -0.72143250622E+03  0.74530565499E+03  0.80624808631E+02 0.  0.
         25    2    1    2    0    0 -0.23604732403E+03  0.63291776566E+02  0.34714890694E+03  0.44258749233E+03  0.12508851513E+03 0.  0.
         24    2    1    2    0    0  0.97212688317E+02  0.32834403512E+02  0.13752985816E+04  0.13815054986E+04  0.81134761105E+02 0.  0.
        -13    1    5    5    0    0  0.42068095239E+02  0.35611253450E+02  0.31613796917E+03  0.32090668668E+03  0.00000000000E+00 0.  1.
         14    1    5    5    0    0  0.55144593079E+02 -0.27768499376E+01  0.10591606124E+04  0.10605988119E+04  0.00000000000E+00 0. -1.
         13    1    3    3    0    0  0.40740166668E+02 -0.47821896644E+01 -0.78734767622E+02  0.88779469195E+02  0.00000000000E+00 0. -1.
        -14    1    3    3    0    0  0.98094469045E+02 -0.91343990414E+02 -0.64269773860E+03  0.65652618580E+03  0.00000000000E+00 0.  1.
          5    1    4    4  501    0 -0.72461839475E+02  0.11895089003E+02  0.21145638813E+03  0.22388275459E+03  0.41800000000E+01 0. -1.
         -5    1    4    4    0  501 -0.16358548455E+03  0.51396687563E+02  0.13569251881E+03  0.21870473774E+03  0.41800000000E+01 0. -1.
</event>
<event>
11    1  0.8453735E-009  0.1371426E+03  0.7561462E-02  0.1110792E+00
         22   -1    0    0    0    0  0.00000000000E+00  0.00000000000E+00  0.75752167292E+03  0.75752167292E+03  0.00000000000E+00 0.  1.
         22   -1    0    0    0    0 -0.00000000000E+00 -0.00000000000E+00 -0.13146802440E+03  0.13146802440E+03  0.00000000000E+00 0.  1.
         24    2    1    2    0    0 -0.50434592693E+01 -0.18808985323E+02 -0.89374099250E+02  0.12260726859E+03  0.81643115357E+02 0.  0.
         25    2    1    2    0    0  0.44910516322E+02  0.54201629510E+02  0.22472423233E+03  0.26665102560E+03  0.12508803996E+03 0.  0.
        -24    2    1    2    0    0 -0.39867057052E+02 -0.35392644187E+02  0.49070351544E+03  0.49973140312E+03  0.78099383466E+02 0.  0.
        -11    1    3    3    0    0 -0.42966941938E+02 -0.37546366935E+01 -0.45726029060E+02  0.62857975865E+02  0.00000000000E+00 0.  1.
         12    1    3    3    0    0  0.37923482669E+02 -0.15054348630E+02 -0.43648070190E+02  0.59749292730E+02  0.00000000000E+00 0. -1.
         11    1    5    5    0    0 -0.19541937847E+02  0.12867667864E+02  0.42808203409E+02  0.48785310189E+02  0.00000000000E+00 0. -1.
        -12    1    5    5    0    0 -0.20325119205E+02 -0.48260312051E+02  0.44789531203E+03  0.45094609293E+03  0.00000000000E+00 0.  1.
          5    1    4    4  501    0  0.83712252834E+01 -0.10993805400E+02  0.17762885240E+03  0.17821454142E+03  0.41800000000E+01 0.  1.
         -5    1    4    4    0  501  0.36539291038E+02  0.65195434910E+02  0.47095379926E+02  0.88436484174E+02  0.41800000000E+01 0.  1.
</event>
<event>
11    1  0.8453735E-009  0.1343107E+03  0.7561462E-02  0.1114083E+00
         22   -1    0    0    0    0  0.00000000000E+00  0.00000000000E+00  0.10421556442E+04  0.10421556442E+04  0.00000000000E+00 0. -1.
         22   -1    0    0    0    0 -0.00000000000E+00 -0.00000000000E+00 -0.69153157305E+03  0.69153157305E+03  0.00000000000E+00 0. -1.
         24    2    1    2    0    0  0.14169842815E+01  0.35812915188E+02 -0.62068145056E+03  0.62708527356E+03  0.81889587314E+02 0.  0.
         25    2    1    2    0    0  0.83416452313E+01  0.13318428159E+02 -0.46034606296E+01  0.12615803624E+03  0.12509074580E+03 0.  0.
        -24    2    1    2    0    0 -0.97586295128E+01 -0.49131343347E+02  0.97590898238E+03  0.98044390749E+03  0.79767124131E+02 0.  0.
        -13    1    3    3    0    0  0.28022675871E+02  0.20214502992E+02 -0.10618653534E+03  0.11166681146E+03  0.00000000000E+00 0.  1.
         14    1    3    3    0    0 -0.26605691590E+02  0.15598412196E+02 -0.51449491523E+03  0.51541846211E+03  0.00000000000E+00 0. -1.
         11    1    5    5    0    0 -0.41637830763E+02 -0.44329349276E+02  0.70649684597E+03  0.70910971896E+03  0.00000000000E+00 0. -1.
        -12    1    5    5    0    0  0.31879201250E+02 -0.48019940707E+01  0.26941213641E+03  0.27133418853E+03  0.00000000000E+00 0.  1.
          5    1    4    4  501    0 -0.90936491707E+01  0.66355175273E+02 -0.16087190592E+02  0.69007056464E+02  0.41800000000E+01 0.  1.
         -5    1    4    4    0  501  0.17435294402E+02 -0.53036747114E+02  0.11483729962E+02  0.57150979774E+02  0.41800000000E+01 0.  1.
</event>
<event>
11    1  0.8453735E-009  0.1729264E+03  0.7561462E-02  0.1075513E+00
         22   -1    0    0    0    0  0.00000000000E+00  0.00000000000E+00  0.45892668334E+03  0.45892668334E+03  0.00000000000E+00 0.  1.
         22   -1    0    0    0    0 -0.00000000000E+00 -0.00000000000E+00 -0.14185209983E+04  0.14185209983E+04  0.00000000000E+00 0. -1.
        -24    2    1    2    0    0 -0.82743203458E+02 -0.58306175338E+02 -0.77433001285E+03  0.78502811270E+03  0.80225439430E+02 0.  0.
         25    2    1    2    0    0  0.19691636274E+03  0.56603826081E+02 -0.60637392801E+03  0.65216454167E+03  0.12509676975E+03 0.  0.
         24    2    1    2    0    0 -0.11417315928E+03  0.17023492575E+01  0.42110962589E+03  0.44025502728E+03  0.58760222395E+02 0.  0.
        -11    1    5    5    0    0 -0.66071584660E+02 -0.11144144841E+02  0.14553293134E+03  0.16021697903E+03  0.00000000000E+00 0.  1.
         12    1    5    5    0    0 -0.48101574622E+02  0.12846494098E+02  0.27557669455E+03  0.28003804825E+03  0.00000000000E+00 0. -1.
         13    1    3    3    0    0 -0.48706067610E+01 -0.26889650069E+02 -0.41983773199E+03  0.42072615475E+03  0.00000000000E+00 0. -1.
        -14    1    3    3    0    0 -0.77872596697E+02 -0.31416525269E+02 -0.35449228087E+03  0.36430195796E+03  0.00000000000E+00 0.  1.
          5    1    4    4  501    0  0.20021114184E+03  0.24476822178E+02 -0.46140138724E+03  0.50357951576E+03  0.41800000000E+01 0.  1.
         -5    1    4    4    0  501 -0.32947791024E+01  0.32127003903E+02 -0.14497254076E+03  0.14858502591E+03  0.41800000000E+01 0.  1.
</event>
<event>
11    1  0.8453735E-009  0.1442153E+03  0.7561462E-02  0.1102941E+00
         22   -1    0    0    0    0  0.00000000000E+00  0.00000000000E+00  0.10199227505E+03  0.10199227505E+03  0.00000000000E+00 0.  1.
         22   -1    0    0    0    0 -0.00000000000E+00 -0.00000000000E+00 -0.12918786666E+04  0.12918786666E+04  0.00000000000E+00 0.  1.
         24    2    1    2    0    0 -0.35484235969E+01  0.77590836763E+02 -0.10016737428E+04  0.10079609969E+04  0.81253646441E+02 0.  0.
         25    2    1    2    0    0 -0.92248525998E+01 -0.41078823750E+02 -0.24666233931E+03  0.27975168831E+03  0.12508449070E+03 0.  0.
        -24    2    1    2    0    0  0.12773276197E+02 -0.36512013012E+02  0.58449690586E+02  0.10615825637E+03  0.79730329157E+02 0.  0.
        -11    1    3    3    0    0 -0.57082986483E+00  0.82894342640E+02 -0.99659636415E+03  0.10000380547E+04  0.00000000000E+00 0.  1.
         12    1    3    3    0    0 -0.29775937320E+01 -0.53035058773E+01 -0.50773786488E+01  0.79229421913E+01  0.00000000000E+00 0. -1.
         13    1    5    5    0    0 -0.14858291276E+02  0.16075001293E+02  0.37018092275E+02  0.43005972165E+02  0.00000000000E+00 0. -1.
        -14    1    5    5    0    0  0.27631567472E+02 -0.52587014305E+02  0.21431598312E+02  0.63152284208E+02  0.00000000000E+00 0.  1.
          5    1    4    4  501    0 -0.36914251145E+02  0.89891613023E+01 -0.14947404449E+02  0.41041007033E+02  0.41800000000E+01 0.  1.
         -5    1    4    4    0  501  0.27689398545E+02 -0.50067985053E+02 -0.23171493486E+03  0.23871068128E+03  0.41800000000E+01 0.  1.
</event>
<event>
11    1  0.8453735E-009  0.1357559E+03  0.7561462E-02  0.1112392E+00
         22   -1    0    0    0    0  0.00000000000E+00  0.00000000000E+00  0.88172802998E+03  0.88172802998E+03  0.00000000000E+00 0.  1.
         22   -1    0    0    0    0 -0.00000000000E+00 -0.00000000000E+00 -0.26112621653E+03  0.26112621653E+03  0.00000000000E+00 0. -1.
        -24    2    1    2    0    0 -0.56744064887E+00  0.50200018315E+02 -0.18180964247E+03  0.20489121786E+03  0.80033125850E+02 0.  0.
         25    2    1    2    0    0 -0.22924671834E+02 -0.70230300280E+02  0.15719477440E+02  0.14612221915E+03  0.12508703091E+03 0.  0.
         24    2    1    2    0    0  0.23492112483E+02  0.20030281965E+02  0.78669197848E+03  0.79184080950E+03  0.84702461871E+02 0.  0.
        -11    1    5    5    0    0  0.42853659222E+01 -0.26892541061E+01  0.70300306050E+03  0.70302126534E+03  0.00000000000E+00 0.  1.
         12    1    5    5    0    0  0.19206746561E+02  0.22719536071E+02  0.83688917977E+02  0.88819544161E+02  0.00000000000E+00 0. -1.
         11    1    3    3    0    0  0.75593785374E+01  0.27767803884E+02 -0.17849861032E+03  0.18080362005E+03  0.00000000000E+00 0. -1.
        -12    1    3    3    0    0 -0.81268191862E+01  0.22432214431E+02 -0.33110321477E+01  0.24087597810E+02  0.00000000000E+00 0.  1.
          5    1    4    4  501    0 -0.35703134302E+02 -0.17891760047E+01 -0.42197413307E+02  0.55461779989E+02  0.41800000000E+01 0. -1.
         -5    1    4    4    0  501  0.12778462467E+02 -0.68441124276E+02  0.57916890747E+02  0.90660439161E+02  0.41800000000E+01 0. -1.
</event>
<event>
11    1  0.8453735E-009  0.1570050E+03  0.7561462E-02  0.1089928E+00
         22   -1    0    0    0    0  0.00000000000E+00  0.00000000000E+00  0.36473070219E+04  0.36473070219E+04  0.00000000000E+00 0. -1.
         22   -1    0    0    0    0 -0.00000000000E+00 -0.00000000000E+00 -0.14599045835E+04  0.14599045835E+04  0.00000000000E+00 0.  1.
         24    2    1    2    0    0 -0.32534377718E+02 -0.17804636484E+02 -0.14405262224E+04  0.14432012258E+04  0.79614634630E+02 0.  0.
         25    2    1    2    0    0  0.12396247385E+03  0.30157310870E+02  0.46195226918E+03  0.49530105627E+03  0.12508828490E+03 0.  0.
        -24    2    1    2    0    0 -0.91428096132E+02 -0.12352674386E+02  0.31659763916E+04  0.31687093233E+04  0.93811395510E+02 0.  0.
        -13    1    3    3    0    0  0.24127218046E+02  0.73018851744E+01 -0.34159827418E+03  0.34252711002E+03  0.00000000000E+00 0.  1.
         14    1    3    3    0    0 -0.56661595763E+02 -0.25106521659E+02 -0.10989279482E+04  0.11006741158E+04  0.00000000000E+00 0. -1.
         11    1    5    5    0    0 -0.89513669422E+02 -0.43997393993E+02  0.23401393997E+04  0.23422640495E+04  0.00000000000E+00 0. -1.
        -12    1    5    5    0    0 -0.19144267101E+01  0.31644719607E+02  0.82583699193E+03  0.82644527378E+03  0.00000000000E+00 0.  1.
          5    1    4    4  501    0  0.76130317301E+02  0.58304244882E+02  0.14762703943E+03  0.17608641445E+03  0.41800000000E+01 0. -1.
         -5    1    4    4    0  501  0.47832156549E+02 -0.28146934012E+02  0.31432522975E+03  0.31921464182E+03  0.41800000000E+01 0. -1.
</event>
<event>
11    1  0.8453735E-009  0.1649892E+03  0.7561462E-02  0.1082476E+00
         22   -1    0    0    0    0  0.00000000000E+00  0.00000000000E+00  0.30745058630E+03  0.30745058630E+03  0.00000000000E+00 0. -1.
         22   -1    0    0    0    0 -0.00000000000E+00 -0.00000000000E+00 -0.91132768585E+03  0.91132768585E+03  0.00000000000E+00 0.  1.
        -24    2    1    2    0    0 -0.88519686178E+01  0.11466308652E+03 -0.79690007057E+03  0.80908538995E+03  0.79645872451E+02 0.  0.
         25    2    1    2    0    0  0.54985199892E+02 -0.37342840597E+02 -0.41065479423E+02  0.14748528623E+03  0.12509067152E+03 0.  0.
         24    2    1    2    0    0 -0.46133231274E+02 -0.77320245920E+02  0.23408845044E+03  0.26220759597E+03  0.76476959275E+02 0.  0.
        -13    1    5    5    0    0  0.98967722024E+00  0.58071283610E+01 -0.29831048283E+01  0.66031140546E+01  0.00000000000E+00 0.  1.
         14    1    5    5    0    0 -0.47122908495E+02 -0.83127374281E+02  0.23707155526E+03  0.25560448191E+03  0.00000000000E+00 0. -1.
         11    1    3    3    0    0  0.34825430634E+02  0.38119424046E+02 -0.27776956200E+03  0.28252757509E+03  0.00000000000E+00 0. -1.
        -12    1    3    3    0    0 -0.43677399252E+02  0.76543662472E+02 -0.51913050857E+03  0.52655781486E+03  0.00000000000E+00 0.  1.
          5    1    4    4  501    0  0.61917869596E+02 -0.10085044431E+02  0.30936625802E+02  0.70071948114E+02  0.41800000000E+01 0. -1.
         -5    1    4    4    0  501 -0.69326697036E+01 -0.27257796166E+02 -0.72002105225E+02  0.77413338114E+02  0.41800000000E+01 0. -1.
</event>
<event>
11    1  0.8453735E-009  0.1386401E+03  0.7561462E-02  0.1109087E+00
         22   -1    0    0    0    0  0.00000000000E+00  0.00000000000E+00  0.56328660910E+03  0.56328660910E+03  0.00000000000E+00 0. -1.
         22   -1    0    0    0    0 -0.00000000000E+00 -0.00000000000E+00 -0.69872018528E+03  0.69872018528E+03  0.00000000000E+00 0.  1.
         24    2    1    2    0    0  0.19810770043E+02 -0.45681233117E+02 -0.50809973451E+03  0.51709904050E+03  0.82139124750E+02 0.  0.
         25    2    1    2    0    0 -0.58668293948E+02  0.89541287450E+02 -0.14387629391E+03  0.21863382700E+03  0.12506299008E+03 0.  0.
        -24    2    1    2    0    0  0.38857523905E+02 -0.43860054333E+02  0.51654245223E+03  0.52627392688E+03  0.81942233434E+02 0.  0.
        -13    1    3    3    0    0  0.14349083042E+02 -0.68927674744E+02 -0.33164732134E+03  0.33903814871E+03  0.00000000000E+00 0.  1.
         14    1    3    3    0    0  0.54616870013E+01  0.23246441627E+02 -0.17645241317E+03  0.17806089179E+03  0.00000000000E+00 0. -1.
         13    1    5    5    0    0  0.35948970113E+02  0.62479164159E+00  0.39808956495E+03  0.39970992049E+03  0.00000000000E+00 0. -1.
        -14    1    5    5    0    0  0.29085537917E+01 -0.44484845974E+02  0.11845288729E+03  0.12656400639E+03  0.00000000000E+00 0.  1.
          5    1    4    4  501    0 -0.55800920055E+02  0.57276490949E+02 -0.16241304658E+03  0.18107956592E+03  0.41800000000E+01 0.  1.
         -5    1    4    4    0  501 -0.28673738925E+01  0.32264796501E+02  0.18536752669E+02  0.37554261087E+02  0.41800000000E+01 0.  1.
</event>
<event>
11    1  0.8453735E-009  0.8915755E+03  0.7561462E-02  0.8789585E-01
         22   -1    0    0    0    0  0.00000000000E+00  0.00000000000E+00  0.12516640058E+04  0.12516640058E+04  0.00000000000E+00 0.  1.
         22   -1    0    0    0    0 -0.00000000000E+00 -0.00000000000E+00 -0.15877003071E+03  0.15877003071E+03  0.00000000000E+00 0. -1.
        -24    2    1    2    0    0 -0.59024006550E+02  0.15621042679E+03  0.21804444161E+03  0.28131947167E+03  0.60924016925E+02 0.  0.
         25    2    1    2    0    0 -0.29694431567E+02 -0.39979158743E+03  0.38816803736E+03  0.57187181393E+03  0.12509146132E+03 0.  0.
         24    2    1    2    0    0  0.88718438117E+02  0.24358116064E+03  0.48668149611E+03  0.55724275089E+03  0.80360821812E+02 0.  0.
        -11    1    5    5    0    0  0.43512594936E+02  0.89333542434E+02  0.26811588425E+03  0.28593697751E+03  0.00000000000E+00 0.  1.
         12    1    5    5    0    0  0.45205843181E+02  0.15424761821E+03  0.21856561186E+03  0.27130577338E+03  0.00000000000E+00 0. -1.
         13    1    3    3    0    0 -0.16106514306E+02  0.84003443481E+02  0.67632242634E+02  0.10904182025E+03  0.00000000000E+00 0. -1.
        -14    1    3    3    0    0 -0.42917492244E+02  0.72206983309E+02  0.15041219897E+03  0.17227765142E+03  0.00000000000E+00 0.  1.
          5    1    4    4  501    0  0.38075963439E+02 -0.26814277712E+03  0.23216341933E+03  0.35674592301E+03  0.41800000000E+01 0. -1.
         -5    1    4    4    0  501 -0.67770395006E+02 -0.13164881031E+03  0.15600461803E+03  0.21512589091E+03  0.41800000000E+01 0. -1.
</event>
<event>
11    1  0.8453735E-009  0.2249332E+03  0.7561462E-02  0.1038170E+00
         22   -1    0    0    0    0  0.00000000000E+00  0.00000000000E+00  0.43254166943E+03  0.43254166943E+03  0.00000000000E+00 0. -1.
         22   -1    0    0    0    0 -0.00000000000E+00 -0.00000000000E+00 -0.78866587434E+03  0.78866587434E+03  0.00000000000E+00 0. -1.
         24    2    1    2    0    0  0.14861663257E+03  0.10715047038E+03 -0.56789043292E+03  0.60286224094E+03  0.85879048531E+02 0.  0.
         25    2    1    2    0    0 -0.16046411829E+03 -0.12296956231E+03 -0.12700759040E+03  0.26953870710E+03  0.12509972059E+03 0.  0.
        -24    2    1    2    0    0  0.11847485718E+02  0.15819091937E+02  0.33877381841E+03  0.34880659573E+03  0.80670531126E+02 0.  0.
        -13    1    3    3    0    0  0.12659586406E+03  0.45015995264E+02 -0.41940114160E+03  0.44039785444E+03  0.00000000000E+00 0.  1.
         14    1    3    3    0    0  0.22020768509E+02  0.62134475111E+02 -0.14848929132E+03  0.16246438650E+03  0.00000000000E+00 0. -1.
         11    1    5    5    0    0  0.17154963232E+02 -0.10716882064E+02  0.30434002054E+03  0.30501146278E+03  0.00000000000E+00 0. -1.
        -12    1    5    5    0    0 -0.53074775139E+01  0.26535974001E+02  0.34433797868E+02  0.43795132941E+02  0.00000000000E+00 0.  1.
          5    1    4    4  501    0 -0.15417456097E+03 -0.82714111898E+02 -0.14256162010E+03  0.22572706413E+03  0.41800000000E+01 0. -1.
         -5    1    4    4    0  501 -0.62895573198E+01 -0.40255450414E+02  0.15554029702E+02  0.43811642965E+02  0.41800000000E+01 0. -1.
</event>
<event>
11    1  0.8453735E-009  0.2814205E+03  0.7561462E-02  0.1008376E+00
         22   -1    0    0    0    0  0.00000000000E+00  0.00000000000E+00  0.37319239397E+04  0.37319239397E+04  0.00000000000E+00 0.  1.
         22   -1    0    0    0    0 -0.00000000000E+00 -0.00000000000E+00 -0.31702313565E+03  0.31702313565E+03  0.00000000000E+00 0. -1.
         24    2    1    2    0    0  0.32656503158E+02 -0.24035366428E+03 -0.19539765154E+03  0.32193061610E+03  0.81380269269E+02 0.  0.
         25    2    1    2    0    0  0.26920150490E+02  0.35063719847E+03  0.55924675312E+03  0.67236616046E+03  0.12509269924E+03 0.  0.
        -24    2    1    2    0    0 -0.59576653647E+02 -0.11028353419E+03  0.30510517025E+04  0.30546502988E+04  0.79120927891E+02 0.  0.
        -13    1    3    3    0    0  0.23402407605E+02 -0.55509533766E+02 -0.12091866837E+02  0.61442609517E+02  0.00000000000E+00 0.  1.
         14    1    3    3    0    0  0.92540955526E+01 -0.18484413051E+03 -0.18330578470E+03  0.26048800658E+03  0.00000000000E+00 0. -1.
         13    1    5    5    0    0 -0.30341763377E+02  0.23940442425E+01  0.81867615779E+03  0.81924172586E+03  0.00000000000E+00 0. -1.
        -14    1    5    5    0    0 -0.29234890271E+02 -0.11267757844E+03  0.22323755447E+04  0.22354085730E+04  0.00000000000E+00 0.  1.
          5    1    4    4  501    0  0.42059445307E+02  0.32172832395E+03  0.54931697206E+03  0.63800056392E+03  0.41800000000E+01 0.  1.
         -5    1    4    4    0  501 -0.15139294818E+02  0.28908874515E+02  0.99297810582E+01  0.34365596535E+02  0.41800000000E+01 0.  1.
</event>
<event>
11    1  0.8453735E-009  0.1778283E+03  0.7561462E-02  0.1071413E+00
         22   -1    0    0    0    0  0.00000000000E+00  0.00000000000E+00  0.22282920774E+04  0.22282920774E+04  0.00000000000E+00 0. -1.
         22   -1    0    0    0    0 -0.00000000000E+00 -0.00000000000E+00 -0.12126361399E+03  0.12126361399E+03  0.00000000000E+00 0.  1.
        -24    2    1    2    0    0  0.63887416126E+02 -0.60950917963E+02 -0.36607143426E+02  0.12448251666E+03  0.79744577651E+02 0.  0.
         25    2    1    2    0    0 -0.18558496202E+03  0.64073166267E+02  0.31995922249E+03  0.39568776933E+03  0.12509099879E+03 0.  0.
         24    2    1    2    0    0  0.12169754589E+03 -0.31222483040E+01  0.18236763844E+04  0.18293854054E+04  0.77687615193E+02 0.  0.
        -13    1    5    5    0    0  0.75171772572E+02  0.24020999542E+02  0.70305906457E+03  0.70747427663E+03  0.00000000000E+00 0.  1.
         14    1    5    5    0    0  0.46525773320E+02 -0.27143247846E+02  0.11206173198E+04  0.11219111288E+04  0.00000000000E+00 0. -1.
         11    1    3    3    0    0  0.19027608091E+00  0.16641420385E+02  0.23345337502E+01  0.16805449272E+02  0.00000000000E+00 0. -1.
        -12    1    3    3    0    0  0.63697140045E+02 -0.77592338348E+02 -0.38941677176E+02  0.10767706739E+03  0.00000000000E+00 0.  1.
          5    1    4    4  501    0 -0.29217767775E+01  0.25372499787E+02  0.11718868788E+03  0.12001233891E+03  0.41800000000E+01 0.  1.
         -5    1    4    4    0  501 -0.18266318524E+03  0.38700666480E+02  0.20277053461E+03  0.27567543042E+03  0.41800000000E+01 0.  1.
</event>
<event>
11    1  0.8453735E-009  0.1759088E+03  0.7561462E-02  0.1073001E+00
         22   -1    0    0    0    0  0.00000000000E+00  0.00000000000E+00  0.42064153585E+03  0.42064153585E+03  0.00000000000E+00 0. -1.
         22   -1    0    0    0    0 -0.00000000000E+00 -0.00000000000E+00 -0.33586924643E+03  0.33586924643E+03  0.00000000000E+00 0. -1.
        -24    2    1    2    0    0 -0.63882493093E+02 -0.10388565119E+03 -0.23465134025E+03  0.27599546025E+03  0.78987601249E+02 0.  0.
         25    2    1    2    0    0  0.57956125302E+02  0.12039032036E+03  0.37754822024E+02  0.18688529976E+03  0.12509175426E+03 0.  0.
         24    2    1    2    0    0  0.59263677904E+01 -0.16504669167E+02  0.28166880765E+03  0.29363002227E+03  0.81078645974E+02 0.  0.
        -13    1    5    5    0    0  0.19278128586E+02  0.26642310483E+01  0.11815171500E+02  0.22767139619E+02  0.00000000000E+00 0.  1.
         14    1    5    5    0    0 -0.13351760796E+02 -0.19168900215E+02  0.26985363615E+03  0.27086288265E+03  0.00000000000E+00 0. -1.
         13    1    3    3    0    0  0.30606446966E+01 -0.69301493699E+02 -0.12485182178E+03  0.14282871552E+03  0.00000000000E+00 0. -1.
        -14    1    3    3    0    0 -0.66943137789E+02 -0.34584157493E+02 -0.10979951847E+03  0.13316674473E+03  0.00000000000E+00 0.  1.
          5    1    4    4  501    0  0.91547186748E+02  0.62197158288E+02  0.22595112084E+01  0.11077884135E+03  0.41800000000E+01 0. -1.
         -5    1    4    4    0  501 -0.33591061446E+02  0.58193162071E+02  0.35495310815E+02  0.76106458404E+02  0.41800000000E+01 0. -1.
</event>
<event>
11    1  0.8453735E-009  0.1681950E+03  0.7561462E-02  0.1079613E+00
         22   -1    0    0    0    0  0.00000000000E+00  0.00000000000E+00  0.28252569800E+04  0.28252569800E+04  0.00000000000E+00 0.  1.
         22   -1    0    0    0    0 -0.00000000000E+00 -0.00000000000E+00 -0.52636575949E+03  0.52636575949E+03  0.00000000000E+00 0. -1.
        -24    2    1    2    0    0 -0.20252252897E+02  0.11860703027E+02 -0.47962786799E+03  0.48698027437E+03  0.80969536580E+02 0.  0.
         25    2    1    2    0    0  0.97985513603E+02  0.69025087665E+02  0.14148197945E+03  0.22367402111E+03  0.12508914264E+03 0.  0.
         24    2    1    2    0    0 -0.77733260705E+02 -0.80885790692E+02  0.26370371091E+04  0.26409684440E+04  0.90358380044E+02 0.  0.
        -13    1    5    5    0    0 -0.91715435207E+02 -0.55115733813E+02  0.23507372429E+04  0.23531712752E+04  0.00000000000E+00 0.  1.
         14    1    5    5    0    0  0.13982174502E+02 -0.25770056879E+02  0.28629986618E+03  0.28779716887E+03  0.00000000000E+00 0. -1.
         13    1    3    3    0    0 -0.14532687560E+02  0.17536594650E+02 -0.47826616622E+03  0.47880816295E+03  0.00000000000E+00 0. -1.
        -14    1    3    3    0    0 -0.57195653377E+01 -0.56758916226E+01 -0.13617017686E+01  0.81721114206E+01  0.00000000000E+00 0.  1.
          5    1    4    4  501    0  0.61548064810E+02  0.13462938793E+02  0.14380639155E+03  0.15705784174E+03  0.41800000000E+01 0.  1.
         -5    1    4    4    0  501  0.36437448792E+02  0.55562148872E+02 -0.23244120944E+01  0.66616179366E+02  0.41800000000E+01 0.  1.
</event>
<event>
11    1  0.9685614E-009  0.1378769E+03  0.7561462E-02  0.1109953E+00
         22   -1    0    0    0    0  0.00000000000E+00  0.00000000000E+00  0.84757419666E+03  0.84757419666E+03  0.00000000000E+00 0.  1.
         22   -1    0    0    0    0 -0.00000000000E+00 -0.00000000000E+00 -0.43763217673E+03  0.43763217673E+03  0.00000000000E+00 0.  1.
         24    2    1    2    0    0 -0.38814316451E+02  0.57190979983E+02 -0.35873786103E+03  0.38176646945E+03  0.11079451662E+03 0.  0.
         25    2    1    2    0    0  0.26447240373E+01  0.36001251234E+01 -0.22118845934E+01  0.12519029133E+03  0.12509101144E+03 0.  0.
        -24    2    1    2    0    0  0.36169592414E+02 -0.60791105106E+02  0.77089176556E+03  0.77824961261E+03  0.79965914292E+02 0.  0.
        -11    1    3    3    0    0 -0.33900391015E+01  0.85132183518E+02 -0.22265325228E+03  0.23839767572E+03  0.00000000000E+00 0.  1.
         12    1    3    3    0    0 -0.35424277350E+02 -0.27941203535E+02 -0.13608460874E+03  0.14336879374E+03  0.00000000000E+00 0. -1.
         11    1    5    5    0    0 -0.21724239406E+02 -0.36552039472E+02  0.24999587922E+03  0.25358614669E+03  0.00000000000E+00 0. -1.
        -12    1    5    5    0    0  0.57893831820E+02 -0.24239065634E+02  0.52089588634E+03  0.52466346592E+03  0.00000000000E+00 0.  1.
          5    1    4    4  501    0 -0.38099957816E+02  0.15487134326E+02 -0.47508070740E+02  0.62975767567E+02  0.41800000000E+01 0. -1.
         -5    1    4    4    0  501  0.40744681853E+02 -0.11887009203E+02  0.45296186147E+02  0.62214523759E+02  0.41800000000E+01 0. -1.
</event>
<event>
11    1  0.8453735E-009  0.1364590E+03  0.7561462E-02  0.1111578E+00
         22   -1    0    0    0    0  0.00000000000E+00  0.00000000000E+00  0.98667763070E+02  0.98667763070E+02  0.00000000000E+00 0.  1.
         22   -1    0    0    0    0 -0.00000000000E+00 -0.00000000000E+00 -0.16985236452E+04  0.16985236452E+04  0.00000000000E+00 0.  1.
        -24    2    1    2    0    0  0.16209872744E+01 -0.53548859674E+02 -0.15417488333E+04  0.15447394349E+04  0.79751794782E+02 0.  0.
         25    2    1    2    0    0  0.10022647755E+02  0.88980532997E+02 -0.57143524764E+02  0.16410703409E+03  0.12509095689E+03 0.  0.
         24    2    1    2    0    0 -0.11643635029E+02 -0.35431673324E+02 -0.96352400433E+00  0.88344939220E+02  0.80080723000E+02 0.  0.
        -13    1    5    5    0    0 -0.45169301628E+02 -0.29912509401E+02  0.22040745913E+01  0.54220678464E+02  0.00000000000E+00 0.  1.
         14    1    5    5    0    0  0.33525666599E+02 -0.55191639231E+01 -0.31675985956E+01  0.34124260757E+02  0.00000000000E+00 0. -1.
         11    1    3    3    0    0  0.14092751816E+02 -0.25662271174E+02 -0.16022480223E+03  0.16287769972E+03  0.00000000000E+00 0. -1.
        -12    1    3    3    0    0 -0.12471764542E+02 -0.27886588499E+02 -0.13815240311E+04  0.13818617352E+04  0.00000000000E+00 0.  1.
          5    1    4    4  501    0 -0.31221131612E+02  0.47552268316E+01 -0.62425395540E+02  0.70084047041E+02  0.41800000000E+01 0. -1.
         -5    1    4    4    0  501  0.41243779367E+02  0.84225306166E+02  0.52818707756E+01  0.94022987051E+02  0.41800000000E+01 0. -1.
</event>
<event>
11    1  0.8825349E-009  0.1875835E+03  0.7561462E-02  0.1063669E+00
         22   -1    0    0    0    0  0.00000000000E+00  0.00000000000E+00  0.35519489228E+03  0.35519489228E+03  0.00000000000E+00 0. -1.
         22   -1    0    0    0    0 -0.00000000000E+00 -0.00000000000E+00 -0.16655703424E+04  0.16655703424E+04  0.00000000000E+00 0. -1.
         24    2    1    2    0    0 -0.16641939541E+02  0.55892787300E+01 -0.11152083288E+04  0.11179737716E+04  0.76599888958E+02 0.  0.
         25    2    1    2    0    0  0.13323392784E+03 -0.81661244455E+02 -0.51167563792E+03  0.54943573494E+03  0.12509128670E+03 0.  0.
        -24    2    1    2    0    0 -0.11659198830E+03  0.76071965725E+02  0.31650851663E+03  0.35335572819E+03  0.72814791390E+02 0.  0.
        -13    1    3    3    0    0  0.25866877594E+02 -0.49782028040E+00 -0.18803077422E+03  0.18980230566E+03  0.00000000000E+00 0.  1.
         14    1    3    3    0    0 -0.42508817135E+02  0.60870990104E+01 -0.92717755462E+03  0.92817146589E+03  0.00000000000E+00 0. -1.
         11    1    5    5    0    0 -0.61435051505E+02  0.22208147850E+02  0.22188515134E+03  0.23130172453E+03  0.00000000000E+00 0. -1.
        -12    1    5    5    0    0 -0.55156936792E+02  0.53863817875E+02  0.94623365285E+02  0.12205400366E+03  0.00000000000E+00 0.  1.
          5    1    4    4  501    0  0.45392629076E+02  0.31431159095E+02 -0.11382487946E+03  0.12657797645E+03  0.41800000000E+01 0. -1.
         -5    1    4    4    0  501  0.87841298761E+02 -0.11309240355E+03 -0.39785075846E+03  0.42285775849E+03  0.41800000000E+01 0. -1.
</event>
<event>
11    1  0.1058092E-008  0.1693430E+03  0.7561462E-02  0.1078605E+00
         22   -1    0    0    0    0  0.00000000000E+00  0.00000000000E+00  0.47552842123E+03  0.47552842123E+03  0.00000000000E+00 0. -1.
         22   -1    0    0    0    0 -0.00000000000E+00 -0.00000000000E+00 -0.99451067155E+03  0.99451067155E+03  0.00000000000E+00 0.  1.
        -24    2    1    2    0    0  0.60822886878E+02 -0.48746644330E+02 -0.80689359931E+03  0.81466425674E+03  0.80776925479E+02 0.  0.
         25    2    1    2    0    0  0.45698215942E+02 -0.45877763111E+01 -0.14604893022E+03  0.19766981323E+03  0.12503475681E+03 0.  0.
         24    2    1    2    0    0 -0.10652110282E+03  0.53334420641E+02  0.43396027922E+03  0.45770502282E+03  0.83552727089E+02 0.  0.
        -11    1    5    5    0    0 -0.65353740717E+02  0.17352980321E+02  0.10968577681E+03  0.12885343219E+03  0.00000000000E+00 0.  1.
         12    1    5    5    0    0 -0.41167362103E+02  0.35981440320E+02  0.32427450241E+03  0.32885159064E+03  0.00000000000E+00 0. -1.
         11    1    3    3    0    0  0.71455314872E+01 -0.50103778122E+02 -0.24266827270E+03  0.24788976941E+03  0.00000000000E+00 0. -1.
        -12    1    3    3    0    0  0.53677355391E+02  0.13571337916E+01 -0.56422532662E+03  0.56677448733E+03  0.00000000000E+00 0.  1.
          5    1    4    4  501    0 -0.36485169314E+02 -0.17567694462E+02 -0.85456446751E+02  0.94657636564E+02  0.41800000000E+01 0.  1.
         -5    1    4    4    0  501  0.82183385256E+02  0.12979918151E+02 -0.60592483470E+02  0.10301217666E+03  0.41800000000E+01 0.  1.
</event>
<event>
11    1  0.8453735E-009  0.1574803E+03  0.7561462E-02  0.1089471E+00
         22   -1    0    0    0    0  0.00000000000E+00  0.00000000000E+00  0.18221099060E+04  0.18221099060E+04  0.00000000000E+00 0. -1.
         22   -1    0    0    0    0 -0.00000000000E+00 -0.00000000000E+00 -0.24374315163E+04  0.24374315163E+04  0.00000000000E+00 0. -1.
        -24    2    1    2    0    0 -0.66393467514E+02 -0.68205007950E+02 -0.23799161070E+04  0.23832888349E+04  0.83695748609E+02 0.  0.
         25    2    1    2    0    0  0.14169244227E+03  0.70616431209E+02  0.13483038066E+03  0.24267427308E+03  0.12509253661E+03 0.  0.
         24    2    1    2    0    0 -0.75298974752E+02 -0.24114232591E+01  0.16297641161E+04  0.16335783143E+04  0.82287814391E+02 0.  0.
        -13    1    5    5    0    0 -0.48515382290E+02  0.19464931509E+02  0.40934202691E+03  0.41266635539E+03  0.00000000000E+00 0.  1.
         14    1    5    5    0    0 -0.26783592463E+02 -0.21876354768E+02  0.12204220892E+04  0.12209119589E+04  0.00000000000E+00 0. -1.
         13    1    3    3    0    0 -0.73271661228E+02 -0.32705738122E+02 -0.20121806957E+04  0.20137799169E+04  0.00000000000E+00 0. -1.
        -14    1    3    3    0    0  0.68781937142E+01 -0.35499269828E+02 -0.36773541135E+03  0.36950891798E+03  0.00000000000E+00 0.  1.
          5    1    4    4  501    0  0.42016954951E+02  0.89844539605E+02  0.55195164233E+02  0.11358452516E+03  0.41800000000E+01 0. -1.
         -5    1    4    4    0  501  0.99675487315E+02 -0.19228108396E+02  0.79635216430E+02  0.12908974793E+03  0.41800000000E+01 0. -1.
</event>
<event>
11    1  0.8453735E-009  0.1501299E+03  0.7561462E-02  0.1096746E+00
         22   -1    0    0    0    0  0.00000000000E+00  0.00000000000E+00  0.26301372524E+03  0.26301372524E+03  0.00000000000E+00 0.  1.
         22   -1    0    0    0    0 -0.00000000000E+00 -0.00000000000E+00 -0.98426371047E+03  0.98426371047E+03  0.00000000000E+00 0.  1.
         24    2    1    2    0    0  0.33811068143E+01 -0.36563927507E+02 -0.80342388102E+03  0.80887306902E+03  0.86240109693E+02 0.  0.
         25    2    1    2    0    0  0.79439565164E+02  0.42451335817E+02 -0.12665449210E+03  0.19950065248E+03  0.12508552892E+03 0.  0.
        -24    2    1    2    0    0 -0.82820671978E+02 -0.58874083099E+01  0.20882838789E+03  0.23890371421E+03  0.81066415935E+02 0.  0.
        -11    1    3    3    0    0  0.14200610280E+02 -0.62026564288E+02 -0.63641822035E+03  0.63959135641E+03  0.00000000000E+00 0.  1.
         12    1    3    3    0    0 -0.10819503465E+02  0.25462636782E+02 -0.16700566067E+03  0.16928171261E+03  0.00000000000E+00 0. -1.
         11    1    5    5    0    0 -0.83698207277E+02  0.22317969026E+02  0.14161569001E+03  0.16600748567E+03  0.00000000000E+00 0. -1.
        -12    1    5    5    0    0  0.87753529839E+00 -0.28205377336E+02  0.67212697883E+02  0.72896228541E+02  0.00000000000E+00 0.  1.
          5    1    4    4  501    0  0.81945281745E+02  0.62806552706E+02 -0.40737176638E+02  0.11107061818E+03  0.41800000000E+01 0.  1.
         -5    1    4    4    0  501 -0.25057165805E+01 -0.20355216889E+02 -0.85917315457E+02  0.88430034296E+02  0.41800000000E+01 0.  1.
</event>
<event>
11    1  0.8453735E-009  0.1760292E+03  0.7561462E-02  0.1072901E+00
         22   -1    0    0    0    0  0.00000000000E+00  0.00000000000E+00  0.16084277414E+04  0.16084277414E+04  0.00000000000E+00 0.  1.
         22   -1    0    0    0    0 -0.00000000000E+00 -0.00000000000E+00 -0.25829892928E+03  0.25829892928E+03  0.00000000000E+00 0. -1.
         24    2    1    2    0    0  0.53955417152E+02 -0.38585484966E+02 -0.22662884496E+03  0.24875423684E+03  0.78217710850E+02 0.  0.
         25    2    1    2    0    0  0.52447710094E+02  0.11102127448E+03  0.48730989906E+03  0.51787439059E+03  0.12508581468E+03 0.  0.
        -24    2    1    2    0    0 -0.10640312725E+03 -0.72435789511E+02  0.10894477580E+04  0.11000980432E+04  0.82162754372E+02 0.  0.
        -11    1    3    3    0    0  0.17279892520E+02 -0.26288960173E+02 -0.17342331228E+02  0.35922981014E+02  0.00000000000E+00 0.  1.
         12    1    3    3    0    0  0.36675524632E+02 -0.12296524793E+02 -0.20928651373E+03  0.21283125583E+03  0.00000000000E+00 0. -1.
         13    1    5    5    0    0 -0.61511654858E+02 -0.49381046194E+02  0.34330505956E+03  0.35225067115E+03  0.00000000000E+00 0. -1.
        -14    1    5    5    0    0 -0.44891472388E+02 -0.23054743317E+02  0.74614269846E+03  0.74784737209E+03  0.00000000000E+00 0.  1.
          5    1    4    4  501    0  0.34998315070E+02  0.19363989040E+02  0.34699645005E+03  0.34931913042E+03  0.41800000000E+01 0.  1.
         -5    1    4    4    0  501  0.17449395023E+02  0.91657285436E+02  0.14031344901E+03  0.16855526017E+03  0.41800000000E+01 0.  1.
</event>
<event>
11    1  0.8453735E-009  0.1523061E+03  0.7561462E-02  0.1094545E+00
         22   -1    0    0    0    0  0.00000000000E+00  0.00000000000E+00  0.74297689642E+03  0.74297689642E+03  0.00000000000E+00 0.  1.
         22   -1    0    0    0    0 -0.00000000000E+00 -0.00000000000E+00 -0.10520569020E+04  0.10520569020E+04  0.00000000000E+00 0.  1.
         24    2    1    2    0    0  0.87074237792E+02 -0.89771227473E+01 -0.10211825089E+04  0.10272420217E+04  0.68919830518E+02 0.  0.
         25    2    1    2    0    0 -0.47663340604E+02 -0.17137899256E+01  0.16084213814E+03  0.20926723796E+03  0.12509137608E+03 0.  0.
        -24    2    1    2    0    0 -0.39410897188E+02  0.10690912673E+02  0.55126036522E+03  0.55852453872E+03  0.79963464565E+02 0.  0.
        -13    1    3    3    0    0  0.31154125985E+01 -0.81438277164E+01 -0.43392425087E+03  0.43401184687E+03  0.00000000000E+00 0.  1.
         14    1    3    3    0    0  0.83958825194E+02 -0.83329503086E+00 -0.58725825805E+03  0.59323017485E+03  0.00000000000E+00 0. -1.
         11    1    5    5    0    0  0.18045621370E+01  0.39375602518E+02  0.25882697947E+03  0.26181119117E+03  0.00000000000E+00 0. -1.
        -12    1    5    5    0    0 -0.41215459325E+02 -0.28684689845E+02  0.29243338575E+03  0.29671334756E+03  0.00000000000E+00 0.  1.
          5    1    4    4  501    0  0.22967500950E+02 -0.36399625843E+02  0.10241601202E+03  0.11117081802E+03  0.41800000000E+01 0. -1.
         -5    1    4    4    0  501 -0.70630841554E+02  0.34685835918E+02  0.58426126121E+02  0.98096419942E+02  0.41800000000E+01 0. -1.
</event>
<event>
11    1  0.8453735E-009  0.1842227E+03  0.7561462E-02  0.1066277E+00
         22   -1    0    0    0    0  0.00000000000E+00  0.00000000000E+00  0.40963455281E+04  0.40963455281E+04  0.00000000000E+00 0.  1.
         22   -1    0    0    0    0 -0.00000000000E+00 -0.00000000000E+00 -0.13585414126E+03  0.13585414126E+03  0.00000000000E+00 0.  1.
         24    2    1    2    0    0  0.69201184486E+01  0.13907434301E+03 -0.62626029613E+02  0.17269742930E+03  0.80702054368E+02 0.  0.
         25    2    1    2    0    0 -0.13780479219E+02 -0.10662864302E+03  0.36746449189E+03  0.40278718296E+03  0.12509113811E+03 0.  0.
        -24    2    1    2    0    0  0.68603607709E+01 -0.32445699991E+02  0.36556529246E+04  0.36567150571E+04  0.81651184771E+02 0.  0.
        -11    1    3    3    0    0 -0.33578784880E+02  0.72733680469E+02 -0.48648654732E+02  0.93725208326E+02  0.00000000000E+00 0.  1.
         12    1    3    3    0    0  0.40498903329E+02  0.66340662539E+02 -0.13977374881E+02  0.78972220974E+02  0.00000000000E+00 0. -1.
         11    1    5    5    0    0 -0.12590475799E+02  0.18207898487E+02  0.20990569751E+04  0.20991737022E+04  0.00000000000E+00 0. -1.
        -12    1    5    5    0    0  0.19450836570E+02 -0.50653598478E+02  0.15565959495E+04  0.15575413549E+04  0.00000000000E+00 0.  1.
          5    1    4    4  501    0 -0.62248329716E+02 -0.50417752433E+02  0.11954916946E+03  0.14396624823E+03  0.41800000000E+01 0.  1.
         -5    1    4    4    0  501  0.48467850496E+02 -0.56210890584E+02  0.24791532244E+03  0.25882093472E+03  0.41800000000E+01 0.  1.
</event>
<event>
11    1  0.8453735E-009  0.1524706E+03  0.7561462E-02  0.1094381E+00
         22   -1    0    0    0    0  0.00000000000E+00  0.00000000000E+00  0.19665192797E+04  0.19665192797E+04  0.00000000000E+00 0.  1.
         22   -1    0    0    0    0 -0.00000000000E+00 -0.00000000000E+00 -0.64371221698E+03  0.64371221698E+03  0.00000000000E+00 0.  1.
         24    2    1    2    0    0  0.14137858543E+02  0.82188294405E+02 -0.52207198955E+03  0.53447052621E+03  0.78388687550E+02 0.  0.
         25    2    1    2    0    0  0.20279119022E+02 -0.13924164184E+03 -0.36342560586E+02  0.19174847172E+03  0.12508883726E+03 0.  0.
        -24    2    1    2    0    0 -0.34416977566E+02  0.57053347434E+02  0.18812216129E+04  0.18840124988E+04  0.77902027772E+02 0.  0.
        -11    1    3    3    0    0  0.23849109316E+02  0.73850578086E+02 -0.51286565390E+03  0.51870402625E+03  0.00000000000E+00 0.  1.
         12    1    3    3    0    0 -0.97112507721E+01  0.83377163193E+01 -0.92063356534E+01  0.15766499965E+02  0.00000000000E+00 0. -1.
         11    1    5    5    0    0 -0.59326547984E+02  0.41040191836E+02  0.14320532419E+04  0.14338690401E+04  0.00000000000E+00 0. -1.
        -12    1    5    5    0    0  0.24909570418E+02  0.16013155599E+02  0.44916837104E+03  0.45014345868E+03  0.00000000000E+00 0.  1.
          5    1    4    4  501    0 -0.22853645230E+02 -0.21832415969E+02  0.35280827626E+02  0.47551579209E+02  0.41800000000E+01 0. -1.
         -5    1    4    4    0  501  0.43132764253E+02 -0.11740922587E+03 -0.71623388211E+02  0.14419689251E+03  0.41800000000E+01 0. -1.
</event>
<event>
11    1  0.8453735E-009  0.1363721E+03  0.7561462E-02  0.1111679E+00
         22   -1    0    0    0    0  0.00000000000E+00  0.00000000000E+00  0.34045627613E+03  0.34045627613E+03  0.00000000000E+00 0.  1.
         22   -1    0    0    0    0 -0.00000000000E+00 -0.00000000000E+00 -0.56586034256E+03  0.56586034256E+03  0.00000000000E+00 0. -1.
        -24    2    1    2    0    0 -0.51059345548E+02 -0.72943684985E+01 -0.48298123951E+03  0.49219656707E+03  0.79538156489E+02 0.  0.
         25    2    1    2    0    0  0.21851675106E+02 -0.42569087326E+02 -0.46233990808E+01  0.13400949747E+03  0.12509015426E+03 0.  0.
         24    2    1    2    0    0  0.29207670442E+02  0.49863455824E+02  0.26220057216E+03  0.28011055415E+03  0.79833140145E+02 0.  0.
        -11    1    5    5    0    0  0.19280042056E+01  0.88977773202E+01  0.20264644696E+03  0.20285085681E+03  0.00000000000E+00 0.  1.
         12    1    5    5    0    0  0.27279666236E+02  0.40965678504E+02  0.59554125202E+02  0.77259697345E+02  0.00000000000E+00 0. -1.
         13    1    3    3    0    0 -0.57511871457E+02  0.17640690675E+02 -0.41784059596E+03  0.42214875691E+03  0.00000000000E+00 0. -1.
        -14    1    3    3    0    0  0.64525259093E+01 -0.24935059173E+02 -0.65140643551E+02  0.70047810164E+02  0.00000000000E+00 0.  1.
          5    1    4    4  501    0  0.19614025029E+02  0.40862857462E+02  0.15443778222E+02  0.48067304726E+02  0.41800000000E+01 0.  1.
         -5    1    4    4    0  501  0.22376500773E+01 -0.83431944788E+02 -0.20067177303E+02  0.85942192745E+02  0.41800000000E+01 0.  1.
</event>
<event>
11    1  0.8453735E-009  0.1621126E+03  0.7561462E-02  0.1085107E+00
         22   -1    0    0    0    0  0.00000000000E+00  0.00000000000E+00  0.29634012999E+04  0.29634012999E+04  0.00000000000E+00 0.  1.
         22   -1    0    0    0    0 -0.00000000000E+00 -0.00000000000E+00 -0.77740920680E+02  0.77740920680E+02  0.00000000000E+00 0.  1.
         24    2    1    2    0    0  0.96787160527E+02 -0.26952990659E+02  0.68137538882E+00  0.12990110774E+03  0.82338419776E+02 0.  0.
         25    2    1    2    0    0 -0.11978089814E+03  0.55249541017E+02  0.66379475371E+03  0.68823908900E+03  0.12509833426E+03 0.  0.
        -24    2    1    2    0    0  0.22993737616E+02 -0.28296550358E+02  0.22211842501E+04  0.22230020238E+04  0.82153017466E+02 0.  0.
        -11    1    3    3    0    0  0.11348626605E+02 -0.38122281469E+02 -0.14639452960E+02  0.42384115577E+02  0.00000000000E+00 0.  1.
         12    1    3    3    0    0  0.85438533922E+02  0.11169290811E+02  0.15320828349E+02  0.87516992163E+02  0.00000000000E+00 0. -1.
         11    1    5    5    0    0  0.33561845525E+01 -0.31616162063E+02  0.29387153891E+03  0.29558641217E+03  0.00000000000E+00 0. -1.
        -12    1    5    5    0    0  0.19637553064E+02  0.33196117055E+01  0.19273127112E+04  0.19274156116E+04  0.00000000000E+00 0.  1.
          5    1    4    4  501    0  0.91412390141E+01 -0.52272048623E+01  0.25645612572E+03  0.25670625769E+03  0.41800000000E+01 0. -1.
         -5    1    4    4    0  501 -0.12892213716E+03  0.60476745879E+02  0.40733862799E+03  0.43153283131E+03  0.41800000000E+01 0. -1.
</event>
<event>
11    1  0.8453735E-009  0.1461996E+03  0.7561462E-02  0.1100827E+00
         22   -1    0    0    0    0  0.00000000000E+00  0.00000000000E+00  0.91497273617E+03  0.91497273617E+03  0.00000000000E+00 0. -1.
         22   -1    0    0    0    0 -0.00000000000E+00 -0.00000000000E+00 -0.18393728172E+03  0.18393728172E+03  0.00000000000E+00 0.  1.
         24    2    1    2    0    0  0.30574234863E+02  0.70138289659E+02 -0.11786055874E+03  0.16190700189E+03  0.80427622381E+02 0.  0.
         25    2    1    2    0    0 -0.23267120099E+02 -0.67232539367E+02  0.81541481338E+02  0.16540452547E+03  0.12509224852E+03 0.  0.
        -24    2    1    2    0    0 -0.73071147638E+01 -0.29057502925E+01  0.76735453185E+03  0.77159849053E+03  0.80432678238E+02 0.  0.
        -13    1    3    3    0    0 -0.24946952764E+02  0.15233953973E+02 -0.15263148956E+02  0.32975559464E+02  0.00000000000E+00 0.  1.
         14    1    3    3    0    0  0.55521187627E+02  0.54904335686E+02 -0.10259740978E+03  0.12893144243E+03  0.00000000000E+00 0. -1.
         11    1    5    5    0    0 -0.23345158448E+02 -0.36316712141E+02  0.36638632248E+03  0.36892118035E+03  0.00000000000E+00 0. -1.
        -12    1    5    5    0    0  0.16038043684E+02  0.33410961848E+02  0.40096820936E+03  0.40267731018E+03  0.00000000000E+00 0.  1.
          5    1    4    4  501    0 -0.55067566498E+02 -0.74909708571E+02  0.91942270493E+02  0.13082337261E+03  0.41800000000E+01 0.  1.
         -5    1    4    4    0  501  0.31800446399E+02  0.76771692041E+01 -0.10400789155E+02  0.34581152861E+02  0.41800000000E+01 0.  1.
</event>
<event>
11    1  0.8453735E-009  0.1337107E+03  0.7561462E-02  0.1114792E+00
         22   -1    0    0    0    0  0.00000000000E+00  0.00000000000E+00  0.68492333592E+03  0.68492333592E+03  0.00000000000E+00 0.  1.
         22   -1    0    0    0    0 -0.00000000000E+00 -0.00000000000E+00 -0.32863976364E+03  0.32863976364E+03  0.00000000000E+00 0.  1.
         24    2    1    2    0    0 -0.38456331733E+02 -0.26863673203E+02 -0.30031365862E+03  0.31445129903E+03  0.80565374196E+02 0.  0.
         25    2    1    2    0    0  0.46374369116E+02  0.39533305831E+02  0.26697266794E+03  0.30105552075E+03  0.12508619736E+03 0.  0.
        -24    2    1    2    0    0 -0.79180373828E+01 -0.12669632629E+02  0.38962456296E+03  0.39805627978E+03  0.80114211611E+02 0.  0.
        -13    1    3    3    0    0 -0.47080713698E+02  0.14069068048E+02 -0.19592784681E+03  0.20199567677E+03  0.00000000000E+00 0.  1.
         14    1    3    3    0    0  0.86243819648E+01 -0.40932741251E+02 -0.10438581180E+03  0.11245562225E+03  0.00000000000E+00 0. -1.
         11    1    5    5    0    0 -0.37749470157E+01  0.27868614547E+02  0.64190165639E+02  0.70080576956E+02  0.00000000000E+00 0. -1.
        -12    1    5    5    0    0 -0.41430903671E+01 -0.40538247176E+02  0.32543439732E+03  0.32797570282E+03  0.00000000000E+00 0.  1.
          5    1    4    4  501    0  0.77248243648E+01  0.56669284849E+02  0.24797105938E+03  0.25451561729E+03  0.41800000000E+01 0. -1.
         -5    1    4    4    0  501  0.38649544751E+02 -0.17135979018E+02  0.19001608556E+02  0.46539903460E+02  0.41800000000E+01 0. -1.
</event>
<event>
11    1  0.8453735E-009  0.2729391E+03  0.7561462E-02  0.1012342E+00
         22   -1    0    0    0    0  0.00000000000E+00  0.00000000000E+00  0.23794417314E+04  0.23794417314E+04  0.00000000000E+00 0.  1.
         22   -1    0    0    0    0 -0.00000000000E+00 -0.00000000000E+00 -0.15674765453E+03  0.15674765453E+03  0.00000000000E+00 0. -1.
         24    2    1    2    0    0  0.11424643298E+03 -0.20365543336E+03  0.22034518786E+02  0.24875939180E+03  0.82872987191E+02 0.  0.
         25    2    1    2    0    0 -0.17691377150E+03  0.22243500104E+03  0.53646562621E+03  0.61985207899E+03  0.12508165129E+03 0.  0.
        -24    2    1    2    0    0  0.62667338520E+02 -0.18779567675E+02  0.16641939319E+04  0.16675779152E+04  0.83634877198E+02 0.  0.
        -13    1    3    3    0    0  0.10670237798E+03 -0.16055896389E+03  0.46942730266E+02  0.19841420885E+03  0.00000000000E+00 0.  1.
         14    1    3    3    0    0  0.75440550022E+01 -0.43096469476E+02 -0.24908211480E+02  0.50345182950E+02  0.00000000000E+00 0. -1.
         11    1    5    5    0    0 -0.19359417558E+01  0.24096362775E+02  0.63851703780E+03  0.63897448316E+03  0.00000000000E+00 0. -1.
        -12    1    5    5    0    0  0.64603280276E+02 -0.42875930450E+02  0.10256768941E+04  0.10286034320E+04  0.00000000000E+00 0.  1.
          5    1    4    4  501    0 -0.13673770477E+03  0.18510420607E+03  0.30593223342E+03  0.38284823476E+03  0.41800000000E+01 0. -1.
         -5    1    4    4    0  501 -0.40176066728E+02  0.37330794971E+02  0.23053339279E+03  0.23700384423E+03  0.41800000000E+01 0. -1.
</event>
<event>
11    1  0.8453735E-009  0.2105654E+03  0.7561462E-02  0.1047294E+00
         22   -1    0    0    0    0  0.00000000000E+00  0.00000000000E+00  0.17212488166E+03  0.17212488166E+03  0.00000000000E+00 0. -1.
         22   -1    0    0    0    0 -0.00000000000E+00 -0.00000000000E+00 -0.16003868952E+04  0.16003868952E+04  0.00000000000E+00 0.  1.
         24    2    1    2    0    0  0.24438689841E+01  0.10969137893E+02 -0.12961470440E+04  0.12987309941E+04  0.81109437573E+02 0.  0.
         25    2    1    2    0    0 -0.16996565466E+03 -0.29499410574E+02 -0.18621726291E+03  0.28299011835E+03  0.12509196253E+03 0.  0.
        -24    2    1    2    0    0  0.16752178568E+03  0.18530272681E+02  0.54102293326E+02  0.19079066446E+03  0.71183564264E+02 0.  0.
        -11    1    3    3    0    0 -0.30299103144E+02  0.48922893443E+01 -0.10368522892E+04  0.10373064348E+04  0.00000000000E+00 0.  1.
         12    1    3    3    0    0  0.32742972128E+02  0.60768485491E+01 -0.25929475481E+03  0.26142455926E+03  0.00000000000E+00 0. -1.
         11    1    5    5    0    0  0.14081069304E+03  0.34873625685E+02  0.63122210102E+02  0.15820314299E+03  0.00000000000E+00 0. -1.
        -12    1    5    5    0    0  0.26711092632E+02 -0.16343353004E+02 -0.90199167767E+01  0.32587521472E+02  0.00000000000E+00 0.  1.
          5    1    4    4  501    0 -0.11953110075E+03  0.20073076402E+02 -0.17244724509E+03  0.21082252532E+03  0.41800000000E+01 0.  1.
         -5    1    4    4    0  501 -0.50434553909E+02 -0.49572486976E+02 -0.13770017820E+02  0.72167593030E+02  0.41800000000E+01 0.  1.
</event>
<event>
11    1  0.8453735E-009  0.1513833E+03  0.7561462E-02  0.1095474E+00
         22   -1    0    0    0    0  0.00000000000E+00  0.00000000000E+00  0.18102064994E+03  0.18102064994E+03  0.00000000000E+00 0. -1.
         22   -1    0    0    0    0 -0.00000000000E+00 -0.00000000000E+00 -0.50616317356E+03  0.50616317356E+03  0.00000000000E+00 0.  1.
         24    2    1    2    0    0  0.73231559989E+02 -0.41321454260E+02 -0.38748418790E+03  0.40469072294E+03  0.80995440580E+02 0.  0.
         25    2    1    2    0    0 -0.72259702490E+02  0.63355687894E+02 -0.27239238992E+02  0.16007832541E+03  0.12509071242E+03 0.  0.
        -24    2    1    2    0    0 -0.97185749949E+00 -0.22034233634E+02  0.89580903277E+02  0.12241477515E+03  0.80462332702E+02 0.  0.
        -13    1    3    3    0    0  0.33688697113E+02 -0.14035581520E+02 -0.31873824863E+03  0.32082081759E+03  0.00000000000E+00 0.  1.
         14    1    3    3    0    0  0.39542862877E+02 -0.27285872740E+02 -0.68745939277E+02  0.83869905346E+02  0.00000000000E+00 0. -1.
         13    1    5    5    0    0  0.11450119349E+02 -0.27069943902E+02  0.10076099965E+03  0.10496030748E+03  0.00000000000E+00 0. -1.
        -14    1    5    5    0    0 -0.12421976848E+02  0.50357102680E+01 -0.11180096372E+02  0.17454467669E+02  0.00000000000E+00 0.  1.
          5    1    4    4  501    0  0.20902757466E+02 -0.11401219839E+02 -0.32425114943E+02  0.40444697583E+02  0.41800000000E+01 0. -1.
         -5    1    4    4    0  501 -0.93162459956E+02  0.74756907733E+02  0.51858759505E+01  0.11963362783E+03  0.41800000000E+01 0. -1.
</event>
<event>
11    1  0.8453735E-009  0.2081607E+03  0.7561462E-02  0.1048898E+00
         22   -1    0    0    0    0  0.00000000000E+00  0.00000000000E+00  0.41620230076E+03  0.41620230076E+03  0.00000000000E+00 0.  1.
         22   -1    0    0    0    0 -0.00000000000E+00 -0.00000000000E+00 -0.74957289148E+03  0.74957289148E+03  0.00000000000E+00 0. -1.
        -24    2    1    2    0    0  0.84226652625E+02  0.14470156004E+03 -0.68562111038E+03  0.71036053075E+03  0.80641838818E+02 0.  0.
         25    2    1    2    0    0 -0.51737377102E+02 -0.13932872297E+03  0.19260760458E+03  0.27356271187E+03  0.12509843623E+03 0.  0.
         24    2    1    2    0    0 -0.32489275523E+02 -0.53728370635E+01  0.15964291508E+03  0.18185194962E+03  0.80621652436E+02 0.  0.
        -11    1    5    5    0    0 -0.36401177691E+02  0.12916528455E+02  0.25209548074E+02  0.46123787341E+02  0.00000000000E+00 0.  1.
         12    1    5    5    0    0  0.39119021676E+01 -0.18289365519E+02  0.13443336701E+03  0.13572816228E+03  0.00000000000E+00 0. -1.
         13    1    3    3    0    0  0.76693996656E+02  0.15166235728E+03 -0.58409539564E+03  0.60831806725E+03  0.00000000000E+00 0. -1.
        -14    1    3    3    0    0  0.75326559683E+01 -0.69607972446E+01 -0.10152571474E+03  0.10204246350E+03  0.00000000000E+00 0.  1.
          5    1    4    4  501    0  0.10761825982E+02 -0.42502204296E+00  0.87956993157E+02  0.88712471431E+02  0.41800000000E+01 0.  1.
         -5    1    4    4    0  501 -0.62499203084E+02 -0.13890370093E+03  0.10465061142E+03  0.18485024044E+03  0.41800000000E+01 0.  1.
</event>
<event>
11    1  0.8453735E-009  0.1316313E+03  0.7561462E-02  0.1117281E+00
         22   -1    0    0    0    0  0.00000000000E+00  0.00000000000E+00  0.60611488970E+02  0.60611488970E+02  0.00000000000E+00 0.  1.
         22   -1    0    0    0    0 -0.00000000000E+00 -0.00000000000E+00 -0.18154069568E+04  0.18154069568E+04  0.00000000000E+00 0. -1.
        -24    2    1    2    0    0 -0.98624194456E+01 -0.28645356210E+01 -0.15877134092E+04  0.15897964752E+04  0.80706195082E+02 0.  0.
         25    2    1    2    0    0 -0.31381846534E+02 -0.11389312561E+02 -0.14229112990E+03  0.19238216844E+03  0.12509834673E+03 0.  0.
         24    2    1    2    0    0  0.41244265980E+02  0.14253848182E+02 -0.24790928754E+02  0.93839802149E+02  0.79290961998E+02 0.  0.
        -13    1    5    5    0    0  0.11811044147E+01  0.38236147926E+02 -0.27430425964E+02  0.47072564031E+02  0.00000000000E+00 0.  1.
         14    1    5    5    0    0  0.40063161565E+02 -0.23982299744E+02  0.26394972099E+01  0.46767238118E+02  0.00000000000E+00 0. -1.
         13    1    3    3    0    0 -0.42012243418E+02 -0.64904383862E+01 -0.11937933519E+04  0.11945500079E+04  0.00000000000E+00 0. -1.
        -14    1    3    3    0    0  0.32149823972E+02  0.36259027652E+01 -0.39392005729E+03  0.39524646727E+03  0.00000000000E+00 0.  1.
          5    1    4    4  501    0  0.29155807939E+02 -0.36463335268E+01 -0.12547774240E+03  0.12893988181E+03  0.41800000000E+01 0.  1.
         -5    1    4    4    0  501 -0.60537654474E+02 -0.77429790340E+01 -0.16813387501E+02  0.63442286629E+02  0.41800000000E+01 0.  1.
</event>
<event>
11    1  0.8453735E-009  0.1436346E+03  0.7561462E-02  0.1103566E+00
         22   -1    0    0    0    0  0.00000000000E+00  0.00000000000E+00  0.11440104418E+03  0.11440104418E+03  0.00000000000E+00 0.  1.
         22   -1    0    0    0    0 -0.00000000000E+00 -0.00000000000E+00 -0.57735747670E+03  0.57735747670E+03  0.00000000000E+00 0. -1.
        -24    2    1    2    0    0  0.52032359987E+02  0.42639934607E+02 -0.41740931494E+03  0.43098588802E+03  0.83622777809E+02 0.  0.
         25    2    1    2    0    0 -0.61286435092E+02 -0.79639701242E+02 -0.57154505478E+02  0.17033116037E+03  0.12509019768E+03 0.  0.
         24    2    1    2    0    0  0.92540751042E+01  0.36999766635E+02  0.11607387902E+02  0.90441472487E+02  0.81180711100E+02 0.  0.
        -11    1    5    5    0    0  0.31088624165E+02  0.15289933583E+02  0.36884852954E+02  0.50604120375E+02  0.00000000000E+00 0.  1.
         12    1    5    5    0    0 -0.21834549061E+02  0.21709833052E+02 -0.25277465053E+02  0.39837352112E+02  0.00000000000E+00 0. -1.
         11    1    3    3    0    0  0.48123475678E+02 -0.14333239653E+02 -0.19705358236E+03  0.20335049789E+03  0.00000000000E+00 0. -1.
        -12    1    3    3    0    0  0.39088843096E+01  0.56973174261E+02 -0.22035573258E+03  0.22763539013E+03  0.00000000000E+00 0.  1.
          5    1    4    4  501    0 -0.28522009618E+01 -0.10759303653E+02  0.37551744911E+02  0.39389130624E+02  0.41800000000E+01 0. -1.
         -5    1    4    4    0  501 -0.58434234130E+02 -0.68880397589E+02 -0.94706250389E+02  0.13094202974E+03  0.41800000000E+01 0. -1.
</event>
<event>
11    1  0.8453735E-009  0.1935118E+03  0.7561462E-02  0.1059209E+00
         22   -1    0    0    0    0  0.00000000000E+00  0.00000000000E+00  0.65306660599E+03  0.65306660599E+03  0.00000000000E+00 0.  1.
         22   -1    0    0    0    0 -0.00000000000E+00 -0.00000000000E+00 -0.16039644328E+03  0.16039644328E+03  0.00000000000E+00 0.  1.
         24    2    1    2    0    0  0.18641792720E+01 -0.93621038252E+02  0.60104072183E+02  0.13670598240E+03  0.79420728806E+02 0.  0.
         25    2    1    2    0    0  0.13778712808E+03  0.13004711954E+03  0.14936212914E+02  0.22754486015E+03  0.12512404629E+03 0.  0.
        -24    2    1    2    0    0 -0.13965130735E+03 -0.36426081287E+02  0.41762987762E+03  0.44921220672E+03  0.80916901474E+02 0.  0.
        -11    1    3    3    0    0  0.16834573057E+02 -0.10271766372E+03  0.57738161238E+02  0.11902947767E+03  0.00000000000E+00 0.  1.
         12    1    3    3    0    0 -0.14970393785E+02  0.90966254713E+01  0.23659109457E+01  0.17676504735E+02  0.00000000000E+00 0. -1.
         13    1    5    5    0    0  0.10680132595E+02  0.14779159980E+00  0.24080453148E+02  0.26343031306E+02  0.00000000000E+00 0. -1.
        -14    1    5    5    0    0 -0.15033143995E+03 -0.36573872886E+02  0.39354942447E+03  0.42286917541E+03  0.00000000000E+00 0.  1.
          5    1    4    4  501    0  0.67476146134E+02  0.65266617699E+02 -0.55124030408E+02  0.10894444828E+03  0.41800000000E+01 0.  1.
         -5    1    4    4    0  501  0.70310981944E+02  0.64780501839E+02  0.70060243322E+02  0.11860041187E+03  0.41800000000E+01 0.  1.
</event>
<event>
11    1  0.8453735E-009  0.1570144E+03  0.7561462E-02  0.1089919E+00
         22   -1    0    0    0    0  0.00000000000E+00  0.00000000000E+00  0.56626714681E+03  0.56626714681E+03  0.00000000000E+00 0.  1.
         22   -1    0    0    0    0 -0.00000000000E+00 -0.00000000000E+00 -0.64982471739E+03  0.64982471739E+03  0.00000000000E+00 0. -1.
         24    2    1    2    0    0 -0.40296624927E+02  0.80222334264E+02 -0.45774224664E+03  0.47265685061E+03  0.76269870687E+02 0.  0.
         25    2    1    2    0    0  0.48497398268E+02 -0.11482264694E+03 -0.13799550865E+03  0.22411714575E+03  0.12509794852E+03 0.  0.
        -24    2    1    2    0    0 -0.82007733410E+01  0.34600312674E+02  0.51218018471E+03  0.51931786785E+03  0.78090152572E+02 0.  0.
        -13    1    3    3    0    0 -0.10239372397E+02  0.19775253320E+02 -0.20610193086E+02  0.30342798981E+02  0.00000000000E+00 0.  1.
         14    1    3    3    0    0 -0.30057252530E+02  0.60447080944E+02 -0.43713205355E+03  0.44231405163E+03  0.00000000000E+00 0. -1.
         11    1    5    5    0    0 -0.24641708621E+02  0.37875211799E+02  0.14781398243E+03  0.15456622812E+03  0.00000000000E+00 0. -1.
        -12    1    5    5    0    0  0.16440935280E+02 -0.32748991251E+01  0.36436620228E+03  0.36475163973E+03  0.00000000000E+00 0.  1.
          5    1    4    4  501    0  0.67399511557E+02 -0.93665581089E+02 -0.15305438723E+03  0.19172650596E+03  0.41800000000E+01 0.  1.
         -5    1    4    4    0  501 -0.18902113288E+02 -0.21157065849E+02  0.15058878574E+02  0.32390639790E+02  0.41800000000E+01 0.  1.
</event>
<event>
11    1  0.8453735E-009  0.1303323E+03  0.7561462E-02  0.1118861E+00
         22   -1    0    0    0    0  0.00000000000E+00  0.00000000000E+00  0.35030398621E+04  0.35030398621E+04  0.00000000000E+00 0.  1.
         22   -1    0    0    0    0 -0.00000000000E+00 -0.00000000000E+00 -0.34787405841E+02  0.34787405841E+02  0.00000000000E+00 0. -1.
        -24    2    1    2    0    0  0.21413114001E+02  0.22138463848E+01  0.37806858884E+02  0.90559812552E+02  0.79424797789E+02 0.  0.
         25    2    1    2    0    0 -0.55421204585E+02 -0.98406563276E+01  0.60066488582E+03  0.61612918518E+03  0.12509404199E+03 0.  0.
         24    2    1    2    0    0  0.34008090584E+02  0.76268099427E+01  0.28297807116E+04  0.28311382702E+04  0.80438243877E+02 0.  0.
        -13    1    5    5    0    0  0.28053624854E+02  0.99618224278E+01  0.28133365498E+04  0.28134940530E+04  0.00000000000E+00 0.  1.
         14    1    5    5    0    0  0.59544657300E+01 -0.23350124851E+01  0.16444161813E+02  0.17644217273E+02  0.00000000000E+00 0. -1.
         13    1    3    3    0    0  0.82170456064E+01  0.37551343466E+02  0.19086729608E+01  0.38487222127E+02  0.00000000000E+00 0. -1.
        -14    1    3    3    0    0  0.13196068395E+02 -0.35337497081E+02  0.35898185923E+02  0.52072590425E+02  0.00000000000E+00 0.  1.
          5    1    4    4  501    0  0.28730151236E+02  0.26050013354E+02  0.27786844127E+03  0.28059288629E+03  0.41800000000E+01 0. -1.
         -5    1    4    4    0  501 -0.84151355820E+02 -0.35890669682E+02  0.32279644455E+03  0.33553629889E+03  0.41800000000E+01 0. -1.
</event>
<event>
11    1  0.8453735E-009  0.1270406E+03  0.7561462E-02  0.1122959E+00
         22   -1    0    0    0    0  0.00000000000E+00  0.00000000000E+00  0.40653261341E+03  0.40653261341E+03  0.00000000000E+00 0.  1.
         22   -1    0    0    0    0 -0.00000000000E+00 -0.00000000000E+00 -0.23374268932E+03  0.23374268932E+03  0.00000000000E+00 0.  1.
         24    2    1    2    0    0  0.54059009437E+01  0.22464374257E+02 -0.17565918805E+03  0.19498228586E+03  0.81412957060E+02 0.  0.
         25    2    1    2    0    0 -0.88563084473E+01 -0.11489359532E+02  0.49055225380E+02  0.13514578344E+03  0.12509007979E+03 0.  0.
        -24    2    1    2    0    0  0.34504075036E+01 -0.10975014726E+02  0.29939388675E+03  0.31014723344E+03  0.80138946350E+02 0.  0.
        -11    1    3    3    0    0  0.90226951195E+01  0.52733305627E+02 -0.99978523644E+02  0.11339274994E+03  0.00000000000E+00 0.  1.
         12    1    3    3    0    0 -0.36167941758E+01 -0.30268931370E+02 -0.75680664402E+02  0.81589535914E+02  0.00000000000E+00 0. -1.
         11    1    5    5    0    0  0.13625665169E+02 -0.42925294278E+02  0.13329468428E+03  0.14069723699E+03  0.00000000000E+00 0. -1.
        -12    1    5    5    0    0 -0.10175257665E+02  0.31950279552E+02  0.16609920248E+03  0.16944999645E+03  0.00000000000E+00 0.  1.
          5    1    4    4  501    0 -0.40899186118E+02 -0.45554551148E+02  0.61180664642E+02  0.86651639808E+02  0.41800000000E+01 0.  1.
         -5    1    4    4    0  501  0.32042877671E+02  0.34065191616E+02 -0.12125439262E+02  0.48494143632E+02  0.41800000000E+01 0.  1.
</event>
<event>
11    1  0.8453735E-009  0.1367229E+03  0.7561462E-02  0.1111274E+00
         22   -1    0    0    0    0  0.00000000000E+00  0.00000000000E+00  0.10226714306E+04  0.10226714306E+04  0.00000000000E+00 0. -1.
         22   -1    0    0    0    0 -0.00000000000E+00 -0.00000000000E+00 -0.18105016126E+03  0.18105016126E+03  0.00000000000E+00 0. -1.
        -24    2    1    2    0    0  0.40282474590E+02  0.30546379629E+02 -0.11039025760E+03  0.14519614362E+03  0.79625071945E+02 0.  0.
         25    2    1    2    0    0 -0.67721807874E+02 -0.51659448406E+02  0.61630602126E+02  0.16340211334E+03  0.12508787973E+03 0.  0.
         24    2    1    2    0    0  0.27439333285E+02  0.21113068776E+02  0.89038092485E+03  0.89512333491E+03  0.85257930364E+02 0.  0.
        -13    1    5    5    0    0 -0.18310683997E+02 -0.13010454126E+02  0.91903461401E+02  0.94608663887E+02  0.00000000000E+00 0.  1.
         14    1    5    5    0    0  0.45750017282E+02  0.34123522902E+02  0.79847746344E+03  0.80051467102E+03  0.00000000000E+00 0. -1.
         11    1    3    3    0    0  0.62859833862E+02  0.21480682450E+02 -0.96581632221E+02  0.11722111633E+03  0.00000000000E+00 0. -1.
        -12    1    3    3    0    0 -0.22577359272E+02  0.90656971796E+01 -0.13808625382E+02  0.27975027292E+02  0.00000000000E+00 0.  1.
          5    1    4    4  501    0 -0.45777075038E+00 -0.70747419291E+02  0.11850557697E+01  0.70882181454E+02  0.41800000000E+01 0. -1.
         -5    1    4    4    0  501 -0.67264037124E+02  0.19087970886E+02  0.60445546357E+02  0.92519931891E+02  0.41800000000E+01 0. -1.
</event>
<event>
11    1  0.8453735E-009  0.1284687E+03  0.7561462E-02  0.1121165E+00
         22   -1    0    0    0    0  0.00000000000E+00  0.00000000000E+00  0.87982273742E+03  0.87982273742E+03  0.00000000000E+00 0. -1.
         22   -1    0    0    0    0 -0.00000000000E+00 -0.00000000000E+00 -0.81845467372E+02  0.81845467372E+02  0.00000000000E+00 0. -1.
         24    2    1    2    0    0 -0.26167583156E+02  0.17283980551E+02 -0.36504354495E+02  0.93705468371E+02  0.80403162336E+02 0.  0.
         25    2    1    2    0    0  0.46432402002E+02 -0.15350368042E+02  0.39361922124E+03  0.41590281723E+03  0.12508980893E+03 0.  0.
        -24    2    1    2    0    0 -0.20264818845E+02 -0.19336125095E+01  0.44086240330E+03  0.45205991918E+03  0.97898468587E+02 0.  0.
        -11    1    3    3    0    0 -0.15397554136E+02 -0.32055930051E+02 -0.18531776572E+02  0.40101048212E+02  0.00000000000E+00 0.  1.
         12    1    3    3    0    0 -0.10770029020E+02  0.49339910602E+02 -0.17972577923E+02  0.53604420159E+02  0.00000000000E+00 0. -1.
         11    1    5    5    0    0  0.33750310899E+02 -0.12186342891E+02  0.27479974674E+03  0.27713262393E+03  0.00000000000E+00 0. -1.
        -12    1    5    5    0    0 -0.54015129744E+02  0.10252730382E+02  0.16606265656E+03  0.17492729525E+03  0.00000000000E+00 0.  1.
          5    1    4    4  501    0 -0.27947693939E+02  0.86018962939E+01  0.23910779068E+02  0.38003473157E+02  0.41800000000E+01 0. -1.
         -5    1    4    4    0  501  0.74380095940E+02 -0.23952264335E+02  0.36970844217E+03  0.37789934408E+03  0.41800000000E+01 0. -1.
</event>
<event>
11    1  0.8453735E-009  0.1360980E+03  0.7561462E-02  0.1111996E+00
         22   -1    0    0    0    0  0.00000000000E+00  0.00000000000E+00  0.25067193283E+03  0.25067193283E+03  0.00000000000E+00 0.  1.
         22   -1    0    0    0    0 -0.00000000000E+00 -0.00000000000E+00 -0.95399722410E+03  0.95399722410E+03  0.00000000000E+00 0. -1.
        -24    2    1    2    0    0  0.15085667958E+02  0.45654992498E+01 -0.75559128737E+03  0.76006769545E+03  0.80847306425E+02 0.  0.
         25    2    1    2    0    0 -0.67781481884E+02 -0.73812567945E+01 -0.15837532665E+03  0.21303181302E+03  0.12510394489E+03 0.  0.
         24    2    1    2    0    0  0.52695813926E+02  0.28157575447E+01  0.21064132275E+03  0.23156964846E+03  0.80436048776E+02 0.  0.
        -13    1    5    5    0    0  0.59500415521E+02  0.25830380891E+02  0.18679700497E+03  0.19773879004E+03  0.00000000000E+00 0.  1.
         14    1    5    5    0    0 -0.68046015946E+01 -0.23014623346E+02  0.23844317786E+02  0.33830858418E+02  0.00000000000E+00 0. -1.
         13    1    3    3    0    0  0.55541254671E+01  0.15281215250E+02 -0.73380291005E+03  0.73398302068E+03  0.00000000000E+00 0. -1.
        -14    1    3    3    0    0  0.95315424909E+01 -0.10715716001E+02 -0.21788377327E+02  0.26084674777E+02  0.00000000000E+00 0.  1.
          5    1    4    4  501    0  0.29206904191E+02  0.11675535063E+02 -0.82385313389E+02  0.88284617197E+02  0.41800000000E+01 0.  1.
         -5    1    4    4    0  501 -0.96988386075E+02 -0.19056791858E+02 -0.75990013261E+02  0.12474719582E+03  0.41800000000E+01 0.  1.
</event>
<event>
11    1  0.8453735E-009  0.1712665E+03  0.7561462E-02  0.1076935E+00
         22   -1    0    0    0    0  0.00000000000E+00  0.00000000000E+00  0.19601811449E+03  0.19601811449E+03  0.00000000000E+00 0.  1.
         22   -1    0    0    0    0 -0.00000000000E+00 -0.00000000000E+00 -0.10336465094E+04  0.10336465094E+04  0.00000000000E+00 0. -1.
        -24    2    1    2    0    0  0.10503786934E+03 -0.39230024644E+02 -0.57922745370E+03  0.59552354269E+03  0.81067243351E+02 0.  0.
         25    2    1    2    0    0 -0.13502799937E+03 -0.26310940515E+01 -0.41316969090E+03  0.45232016524E+03  0.12507939534E+03 0.  0.
         24    2    1    2    0    0  0.29990130033E+02  0.41861118695E+02  0.15476874966E+03  0.18182091599E+03  0.80335038816E+02 0.  0.
        -13    1    5    5    0    0  0.20998223360E+02  0.65947008846E+02  0.12077758393E+03  0.13920186112E+03  0.00000000000E+00 0.  1.
         14    1    5    5    0    0  0.89919066732E+01 -0.24085890150E+02  0.33991165730E+02  0.42619054866E+02  0.00000000000E+00 0. -1.
         13    1    3    3    0    0  0.80022450108E+02 -0.49187789215E+02 -0.53895948590E+03  0.54708350237E+03  0.00000000000E+00 0. -1.
        -14    1    3    3    0    0  0.25015419232E+02  0.99577645718E+01 -0.40267967801E+02  0.48440040313E+02  0.00000000000E+00 0.  1.
          5    1    4    4  501    0 -0.70381989350E+02 -0.46552293777E+02 -0.31835400151E+03  0.32937438145E+03  0.41800000000E+01 0.  1.
         -5    1    4    4    0  501 -0.64646010023E+02  0.43921199726E+02 -0.94815689391E+02  0.12294578379E+03  0.41800000000E+01 0.  1.
</event>
<event>
11    1  0.8453735E-009  0.2804453E+03  0.7561462E-02  0.1008824E+00
         22   -1    0    0    0    0  0.00000000000E+00  0.00000000000E+00  0.19777831850E+04  0.19777831850E+04  0.00000000000E+00 0.  1.
         22   -1    0    0    0    0 -0.00000000000E+00 -0.00000000000E+00 -0.52228653118E+03  0.52228653118E+03  0.00000000000E+00 0. -1.
        -24    2    1    2    0    0  0.50126978107E+02 -0.15059472557E+01 -0.41932867219E+03  0.43097021858E+03  0.85929111325E+02 0.  0.
         25    2    1    2    0    0 -0.21360861946E+03 -0.18456540688E+03  0.18632444129E+03  0.36063471083E+03  0.12509022947E+03 0.  0.
         24    2    1    2    0    0  0.16348164135E+03  0.18607135414E+03  0.16885008847E+04  0.17084647868E+04  0.80423218436E+02 0.  0.
        -11    1    5    5    0    0  0.17107658369E+03  0.17992727139E+03  0.15642552686E+04  0.15838357131E+04  0.00000000000E+00 0.  1.
         12    1    5    5    0    0 -0.75949423313E+01  0.61440827426E+01  0.12424561609E+03  0.12462907373E+03  0.00000000000E+00 0. -1.
         13    1    3    3    0    0  0.10429804521E+01 -0.26648017014E+02 -0.27778876534E+03  0.27906594699E+03  0.00000000000E+00 0. -1.
        -14    1    3    3    0    0  0.49083997655E+02  0.25142069759E+02 -0.14153990684E+03  0.15190427159E+03  0.00000000000E+00 0.  1.
          5    1    4    4  501    0 -0.16399556833E+02 -0.80407380011E+02  0.75362133036E+02  0.11149536188E+03  0.41800000000E+01 0. -1.
         -5    1    4    4    0  501 -0.19720906263E+03 -0.10415802687E+03  0.11096230825E+03  0.24913934895E+03  0.41800000000E+01 0. -1.
</event>
<event>
11    1  0.8453735E-009  0.1409921E+03  0.7561462E-02  0.1106456E+00
         22   -1    0    0    0    0  0.00000000000E+00  0.00000000000E+00  0.21106589877E+04  0.21106589877E+04  0.00000000000E+00 0. -1.
         22   -1    0    0    0    0 -0.00000000000E+00 -0.00000000000E+00 -0.28028907908E+03  0.28028907908E+03  0.00000000000E+00 0.  1.
        -24    2    1    2    0    0 -0.20983288519E+02 -0.58993034268E+02 -0.22861777857E+03  0.25049572429E+03  0.81003350077E+02 0.  0.
         25    2    1    2    0    0  0.36764080188E+02  0.94473204918E+02  0.12351683815E+03  0.20293106999E+03  0.12509126996E+03 0.  0.
         24    2    1    2    0    0 -0.15780791669E+02 -0.35480170651E+02  0.19354708490E+04  0.19375212725E+04  0.80208465864E+02 0.  0.
        -13    1    5    5    0    0 -0.32675963785E+02 -0.39466154553E+02  0.67898080722E+03  0.68091132502E+03  0.00000000000E+00 0.  1.
         14    1    5    5    0    0  0.16895172115E+02  0.39859839026E+01  0.12564900418E+04  0.12566099474E+04  0.00000000000E+00 0. -1.
         13    1    3    3    0    0  0.51668553356E+01 -0.21647465302E+02 -0.57140260960E+01  0.22977363693E+02  0.00000000000E+00 0. -1.
        -14    1    3    3    0    0 -0.26150143855E+02 -0.37345568965E+02 -0.22290375247E+03  0.22751836060E+03  0.00000000000E+00 0.  1.
          5    1    4    4  501    0 -0.44301210793E+02  0.14336938196E+02  0.40509763809E+02  0.61859990611E+02  0.41800000000E+01 0. -1.
         -5    1    4    4    0  501  0.81065290981E+02  0.80136266722E+02  0.83007074343E+02  0.14107107938E+03  0.41800000000E+01 0. -1.
</event>
<event>
11    1  0.8453735E-009  0.1381990E+03  0.7561462E-02  0.1109586E+00
         22   -1    0    0    0    0  0.00000000000E+00  0.00000000000E+00  0.99259344619E+02  0.99259344619E+02  0.00000000000E+00 0.  1.
         22   -1    0    0    0    0 -0.00000000000E+00 -0.00000000000E+00 -0.24734214543E+04  0.24734214543E+04  0.00000000000E+00 0.  1.
        -24    2    1    2    0    0 -0.16845391626E+01  0.37654431700E+02 -0.22551716870E+04  0.22569113690E+04  0.80180396062E+02 0.  0.
         25    2    1    2    0    0  0.10602864039E+02 -0.89572614312E+02 -0.14943990687E+03  0.21474372572E+03  0.12508760134E+03 0.  0.
         24    2    1    2    0    0 -0.89183248761E+01  0.51918182611E+02  0.30449484157E+02  0.10102570421E+03  0.80647303865E+02 0.  0.
        -13    1    5    5    0    0 -0.33050410286E+02  0.58349634644E+02  0.34993995431E+02  0.75641187189E+02  0.00000000000E+00 0.  1.
         14    1    5    5    0    0  0.24132085410E+02 -0.64314520329E+01 -0.45445112740E+01  0.25384517017E+02  0.00000000000E+00 0. -1.
         13    1    3    3    0    0  0.56095794496E+01  0.54512290232E+02 -0.93046539260E+03  0.93207773495E+03  0.00000000000E+00 0. -1.
        -14    1    3    3    0    0 -0.72941186123E+01 -0.16857858532E+02 -0.13247062944E+04  0.13248336341E+04  0.00000000000E+00 0.  1.
          5    1    4    4  501    0 -0.55390423777E+02 -0.59542311151E+02 -0.74087082934E+02  0.11008975484E+03  0.41800000000E+01 0. -1.
         -5    1    4    4    0  501  0.65993287816E+02 -0.30030303161E+02 -0.75352823939E+02  0.10465397088E+03  0.41800000000E+01 0. -1.
</event>
<event>
11    1  0.8453735E-009  0.1468036E+03  0.7561462E-02  0.1100190E+00
         22   -1    0    0    0    0  0.00000000000E+00  0.00000000000E+00  0.40333747811E+03  0.40333747811E+03  0.00000000000E+00 0. -1.
         22   -1    0    0    0    0 -0.00000000000E+00 -0.00000000000E+00 -0.49912420398E+03  0.49912420398E+03  0.00000000000E+00 0.  1.
        -24    2    1    2    0    0  0.20913521002E+02 -0.17772719782E+02 -0.43496305609E+03  0.44136050712E+03  0.69663420518E+02 0.  0.
         25    2    1    2    0    0  0.54244839989E+02 -0.13451950092E+02  0.43051985486E+02  0.14361908747E+03  0.12509800640E+03 0.  0.
         24    2    1    2    0    0 -0.75158360991E+02  0.31224669874E+02  0.29612434473E+03  0.31748208749E+03  0.80507695914E+02 0.  0.
        -11    1    5    5    0    0 -0.51522003803E+02 -0.18532516843E+02  0.10292118601E+03  0.11657933602E+03  0.00000000000E+00 0.  1.
         12    1    5    5    0    0 -0.23636357188E+02  0.49757186718E+02  0.19320315872E+03  0.20090275148E+03  0.00000000000E+00 0. -1.
         13    1    3    3    0    0  0.51844750152E+01 -0.33370592460E+02 -0.97722950212E+02  0.10339366625E+03  0.00000000000E+00 0. -1.
        -14    1    3    3    0    0  0.15729045987E+02  0.15597872677E+02 -0.33724010588E+03  0.33796684088E+03  0.00000000000E+00 0.  1.
          5    1    4    4  501    0  0.14614738028E+02 -0.59443430934E+02  0.54063309913E+02  0.81776683276E+02  0.41800000000E+01 0. -1.
         -5    1    4    4    0  501  0.39630101961E+02  0.45991480842E+02 -0.11011324427E+02  0.61842404199E+02  0.41800000000E+01 0. -1.
</event>
<event>
11    1  0.8453735E-009  0.1311219E+03  0.7561462E-02  0.1117898E+00
         22   -1    0    0    0    0  0.00000000000E+00  0.00000000000E+00  0.10989855140E+03  0.10989855140E+03  0.00000000000E+00 0.  1.
         22   -1    0    0    0    0 -0.00000000000E+00 -0.00000000000E+00 -0.11565945409E+04  0.11565945409E+04  0.00000000000E+00 0. -1.
        -24    2    1    2    0    0 -0.29215662569E+02 -0.23431669221E+02 -0.90860230987E+03  0.91292487607E+03  0.80442984707E+02 0.  0.
         25    2    1    2    0    0  0.42352376592E+02  0.39375580609E+02 -0.20483511023E+03  0.24687446717E+03  0.12508165335E+03 0.  0.
         24    2    1    2    0    0 -0.13136714023E+02 -0.15943911388E+02  0.66741430635E+02  0.10669374902E+03  0.80637187153E+02 0.  0.
        -11    1    5    5    0    0  0.20405433265E+02 -0.36801079215E+02  0.44992136669E+02  0.61603518569E+02  0.00000000000E+00 0.  1.
         12    1    5    5    0    0 -0.33542147287E+02  0.20857167827E+02  0.21749293966E+02  0.45090230454E+02  0.00000000000E+00 0. -1.
         11    1    3    3    0    0  0.20453237095E+02  0.93710757135E+01 -0.43735181972E+03  0.43793009280E+03  0.00000000000E+00 0. -1.
        -12    1    3    3    0    0 -0.49668899664E+02 -0.32802744934E+02 -0.47125049015E+03  0.47499478327E+03  0.00000000000E+00 0.  1.
          5    1    4    4  501    0  0.84009245267E+02  0.44907261834E+02 -0.13536534528E+03  0.16557615939E+03  0.41800000000E+01 0. -1.
         -5    1    4    4    0  501 -0.41656868675E+02 -0.55316812255E+01 -0.69469764946E+02  0.81298307773E+02  0.41800000000E+01 0. -1.
</event>
<event>
11    1  0.8453735E-009  0.2604904E+03  0.7561462E-02  0.1018455E+00
         22   -1    0    0    0    0  0.00000000000E+00  0.00000000000E+00  0.16124889039E+04  0.16124889039E+04  0.00000000000E+00 0.  1.
         22   -1    0    0    0    0 -0.00000000000E+00 -0.00000000000E+00 -0.66765659973E+03  0.66765659973E+03  0.00000000000E+00 0.  1.
         24    2    1    2    0    0  0.18717766259E+03  0.14787012914E+03 -0.52646874386E+03  0.58243270357E+03  0.71815482075E+02 0.  0.
         25    2    1    2    0    0 -0.16750744186E+03 -0.88709396671E+02  0.42570601033E+01  0.22714406296E+03  0.12509277614E+03 0.  0.
        -24    2    1    2    0    0 -0.19670220731E+02 -0.59160732474E+02  0.14670439879E+04  0.14705687371E+04  0.80420384169E+02 0.  0.
        -11    1    3    3    0    0  0.19286237966E+03  0.14386934142E+03 -0.51985313992E+03  0.57283642689E+03  0.00000000000E+00 0.  1.
         12    1    3    3    0    0 -0.56847170757E+01  0.40007877224E+01 -0.66156039364E+01  0.95962766776E+01  0.00000000000E+00 0. -1.
         13    1    5    5    0    0 -0.13956793062E+02  0.16585804676E+02  0.18290819671E+03  0.18418819021E+03  0.00000000000E+00 0. -1.
        -14    1    5    5    0    0 -0.57134276684E+01 -0.75746537150E+02  0.12841357912E+04  0.12863805469E+04  0.00000000000E+00 0.  1.
          5    1    4    4  501    0 -0.10131201973E+03 -0.41447209735E+01 -0.42394818840E+02  0.10998225820E+03  0.41800000000E+01 0.  1.
         -5    1    4    4    0  501 -0.66195422130E+02 -0.84564675697E+02  0.46651878944E+02  0.11716180476E+03  0.41800000000E+01 0.  1.
</event>
<event>
11    1  0.8453735E-009  0.2461526E+03  0.7561462E-02  0.1025969E+00
         22   -1    0    0    0    0  0.00000000000E+00  0.00000000000E+00  0.10115420477E+04  0.10115420477E+04  0.00000000000E+00 0. -1.
         22   -1    0    0    0    0 -0.00000000000E+00 -0.00000000000E+00 -0.27123106172E+03  0.27123106172E+03  0.00000000000E+00 0.  1.
        -24    2    1    2    0    0 -0.10992357587E+03  0.10420829120E+03 -0.77754965009E+02  0.18801561507E+03  0.79758864329E+02 0.  0.
         25    2    1    2    0    0  0.25666496790E+03 -0.23180973888E+03  0.15414897919E+03  0.39877544228E+03  0.12508910742E+03 0.  0.
         24    2    1    2    0    0 -0.14674139203E+03  0.12760144767E+03  0.66391697180E+03  0.69598205208E+03  0.76092744682E+02 0.  0.
        -13    1    5    5    0    0 -0.21668715532E+01 -0.63823349106E+01  0.55199368301E+01  0.87120166349E+01  0.00000000000E+00 0.  1.
         14    1    5    5    0    0 -0.14457452048E+03  0.13398378258E+03  0.65839703497E+03  0.68727003545E+03  0.00000000000E+00 0. -1.
         11    1    3    3    0    0 -0.66780161735E+02  0.31285141992E+02 -0.10950885126E+01  0.73753300466E+02  0.00000000000E+00 0. -1.
        -12    1    3    3    0    0 -0.43143414134E+02  0.72923149211E+02 -0.76659876497E+02  0.11426231460E+03  0.00000000000E+00 0.  1.
          5    1    4    4  501    0  0.23059505216E+03 -0.18191518665E+03  0.17096639281E+03  0.33987378994E+03  0.41800000000E+01 0.  1.
         -5    1    4    4    0  501  0.26069915734E+02 -0.49894552226E+02 -0.16817413613E+02  0.58901652344E+02  0.41800000000E+01 0.  1.
</event>
<event>
11    1  0.8453735E-009  0.1766183E+03  0.7561462E-02  0.1072412E+00
         22   -1    0    0    0    0  0.00000000000E+00  0.00000000000E+00  0.85591870964E+03  0.85591870964E+03  0.00000000000E+00 0.  1.
         22   -1    0    0    0    0 -0.00000000000E+00 -0.00000000000E+00 -0.19952238032E+03  0.19952238032E+03  0.00000000000E+00 0. -1.
        -24    2    1    2    0    0 -0.26240830958E+02 -0.38814639710E+02 -0.15341342314E+03  0.17563542184E+03  0.71532968208E+02 0.  0.
         25    2    1    2    0    0 -0.97712941131E+02 -0.18916844017E+02  0.23792537733E+03  0.28661992243E+03  0.12504730665E+03 0.  0.
         24    2    1    2    0    0  0.12395377209E+03  0.57731483727E+02  0.57188437512E+03  0.59318574569E+03  0.78231250476E+02 0.  0.
        -11    1    5    5    0    0  0.11775203559E+03  0.51095484478E+02  0.38014274183E+03  0.40122910486E+03  0.00000000000E+00 0.  1.
         12    1    5    5    0    0  0.62017365035E+01  0.66359992498E+01  0.19174163330E+03  0.19195664084E+03  0.00000000000E+00 0. -1.
         11    1    3    3    0    0 -0.32248011796E+02 -0.39893804730E+02 -0.15917831148E+03  0.16723990183E+03  0.00000000000E+00 0. -1.
        -12    1    3    3    0    0  0.60071808386E+01  0.10791650198E+01  0.57648883329E+01  0.83955200112E+01  0.00000000000E+00 0.  1.
          5    1    4    4  501    0 -0.19009230964E+02 -0.65019009934E+02  0.88888114018E+02  0.11183645080E+03  0.41800000000E+01 0.  1.
         -5    1    4    4    0  501 -0.78703710167E+02  0.46102165916E+02  0.14903726331E+03  0.17478347162E+03  0.41800000000E+01 0.  1.
</event>
<event>
11    1  0.8453735E-009  0.1652108E+03  0.7561462E-02  0.1082276E+00
         22   -1    0    0    0    0  0.00000000000E+00  0.00000000000E+00  0.45913264706E+03  0.45913264706E+03  0.00000000000E+00 0. -1.
         22   -1    0    0    0    0 -0.00000000000E+00 -0.00000000000E+00 -0.24154615372E+04  0.24154615372E+04  0.00000000000E+00 0.  1.
        -24    2    1    2    0    0 -0.10608621732E+03  0.28877084088E+02 -0.21604409432E+04  0.21647183532E+04  0.80076886679E+02 0.  0.
         25    2    1    2    0    0  0.84785943743E+02 -0.16127394557E+02 -0.22558762204E+03  0.27200009833E+03  0.12508208970E+03 0.  0.
         24    2    1    2    0    0  0.21300273576E+02 -0.12749689531E+02  0.42969967511E+03  0.43787573280E+03  0.80480372417E+02 0.  0.
        -13    1    5    5    0    0 -0.72127367345E+01 -0.27147424842E+02  0.54443495246E+02  0.61262553173E+02  0.00000000000E+00 0.  1.
         14    1    5    5    0    0  0.28513010310E+02  0.14397735311E+02  0.37525617986E+03  0.37661317962E+03  0.00000000000E+00 0. -1.
         13    1    3    3    0    0  0.12025959271E+02 -0.21221295733E+01 -0.11798349648E+03  0.11861379587E+03  0.00000000000E+00 0. -1.
        -14    1    3    3    0    0 -0.11811217659E+03  0.30999213661E+02 -0.20424574468E+04  0.20461045573E+04  0.00000000000E+00 0.  1.
          5    1    4    4  501    0 -0.66332930553E+01  0.18648531970E+02  0.55560103871E+01  0.20978798173E+02  0.41800000000E+01 0.  1.
         -5    1    4    4    0  501  0.91419236798E+02 -0.34775926526E+02 -0.23114363242E+03  0.25102130016E+03  0.41800000000E+01 0.  1.
</event>
<event>
11    1  0.8453735E-009  0.1277250E+03  0.7561462E-02  0.1122096E+00
         22   -1    0    0    0    0  0.00000000000E+00  0.00000000000E+00  0.20422432947E+04  0.20422432947E+04  0.00000000000E+00 0. -1.
         22   -1    0    0    0    0 -0.00000000000E+00 -0.00000000000E+00 -0.10861619689E+03  0.10861619689E+03  0.00000000000E+00 0.  1.
        -24    2    1    2    0    0  0.50701660744E+02 -0.35580288803E+02 -0.75652781095E+02  0.12632417748E+03  0.79986493700E+02 0.  0.
         25    2    1    2    0    0 -0.13033097937E+02  0.35801270727E+02  0.76551508767E+03  0.77660316927E+03  0.12509012931E+03 0.  0.
         24    2    1    2    0    0 -0.37668562807E+02 -0.22098192350E+00  0.12437647913E+04  0.12479321448E+04  0.94682695023E+02 0.  0.
        -13    1    5    5    0    0 -0.51205120234E+02  0.20425104627E+02  0.39720237451E+03  0.40100981977E+03  0.00000000000E+00 0.  1.
         14    1    5    5    0    0  0.13536557427E+02 -0.20646086551E+02  0.84656241674E+03  0.84692232508E+03  0.00000000000E+00 0. -1.
         11    1    3    3    0    0 -0.46385696195E+01 -0.97765744801E+01  0.14097871557E+02  0.17772105084E+02  0.00000000000E+00 0. -1.
        -12    1    3    3    0    0  0.55340230364E+02 -0.25803714323E+02 -0.89750652652E+02  0.10855207239E+03  0.00000000000E+00 0.  1.
          5    1    4    4  501    0  0.22379499395E+02 -0.33640525357E+02  0.12709721371E+03  0.13343051028E+03  0.41800000000E+01 0.  1.
         -5    1    4    4    0  501 -0.35412597332E+02  0.69441796084E+02  0.63841787395E+03  0.64317265899E+03  0.41800000000E+01 0.  1.
</event>
<event>
11    1  0.8453735E-009  0.1454296E+03  0.7561462E-02  0.1101642E+00
         22   -1    0    0    0    0  0.00000000000E+00  0.00000000000E+00  0.12018058853E+03  0.12018058853E+03  0.00000000000E+00 0.  1.
         22   -1    0    0    0    0 -0.00000000000E+00 -0.00000000000E+00 -0.13284180618E+04  0.13284180618E+04  0.00000000000E+00 0.  1.
         24    2    1    2    0    0 -0.28938362532E+02  0.25782282700E+02 -0.10519112885E+04  0.10556527460E+04  0.79894970884E+02 0.  0.
         25    2    1    2    0    0 -0.27200561416E+02  0.29295281512E+02 -0.22519070253E+03  0.26068447053E+03  0.12508979419E+03 0.  0.
        -24    2    1    2    0    0  0.56138923948E+02 -0.55077564212E+02  0.68864517707E+02  0.13226143383E+03  0.81028687624E+02 0.  0.
        -11    1    3    3    0    0  0.17132494531E+02 -0.33359726463E+01 -0.62924939121E+03  0.62949141966E+03  0.00000000000E+00 0.  1.
         12    1    3    3    0    0 -0.46070857063E+02  0.29118255346E+02 -0.42266189726E+03  0.42616132633E+03  0.00000000000E+00 0. -1.
         11    1    5    5    0    0  0.72218680806E+02 -0.30742561555E+02  0.30823079827E+02  0.84324997470E+02  0.00000000000E+00 0. -1.
        -12    1    5    5    0    0 -0.16079756857E+02 -0.24335002656E+02  0.38041437879E+02  0.47936436359E+02  0.00000000000E+00 0.  1.
          5    1    4    4  501    0  0.48992606207E+02  0.22659366818E+02 -0.10554712988E+03  0.11862289574E+03  0.41800000000E+01 0.  1.
         -5    1    4    4    0  501 -0.76193167624E+02  0.66359146942E+01 -0.11964357265E+03  0.14206157479E+03  0.41800000000E+01 0.  1.
</event>
<event>
11    1  0.8453735E-009  0.1394443E+03  0.7561462E-02  0.1108181E+00
         22   -1    0    0    0    0  0.00000000000E+00  0.00000000000E+00  0.64995537896E+03  0.64995537896E+03  0.00000000000E+00 0. -1.
         22   -1    0    0    0    0 -0.00000000000E+00 -0.00000000000E+00 -0.59686603820E+03  0.59686603820E+03  0.00000000000E+00 0.  1.
         24    2    1    2    0    0  0.30504426236E+02 -0.58625576674E+02 -0.56520243028E+03  0.57502920889E+03  0.82688122664E+02 0.  0.
         25    2    1    2    0    0 -0.80969985376E+01 -0.18828295711E+02  0.19423264412E+03  0.23193595768E+03  0.12509157574E+03 0.  0.
        -24    2    1    2    0    0 -0.22407427698E+02  0.77453872385E+02  0.42405912692E+03  0.43985625058E+03  0.84535098534E+02 0.  0.
        -11    1    3    3    0    0  0.49022131238E+02 -0.57272225306E+02 -0.30550904894E+03  0.31467293517E+03  0.00000000000E+00 0.  1.
         12    1    3    3    0    0 -0.18517705002E+02 -0.13533513674E+01 -0.25969338134E+03  0.26035627373E+03  0.00000000000E+00 0. -1.
         13    1    5    5    0    0 -0.10549507176E+02  0.94609555173E+02  0.36552725138E+03  0.37772004386E+03  0.00000000000E+00 0. -1.
        -14    1    5    5    0    0 -0.11857920522E+02 -0.17155682788E+02  0.58531875537E+02  0.62136206715E+02  0.00000000000E+00 0.  1.
          5    1    4    4  501    0 -0.57777825646E+02 -0.40713281887E+02  0.91822253456E+02  0.11595105471E+03  0.41800000000E+01 0.  1.
         -5    1    4    4    0  501  0.49680827109E+02  0.21884986175E+02  0.10241039066E+03  0.11598490297E+03  0.41800000000E+01 0.  1.
</event>
<event>
11    1  0.8453735E-009  0.1597996E+03  0.7561462E-02  0.1087266E+00
         22   -1    0    0    0    0  0.00000000000E+00  0.00000000000E+00  0.34069135229E+04  0.34069135229E+04  0.00000000000E+00 0. -1.
         22   -1    0    0    0    0 -0.00000000000E+00 -0.00000000000E+00 -0.32504635671E+03  0.32504635671E+03  0.00000000000E+00 0.  1.
         24    2    1    2    0    0 -0.10050829709E+03 -0.27199974399E+02 -0.27509444852E+03  0.30824979891E+03  0.92191249734E+02 0.  0.
         25    2    1    2    0    0  0.62374689788E+02 -0.15295622723E+02  0.11879318044E+03  0.18407405758E+03  0.12508749321E+03 0.  0.
        -24    2    1    2    0    0  0.38133607307E+02  0.42495597122E+02  0.32381684343E+04  0.32396360231E+04  0.79036104409E+02 0.  0.
        -13    1    3    3    0    0 -0.82080692736E+02 -0.59743014820E+02 -0.20730801983E+03  0.23083128693E+03  0.00000000000E+00 0.  1.
         14    1    3    3    0    0 -0.18427604358E+02  0.32543040421E+02 -0.67786428691E+02  0.77418511978E+02  0.00000000000E+00 0. -1.
         11    1    5    5    0    0  0.45446965417E+02  0.34234169341E+02  0.31750985313E+04  0.31756083021E+04  0.00000000000E+00 0. -1.
        -12    1    5    5    0    0 -0.73133581101E+01  0.82614277806E+01  0.63069902963E+02  0.64027720993E+02  0.00000000000E+00 0.  1.
          5    1    4    4  501    0  0.43618357878E+02 -0.75754548094E+01  0.14442832178E+03  0.15111902988E+03  0.41800000000E+01 0.  1.
         -5    1    4    4    0  501  0.18756331910E+02 -0.77201679134E+01 -0.25635141343E+02  0.32955027704E+02  0.41800000000E+01 0.  1.
</event>
<event>
11    1  0.8453735E-009  0.1974560E+03  0.7561462E-02  0.1056337E+00
         22   -1    0    0    0    0  0.00000000000E+00  0.00000000000E+00  0.64811850822E+03  0.64811850822E+03  0.00000000000E+00 0.  1.
         22   -1    0    0    0    0 -0.00000000000E+00 -0.00000000000E+00 -0.90526904788E+03  0.90526904788E+03  0.00000000000E+00 0. -1.
        -24    2    1    2    0    0  0.21513651907E+02  0.37154723729E+01 -0.63627555269E+03  0.64166749162E+03  0.80087133203E+02 0.  0.
         25    2    1    2    0    0 -0.40425095147E+02  0.14793295926E+03 -0.21518587409E+03  0.29235417764E+03  0.12509059127E+03 0.  0.
         24    2    1    2    0    0  0.18911443241E+02 -0.15164843163E+03  0.59431088712E+03  0.61936588683E+03  0.83986794891E+02 0.  0.
        -13    1    5    5    0    0  0.35221187796E+02 -0.14026898141E+03  0.42590755393E+03  0.44979235622E+03  0.00000000000E+00 0.  1.
         14    1    5    5    0    0 -0.16309744555E+02 -0.11379450219E+02  0.16840333319E+03  0.16957353061E+03  0.00000000000E+00 0. -1.
         11    1    3    3    0    0  0.36419961563E+02 -0.22538943141E+02 -0.51155366048E+03  0.51334351570E+03  0.00000000000E+00 0. -1.
        -12    1    3    3    0    0 -0.14906309657E+02  0.26254415513E+02 -0.12472189221E+03  0.12832397593E+03  0.00000000000E+00 0.  1.
          5    1    4    4  501    0  0.40411996379E+02  0.82414294334E+02 -0.12106367192E+03  0.15198398080E+03  0.41800000000E+01 0.  1.
         -5    1    4    4    0  501 -0.80837091526E+02  0.65518664926E+02 -0.94122202170E+02  0.14037019684E+03  0.41800000000E+01 0.  1.
</event>
<event>
11    1  0.8453735E-009  0.1366067E+03  0.7561462E-02  0.1111408E+00
         22   -1    0    0    0    0  0.00000000000E+00  0.00000000000E+00  0.68419841991E+03  0.68419841991E+03  0.00000000000E+00 0.  1.
         22   -1    0    0    0    0 -0.00000000000E+00 -0.00000000000E+00 -0.11630584978E+04  0.11630584978E+04  0.00000000000E+00 0.  1.
         24    2    1    2    0    0 -0.46059311042E+01  0.51990869529E+02 -0.86632046232E+03  0.87139138934E+03  0.78022720162E+02 0.  0.
         25    2    1    2    0    0 -0.14441723987E+02 -0.75650168375E+02 -0.27320465157E+03  0.31019438263E+03  0.12509301344E+03 0.  0.
        -24    2    1    2    0    0  0.19047655091E+02  0.23659298846E+02  0.66066503600E+03  0.66567114573E+03  0.75612227112E+02 0.  0.
        -13    1    3    3    0    0 -0.35566098749E+02  0.48732927811E+01 -0.26223935536E+03  0.26468505032E+03  0.00000000000E+00 0.  1.
         14    1    3    3    0    0  0.30960167645E+02  0.47117576748E+02 -0.60408110696E+03  0.60670633902E+03  0.00000000000E+00 0. -1.
         13    1    5    5    0    0 -0.19492306332E+02  0.40086506129E+01  0.55465614094E+02  0.58927528649E+02  0.00000000000E+00 0. -1.
        -14    1    5    5    0    0  0.38539961423E+02  0.19650648234E+02  0.60519942190E+03  0.60674361709E+03  0.00000000000E+00 0.  1.
          5    1    4    4  501    0 -0.39579231288E+02 -0.60157244266E+01 -0.20672077525E+03  0.21060307645E+03  0.41800000000E+01 0.  1.
         -5    1    4    4    0  501  0.25137507301E+02 -0.69634443949E+02 -0.66483876323E+02  0.99591306188E+02  0.41800000000E+01 0.  1.
</event>
<event>
11    1  0.8453735E-009  0.1416003E+03  0.7561462E-02  0.1105784E+00
         22   -1    0    0    0    0  0.00000000000E+00  0.00000000000E+00  0.34367807767E+03  0.34367807767E+03  0.00000000000E+00 0. -1.
         22   -1    0    0    0    0 -0.00000000000E+00 -0.00000000000E+00 -0.11377610105E+03  0.11377610105E+03  0.00000000000E+00 0. -1.
         24    2    1    2    0    0  0.12763309858E+02  0.12938874425E+02 -0.29518662817E+02  0.86437877778E+02  0.79182313116E+02 0.  0.
         25    2    1    2    0    0 -0.37471770452E+02  0.50523421366E+02  0.76009627830E+02  0.15931756174E+03  0.12509145562E+03 0.  0.
        -24    2    1    2    0    0  0.24708460594E+02 -0.63462295791E+02  0.18341101161E+03  0.21169873921E+03  0.80862760221E+02 0.  0.
        -11    1    3    3    0    0  0.28717708925E+02  0.23926648096E+02  0.13112078601E+02  0.39612092854E+02  0.00000000000E+00 0.  1.
         12    1    3    3    0    0 -0.15954399068E+02 -0.10987773672E+02 -0.42630741419E+02  0.46825784924E+02  0.00000000000E+00 0. -1.
         11    1    5    5    0    0  0.47110793952E+02 -0.58103216157E+02  0.16823266595E+03  0.18411311883E+03  0.00000000000E+00 0. -1.
        -12    1    5    5    0    0 -0.22402333358E+02 -0.53590796336E+01  0.15178345661E+02  0.27585620374E+02  0.00000000000E+00 0.  1.
          5    1    4    4  501    0 -0.77587186568E+02  0.35114215674E+02  0.78731913763E+02  0.11605587580E+03  0.41800000000E+01 0. -1.
         -5    1    4    4    0  501  0.40115416116E+02  0.15409205692E+02 -0.27222859335E+01  0.43261685946E+02  0.41800000000E+01 0. -1.
</event>
<event>
11    1  0.8453735E-009  0.1387072E+03  0.7561462E-02  0.1109011E+00
         22   -1    0    0    0    0  0.00000000000E+00  0.00000000000E+00  0.14501595914E+04  0.14501595914E+04  0.00000000000E+00 0. -1.
         22   -1    0    0    0    0 -0.00000000000E+00 -0.00000000000E+00 -0.10339471906E+03  0.10339471906E+03  0.00000000000E+00 0. -1.
        -24    2    1    2    0    0  0.20714934741E+02 -0.49203895113E+02 -0.33131396269E+02  0.99781655588E+02  0.77514886039E+02 0.  0.
         25    2    1    2    0    0 -0.50064021087E+01  0.10021432530E+03  0.14739604426E+03  0.21780951816E+03  0.12508963698E+03 0.  0.
         24    2    1    2    0    0 -0.15708532633E+02 -0.51010430189E+02  0.12325002243E+04  0.12359631367E+04  0.75493379245E+02 0.  0.
        -13    1    5    5    0    0  0.16092510253E+02  0.73319762406E+01  0.10275900603E+03  0.10426955491E+03  0.00000000000E+00 0.  1.
         14    1    5    5    0    0 -0.31801042886E+02 -0.58342406429E+02  0.11297412183E+04  0.11316935818E+04  0.00000000000E+00 0. -1.
         11    1    3    3    0    0  0.38647422294E+02 -0.23341273603E+02 -0.47193002010E+02  0.65311696824E+02  0.00000000000E+00 0. -1.
        -12    1    3    3    0    0 -0.17932487552E+02 -0.25862621510E+02  0.14061605741E+02  0.34469958764E+02  0.00000000000E+00 0.  1.
          5    1    4    4  501    0  0.28170731803E+02  0.11576082615E+03  0.13195474508E+03  0.17783049837E+03  0.41800000000E+01 0.  1.
         -5    1    4    4    0  501 -0.33177133911E+02 -0.15546500849E+02  0.15441299185E+02  0.39979019795E+02  0.41800000000E+01 0.  1.
</event>
<event>
11    1  0.8453735E-009  0.1509730E+03  0.7561462E-02  0.1095889E+00
         22   -1    0    0    0    0  0.00000000000E+00  0.00000000000E+00  0.60235163326E+03  0.60235163326E+03  0.00000000000E+00 0. -1.
         22   -1    0    0    0    0 -0.00000000000E+00 -0.00000000000E+00 -0.17845738919E+04  0.17845738919E+04  0.00000000000E+00 0. -1.
         24    2    1    2    0    0 -0.17646488251E+02  0.27712614336E+02 -0.15595560837E+04  0.15621780795E+04  0.84295826959E+02 0.  0.
         25    2    1    2    0    0 -0.45406720409E+02 -0.83807106547E+02 -0.18974209749E+03  0.24644506546E+03  0.12509078849E+03 0.  0.
        -24    2    1    2    0    0  0.63053208660E+02  0.56094492210E+02  0.56707592256E+03  0.57830238015E+03  0.75737980944E+02 0.  0.
        -11    1    3    3    0    0  0.37263915522E+01 -0.19296849087E+02 -0.11270442597E+03  0.11440516602E+03  0.00000000000E+00 0.  1.
         12    1    3    3    0    0 -0.21372879803E+02  0.47009463424E+02 -0.14468516577E+04  0.14477729135E+04  0.00000000000E+00 0. -1.
         11    1    5    5    0    0  0.36939057240E+02  0.55519442080E+02  0.52170581049E+03  0.52595043026E+03  0.00000000000E+00 0. -1.
        -12    1    5    5    0    0  0.26114151420E+02  0.57505013025E+00  0.45370112071E+02  0.52351949881E+02  0.00000000000E+00 0.  1.
          5    1    4    4  501    0  0.29185049808E+02 -0.34114467001E+02 -0.10947180296E+02  0.46399107184E+02  0.41800000000E+01 0.  1.
         -5    1    4    4    0  501 -0.74591770218E+02 -0.49692639546E+02 -0.17879491719E+03  0.20004595828E+03  0.41800000000E+01 0.  1.
</event>
<event>
11    1  0.8453735E-009  0.1565281E+03  0.7561462E-02  0.1090389E+00
         22   -1    0    0    0    0  0.00000000000E+00  0.00000000000E+00  0.25542122141E+03  0.25542122141E+03  0.00000000000E+00 0. -1.
         22   -1    0    0    0    0 -0.00000000000E+00 -0.00000000000E+00 -0.58994541453E+03  0.58994541453E+03  0.00000000000E+00 0.  1.
         24    2    1    2    0    0 -0.37594048991E+01 -0.93036916507E+01 -0.45298574147E+03  0.46018969318E+03  0.80484656468E+02 0.  0.
         25    2    1    2    0    0  0.54354380990E+02  0.86930826633E+02 -0.56603746998E+02  0.17135723478E+03  0.12509176785E+03 0.  0.
        -24    2    1    2    0    0 -0.50594976091E+02 -0.77627134982E+02  0.17506529535E+03  0.21381970798E+03  0.80530653751E+02 0.  0.
        -11    1    3    3    0    0 -0.32481084780E+02 -0.27841020100E+02 -0.32146302997E+03  0.32429712134E+03  0.00000000000E+00 0.  1.
         12    1    3    3    0    0  0.28721679881E+02  0.18537328449E+02 -0.13152271150E+03  0.13589257184E+03  0.00000000000E+00 0. -1.
         11    1    5    5    0    0 -0.69104233692E+02 -0.70241928914E+02  0.12007451724E+03  0.15532937064E+03  0.00000000000E+00 0. -1.
        -12    1    5    5    0    0  0.18509257600E+02 -0.73852060684E+01  0.54990778109E+02  0.58490337344E+02  0.00000000000E+00 0.  1.
          5    1    4    4  501    0 -0.34938808313E+02  0.28117900976E+01 -0.28660560634E+02  0.45470062962E+02  0.41800000000E+01 0. -1.
         -5    1    4    4    0  501  0.89293189304E+02  0.84119036535E+02 -0.27943186364E+02  0.12588717182E+03  0.41800000000E+01 0. -1.
</event>
<event>
11    1  0.8453735E-009  0.1676079E+03  0.7561462E-02  0.1080132E+00
         22   -1    0    0    0    0  0.00000000000E+00  0.00000000000E+00  0.14722217861E+04  0.14722217861E+04  0.00000000000E+00 0.  1.
         22   -1    0    0    0    0 -0.00000000000E+00 -0.00000000000E+00 -0.12642582728E+03  0.12642582728E+03  0.00000000000E+00 0. -1.
         24    2    1    2    0    0  0.43892445421E+02  0.91489549637E+02 -0.19531425209E+02  0.13046972656E+03  0.79649158936E+02 0.  0.
         25    2    1    2    0    0 -0.64721883008E+02 -0.12987777461E+03  0.13487003535E+03  0.23429712954E+03  0.12509220598E+03 0.  0.
        -24    2    1    2    0    0  0.20829437588E+02  0.38388224974E+02  0.12304573487E+04  0.12338807573E+04  0.80801701713E+02 0.  0.
        -13    1    3    3    0    0 -0.35840659422E+01  0.79968418589E+02 -0.96790491725E+01  0.80631739986E+02  0.00000000000E+00 0.  1.
         14    1    3    3    0    0  0.47476511363E+02  0.11521131048E+02 -0.98523760363E+01  0.49837986570E+02  0.00000000000E+00 0. -1.
         11    1    5    5    0    0  0.14959132496E+02  0.30001539119E+02  0.16484947589E+03  0.16822371324E+03  0.00000000000E+00 0. -1.
        -12    1    5    5    0    0  0.58703050913E+01  0.83866858555E+01  0.10656078728E+04  0.10656570441E+04  0.00000000000E+00 0.  1.
          5    1    4    4  501    0  0.36807524777E+02 -0.40751894680E+02  0.26830655016E+02  0.61260650085E+02  0.41800000000E+01 0.  1.
         -5    1    4    4    0  501 -0.10152940779E+03 -0.89125879931E+02  0.10803938033E+03  0.17303647945E+03  0.41800000000E+01 0.  1.
</event>
<event>
11    1  0.8453735E-009  0.1274602E+03  0.7561462E-02  0.1122430E+00
         22   -1    0    0    0    0  0.00000000000E+00  0.00000000000E+00  0.48758553750E+03  0.48758553750E+03  0.00000000000E+00 0. -1.
         22   -1    0    0    0    0 -0.00000000000E+00 -0.00000000000E+00 -0.31358370468E+03  0.31358370468E+03  0.00000000000E+00 0. -1.
        -24    2    1    2    0    0 -0.79293049861E+00  0.23123869955E+02 -0.24542295664E+03  0.26056943804E+03  0.84431405855E+02 0.  0.
         25    2    1    2    0    0  0.32463984084E+02 -0.36101317252E+02  0.24796814783E+02  0.13644916456E+03  0.12508507951E+03 0.  0.
         24    2    1    2    0    0 -0.31671053586E+02  0.12977447297E+02  0.39462797468E+03  0.40415063958E+03  0.80218646855E+02 0.  0.
        -11    1    5    5    0    0 -0.30200628142E+02 -0.14564765385E+02  0.62903998626E+02  0.71281998948E+02  0.00000000000E+00 0.  1.
         12    1    5    5    0    0 -0.14704254439E+01  0.27542212682E+02  0.33172397605E+03  0.33286864063E+03  0.00000000000E+00 0. -1.
         11    1    3    3    0    0  0.34780749854E+02  0.25371743541E+02 -0.18891679202E+03  0.19376011003E+03  0.00000000000E+00 0. -1.
        -12    1    3    3    0    0 -0.35573680353E+02 -0.22478735858E+01 -0.56506164617E+02  0.66809328011E+02  0.00000000000E+00 0.  1.
          5    1    4    4  501    0  0.61293179004E+02 -0.61562382122E+02 -0.57381424015E+01  0.87161799907E+02  0.41800000000E+01 0. -1.
         -5    1    4    4    0  501 -0.28829194919E+02  0.25461064869E+02  0.30534957184E+02  0.49287364651E+02  0.41800000000E+01 0. -1.
</event>
<event>
11    1  0.8453735E-009  0.1433009E+03  0.7561462E-02  0.1103927E+00
         22   -1    0    0    0    0  0.00000000000E+00  0.00000000000E+00  0.10059226725E+04  0.10059226725E+04  0.00000000000E+00 0. -1.
         22   -1    0    0    0    0 -0.00000000000E+00 -0.00000000000E+00 -0.66533212318E+03  0.66533212318E+03  0.00000000000E+00 0.  1.
         24    2    1    2    0    0 -0.13178028008E+01  0.69225091190E+02 -0.62937584426E+03  0.63810131005E+03  0.79154776820E+02 0.  0.
         25    2    1    2    0    0 -0.99593999945E+01 -0.10665179107E+03  0.20764228747E+03  0.26502176744E+03  0.12508966178E+03 0.  0.
        -24    2    1    2    0    0  0.11277202795E+02  0.37426699876E+02  0.76232410610E+03  0.76813171817E+03  0.85792543697E+02 0.  0.
        -13    1    3    3    0    0 -0.37095102908E+02  0.55278924626E+02 -0.38026186840E+03  0.38604519777E+03  0.00000000000E+00 0.  1.
         14    1    3    3    0    0  0.35777300107E+02  0.13946166565E+02 -0.24911397587E+03  0.25205611228E+03  0.00000000000E+00 0. -1.
         11    1    5    5    0    0  0.28147022709E+02  0.31244700242E+02  0.72950788668E+03  0.73071899039E+03  0.00000000000E+00 0. -1.
        -12    1    5    5    0    0 -0.16869819913E+02  0.61819996345E+01  0.32816219412E+02  0.37412727779E+02  0.00000000000E+00 0.  1.
          5    1    4    4  501    0 -0.42036263965E+02  0.22930099258E+01  0.22854843814E+02  0.48084526288E+02  0.41800000000E+01 0.  1.
         -5    1    4    4    0  501  0.32076863970E+02 -0.10894480099E+03  0.18478744365E+03  0.21693724115E+03  0.41800000000E+01 0.  1.
</event>
<event>
11    1  0.8453735E-009  0.2071852E+03  0.7561462E-02  0.1049556E+00
         22   -1    0    0    0    0  0.00000000000E+00  0.00000000000E+00  0.10375372542E+04  0.10375372542E+04  0.00000000000E+00 0. -1.
         22   -1    0    0    0    0 -0.00000000000E+00 -0.00000000000E+00 -0.41039054344E+03  0.41039054344E+03  0.00000000000E+00 0.  1.
        -24    2    1    2    0    0  0.24553740564E+02 -0.17414771668E+02 -0.28457264429E+03  0.29700018472E+03  0.79506977057E+02 0.  0.
         25    2    1    2    0    0  0.11276380378E+03 -0.78402159753E+02 -0.32490711807E+02  0.18858870821E+03  0.12508988934E+03 0.  0.
         24    2    1    2    0    0 -0.13731754435E+03  0.95816931422E+02  0.94421006689E+03  0.96233890475E+03  0.80786910062E+02 0.  0.
        -11    1    5    5    0    0 -0.47359175665E+02 -0.23101798815E+00  0.14996123439E+03  0.15726193662E+03  0.00000000000E+00 0.  1.
         12    1    5    5    0    0 -0.89958368680E+02  0.96047949410E+02  0.79424883250E+03  0.80507696813E+03  0.00000000000E+00 0. -1.
         11    1    3    3    0    0  0.49558166069E+02  0.44209282798E+01 -0.13743238746E+03  0.14616161451E+03  0.00000000000E+00 0. -1.
        -12    1    3    3    0    0 -0.25004425505E+02 -0.21835699948E+02 -0.14714025682E+03  0.15083857022E+03  0.00000000000E+00 0.  1.
          5    1    4    4  501    0  0.65266668194E+02  0.69866233129E+01 -0.57807709979E+02  0.87565715982E+02  0.41800000000E+01 0.  1.
         -5    1    4    4    0  501  0.47497135587E+02 -0.85388783066E+02  0.25316998172E+02  0.10102299223E+03  0.41800000000E+01 0.  1.
</event>
<event>
11    1  0.8453735E-009  0.1307408E+03  0.7561462E-02  0.1118362E+00
         22   -1    0    0    0    0  0.00000000000E+00  0.00000000000E+00  0.78063614077E+03  0.78063614077E+03  0.00000000000E+00 0. -1.
         22   -1    0    0    0    0 -0.00000000000E+00 -0.00000000000E+00 -0.59866655331E+03  0.59866655331E+03  0.00000000000E+00 0.  1.
        -24    2    1    2    0    0 -0.17719834131E+02  0.10770477951E+02 -0.52555655281E+03  0.53055371792E+03  0.69624433097E+02 0.  0.
         25    2    1    2    0    0  0.66206717132E+01  0.26132743388E+02 -0.82565774138E+01  0.12822804861E+03  0.12508999884E+03 0.  0.
         24    2    1    2    0    0  0.11099162418E+02 -0.36903221340E+02  0.71578271768E+03  0.72052092754E+03  0.72941544745E+02 0.  0.
        -11    1    5    5    0    0  0.32619818737E+02 -0.39314585995E+02  0.31171047064E+03  0.31586881257E+03  0.00000000000E+00 0.  1.
         12    1    5    5    0    0 -0.21520656318E+02  0.24113646554E+01  0.40407224704E+03  0.40465211498E+03  0.00000000000E+00 0. -1.
         11    1    3    3    0    0 -0.19965608990E+02 -0.54529071094E+01 -0.43024242056E+02  0.47743535089E+02  0.00000000000E+00 0. -1.
        -12    1    3    3    0    0  0.22457748581E+01  0.16223385061E+02 -0.48253231075E+03  0.48281018283E+03  0.00000000000E+00 0.  1.
          5    1    4    4  501    0 -0.26154642063E+02  0.24837983637E+02  0.49670765788E+02  0.61527620680E+02  0.41800000000E+01 0.  1.
         -5    1    4    4    0  501  0.32775313776E+02  0.12947597512E+01 -0.57927343202E+02  0.66700427933E+02  0.41800000000E+01 0.  1.
</event>
<event>
11    1  0.8453735E-009  0.1799512E+03  0.7561462E-02  0.1069682E+00
         22   -1    0    0    0    0  0.00000000000E+00  0.00000000000E+00  0.12848989984E+04  0.12848989984E+04  0.00000000000E+00 0. -1.
         22   -1    0    0    0    0 -0.00000000000E+00 -0.00000000000E+00 -0.23374058315E+04  0.23374058315E+04  0.00000000000E+00 0.  1.
        -24    2    1    2    0    0 -0.11433780745E+03 -0.56584749834E+02 -0.21583298039E+04  0.21637298947E+04  0.84050857751E+02 0.  0.
         25    2    1    2    0    0  0.16003843271E+03  0.65902888455E+02 -0.10936950450E+03  0.23992547127E+03  0.12508817930E+03 0.  0.
         24    2    1    2    0    0 -0.45700625256E+02 -0.93181386205E+01  0.12151924753E+04  0.12186494639E+04  0.78983472492E+02 0.  0.
        -11    1    5    5    0    0 -0.99995330752E+00 -0.22655314836E+02  0.10245762312E+03  0.10493725617E+03  0.00000000000E+00 0.  1.
         12    1    5    5    0    0 -0.44700671948E+02  0.13337176215E+02  0.11127348522E+04  0.11137122077E+04  0.00000000000E+00 0. -1.
         13    1    3    3    0    0 -0.16557238706E+02 -0.51308768300E+02 -0.65570281554E+03  0.65791558286E+03  0.00000000000E+00 0. -1.
        -14    1    3    3    0    0 -0.97780568747E+02 -0.52759815341E+01 -0.15026269883E+04  0.15058143118E+04  0.00000000000E+00 0.  1.
          5    1    4    4  501    0  0.11637035560E+03  0.91664876598E+02 -0.11656602188E+03  0.18854606631E+03  0.41800000000E+01 0.  1.
         -5    1    4    4    0  501  0.43668077109E+02 -0.25761988144E+02  0.71965173826E+01  0.51379404959E+02  0.41800000000E+01 0.  1.
</event>
<event>
11    1  0.8453735E-009  0.1612678E+03  0.7561462E-02  0.1085891E+00
         22   -1    0    0    0    0  0.00000000000E+00  0.00000000000E+00  0.12994859333E+03  0.12994859333E+03  0.00000000000E+00 0. -1.
         22   -1    0    0    0    0 -0.00000000000E+00 -0.00000000000E+00 -0.88924185985E+03  0.88924185985E+03  0.00000000000E+00 0. -1.
         24    2    1    2    0    0 -0.67582896726E+02  0.69004822304E+02 -0.40358899347E+03  0.42288609850E+03  0.81360083724E+02 0.  0.
         25    2    1    2    0    0  0.38709572300E+02 -0.11038269536E+03 -0.43856821548E+03  0.47081786885E+03  0.12507843769E+03 0.  0.
        -24    2    1    2    0    0  0.28873324426E+02  0.41377873060E+02  0.82863942430E+02  0.12548648583E+03  0.79590375852E+02 0.  0.
        -13    1    3    3    0    0 -0.19439066032E+02  0.10009889293E+02 -0.14085210322E+02  0.26009004627E+02  0.00000000000E+00 0.  1.
         14    1    3    3    0    0 -0.48143830693E+02  0.58994933011E+02 -0.38950378315E+03  0.39687709388E+03  0.00000000000E+00 0. -1.
         11    1    5    5    0    0  0.46564438420E+02  0.54012832712E+02  0.71381211247E+02  0.10090049723E+03  0.00000000000E+00 0. -1.
        -12    1    5    5    0    0 -0.17691113994E+02 -0.12634959652E+02  0.11482731183E+02  0.24585988595E+02  0.00000000000E+00 0.  1.
          5    1    4    4  501    0  0.32371550241E+01 -0.46493254328E+02 -0.36155251773E+03  0.36456795985E+03  0.41800000000E+01 0.  1.
         -5    1    4    4    0  501  0.35472417276E+02 -0.63889441035E+02 -0.77015697753E+02  0.10624990901E+03  0.41800000000E+01 0.  1.
</event>
<event>
11    1  0.8453735E-009  0.1673694E+03  0.7561462E-02  0.1080344E+00
         22   -1    0    0    0    0  0.00000000000E+00  0.00000000000E+00  0.22093099207E+03  0.22093099207E+03  0.00000000000E+00 0.  1.
         22   -1    0    0    0    0 -0.00000000000E+00 -0.00000000000E+00 -0.85006783668E+03  0.85006783668E+03  0.00000000000E+00 0.  1.
        -24    2    1    2    0    0 -0.57540197718E+02  0.80209637851E+02 -0.43516675632E+03  0.45329425967E+03  0.79756627875E+02 0.  0.
         25    2    1    2    0    0  0.82480945179E+02 -0.11632619077E+03 -0.37188489827E+03  0.41746885826E+03  0.12508789343E+03 0.  0.
         24    2    1    2    0    0 -0.24940747461E+02  0.36116552922E+02  0.17791480997E+03  0.20023571082E+03  0.80710680838E+02 0.  0.
        -11    1    5    5    0    0 -0.46176684377E+02  0.47213254892E+02  0.14674617233E+03  0.16092177202E+03  0.00000000000E+00 0.  1.
         12    1    5    5    0    0  0.21235936916E+02 -0.11096701970E+02  0.31168637648E+02  0.39313938802E+02  0.00000000000E+00 0. -1.
         11    1    3    3    0    0 -0.15962944401E+02  0.50958617060E+02 -0.91937390619E+02  0.10632064729E+03  0.00000000000E+00 0. -1.
        -12    1    3    3    0    0 -0.41577253317E+02  0.29251020791E+02 -0.34322936570E+03  0.34697361238E+03  0.00000000000E+00 0.  1.
          5    1    4    4  501    0  0.11300859520E+02 -0.10576168694E+03 -0.14826746718E+03  0.18252111679E+03  0.41800000000E+01 0. -1.
         -5    1    4    4    0  501  0.71180085659E+02 -0.10564503829E+02 -0.22361743108E+03  0.23494774147E+03  0.41800000000E+01 0. -1.
</event>
<event>
11    1  0.8453735E-009  0.1389686E+03  0.7561462E-02  0.1108716E+00
         22   -1    0    0    0    0  0.00000000000E+00  0.00000000000E+00  0.28225323332E+03  0.28225323332E+03  0.00000000000E+00 0. -1.
         22   -1    0    0    0    0 -0.00000000000E+00 -0.00000000000E+00 -0.43683236653E+03  0.43683236653E+03  0.00000000000E+00 0. -1.
         24    2    1    2    0    0  0.80949715126E+02  0.66910866869E+01 -0.37004439073E+03  0.38751205436E+03  0.81456209970E+02 0.  0.
         25    2    1    2    0    0  0.10698694831E+02 -0.20037924185E+02  0.83997415537E+02  0.15237338008E+03  0.12508437418E+03 0.  0.
        -24    2    1    2    0    0 -0.91648409957E+02  0.13346837499E+02  0.13146784199E+03  0.17920016541E+03  0.79065395007E+02 0.  0.
        -13    1    3    3    0    0 -0.70714270455E+01 -0.12993546671E+02 -0.14533042279E+02  0.20737566237E+02  0.00000000000E+00 0.  1.
         14    1    3    3    0    0  0.88021142171E+02  0.19684633358E+02 -0.35551134845E+03  0.36677448812E+03  0.00000000000E+00 0. -1.
         13    1    5    5    0    0  0.13325292027E+02 -0.63145505571E+01  0.12540063667E+02  0.19356914866E+02  0.00000000000E+00 0. -1.
        -14    1    5    5    0    0 -0.10497370198E+03  0.19661388056E+02  0.11892777832E+03  0.15984325055E+03  0.00000000000E+00 0.  1.
          5    1    4    4  501    0  0.61074094284E+02 -0.28540058893E+02  0.73924765964E+02  0.10013452640E+03  0.41800000000E+01 0.  1.
         -5    1    4    4    0  501 -0.50375399453E+02  0.85021347080E+01  0.10072649573E+02  0.52238853682E+02  0.41800000000E+01 0.  1.
</event>
<event>
11    1  0.8453735E-009  0.1500393E+03  0.7561462E-02  0.1096839E+00
         22   -1    0    0    0    0  0.00000000000E+00  0.00000000000E+00  0.12809104472E+04  0.12809104472E+04  0.00000000000E+00 0.  1.
         22   -1    0    0    0    0 -0.00000000000E+00 -0.00000000000E+00 -0.34318331485E+03  0.34318331485E+03  0.00000000000E+00 0.  1.
        -24    2    1    2    0    0  0.18030667678E+02 -0.70552680872E+01 -0.32336285139E+03  0.33357519354E+03  0.79586395220E+02 0.  0.
         25    2    1    2    0    0  0.23330459244E+02  0.79631529246E+02  0.56005525779E+03  0.57982254410E+03  0.12508716997E+03 0.  0.
         24    2    1    2    0    0 -0.41361126922E+02 -0.72576261159E+02  0.70103472594E+03  0.71069602439E+03  0.81615535385E+02 0.  0.
        -11    1    5    5    0    0 -0.30582610642E+02 -0.24410288322E+02  0.55827759481E+03  0.55964723810E+03  0.00000000000E+00 0.  1.
         12    1    5    5    0    0 -0.10778516280E+02 -0.48165972837E+02  0.14275713113E+03  0.15104878630E+03  0.00000000000E+00 0. -1.
         11    1    3    3    0    0  0.38110534856E+02 -0.31826540217E+02 -0.18117463519E+03  0.18785523672E+03  0.00000000000E+00 0. -1.
        -12    1    3    3    0    0 -0.20079867178E+02  0.24771272130E+02 -0.14218821620E+03  0.14571995682E+03  0.00000000000E+00 0.  1.
          5    1    4    4  501    0  0.33138159632E+02 -0.28858128842E+01  0.37996236198E+03  0.38143850679E+03  0.41800000000E+01 0. -1.
         -5    1    4    4    0  501 -0.98077003882E+01  0.82517342130E+02  0.18009289581E+03  0.19838403731E+03  0.41800000000E+01 0. -1.
</event>
<event>
11    1  0.8453735E-009  0.1317406E+03  0.7561462E-02  0.1117149E+00
         22   -1    0    0    0    0  0.00000000000E+00  0.00000000000E+00  0.36589356631E+03  0.36589356631E+03  0.00000000000E+00 0.  1.
         22   -1    0    0    0    0 -0.00000000000E+00 -0.00000000000E+00 -0.12358511258E+04  0.12358511258E+04  0.00000000000E+00 0. -1.
         24    2    1    2    0    0 -0.53692778621E+01  0.22438254842E+02 -0.79351911242E+03  0.79795181654E+03  0.80760233448E+02 0.  0.
         25    2    1    2    0    0 -0.34718229560E+02 -0.11832058518E+02 -0.42459349510E+03  0.44415403681E+03  0.12509124374E+03 0.  0.
        -24    2    1    2    0    0  0.40087507423E+02 -0.10606196324E+02  0.34815504802E+03  0.35963883877E+03  0.80054089467E+02 0.  0.
        -11    1    3    3    0    0 -0.26164316354E+02 -0.91336314406E+01 -0.60740617952E+03  0.60803804288E+03  0.00000000000E+00 0.  1.
         12    1    3    3    0    0  0.20795038492E+02  0.31571886282E+02 -0.18611293290E+03  0.18991377365E+03  0.00000000000E+00 0. -1.
         13    1    5    5    0    0  0.28796199107E+02  0.24634349445E+02  0.75425143049E+02  0.84409859966E+02  0.00000000000E+00 0. -1.
        -14    1    5    5    0    0  0.11291308316E+02 -0.35240545768E+02  0.27272990497E+03  0.27522897881E+03  0.00000000000E+00 0.  1.
          5    1    4    4  501    0 -0.47810367669E+02 -0.31492740704E+02 -0.78598077795E+02  0.97328075121E+02  0.41800000000E+01 0. -1.
         -5    1    4    4    0  501  0.13092138109E+02  0.19660682185E+02 -0.34599541730E+03  0.34682596169E+03  0.41800000000E+01 0. -1.
</event>
<event>
11    1  0.8453735E-009  0.1731980E+03  0.7561462E-02  0.1075282E+00
         22   -1    0    0    0    0  0.00000000000E+00  0.00000000000E+00  0.34623218277E+03  0.34623218277E+03  0.00000000000E+00 0. -1.
         22   -1    0    0    0    0 -0.00000000000E+00 -0.00000000000E+00 -0.11993155236E+04  0.11993155236E+04  0.00000000000E+00 0. -1.
         24    2    1    2    0    0  0.11480923313E+03 -0.37766934710E+02 -0.10489265590E+04  0.10590387645E+04  0.81906514886E+02 0.  0.
         25    2    1    2    0    0 -0.10897785717E+03  0.17929656076E+02 -0.89562175916E+02  0.18938440081E+03  0.12508965583E+03 0.  0.
        -24    2    1    2    0    0 -0.58313759571E+01  0.19837278634E+02  0.28540539409E+03  0.29712454105E+03  0.79995195795E+02 0.  0.
        -13    1    3    3    0    0  0.35478428065E+02 -0.50822458330E+02 -0.34367261408E+03  0.34921699099E+03  0.00000000000E+00 0.  1.
         14    1    3    3    0    0  0.79330805067E+02  0.13055523620E+02 -0.70525394494E+03  0.70982177354E+03  0.00000000000E+00 0. -1.
         13    1    5    5    0    0  0.32029630781E+02 -0.10161126270E+02  0.98318990541E+02  0.10390269311E+03  0.00000000000E+00 0. -1.
        -14    1    5    5    0    0 -0.37861006738E+02  0.29998404904E+02  0.18708640355E+03  0.19322184794E+03  0.00000000000E+00 0.  1.
          5    1    4    4  501    0  0.46058940121E+01 -0.12341478027E+02  0.22836537439E+02  0.26692811425E+02  0.41800000000E+01 0.  1.
         -5    1    4    4    0  501 -0.11358375119E+03  0.30271134104E+02 -0.11239871336E+03  0.16269158939E+03  0.41800000000E+01 0.  1.
</event>
<event>
11    1  0.8453735E-009  0.1441766E+03  0.7561462E-02  0.1102982E+00
         22   -1    0    0    0    0  0.00000000000E+00  0.00000000000E+00  0.79461047697E+03  0.79461047697E+03  0.00000000000E+00 0. -1.
         22   -1    0    0    0    0 -0.00000000000E+00 -0.00000000000E+00 -0.15521666682E+04  0.15521666682E+04  0.00000000000E+00 0. -1.
        -24    2    1    2    0    0  0.65022785458E+02 -0.30763512799E+02 -0.14894837507E+04  0.14933960497E+04  0.80595046257E+02 0.  0.
         25    2    1    2    0    0 -0.56743182025E+02  0.23228693237E+02  0.24895852591E+02  0.14151683690E+03  0.12509136963E+03 0.  0.
         24    2    1    2    0    0 -0.82796034330E+01  0.75348195624E+01  0.70703170680E+03  0.71186425859E+03  0.82046102247E+02 0.  0.
        -13    1    5    5    0    0 -0.23914581137E+02  0.37071955869E+02  0.27236927538E+03  0.27591893605E+03  0.00000000000E+00 0.  1.
         14    1    5    5    0    0  0.15634977704E+02 -0.29537136307E+02  0.43466243142E+03  0.43594532253E+03  0.00000000000E+00 0. -1.
         13    1    3    3    0    0  0.25826004738E+02 -0.80934896512E+01 -0.12072290366E+04  0.12075323739E+04  0.00000000000E+00 0. -1.
        -14    1    3    3    0    0  0.39196780720E+02 -0.22670023148E+02 -0.28225471402E+03  0.28586367582E+03  0.00000000000E+00 0.  1.
          5    1    4    4  501    0 -0.53062311720E+02  0.25466758092E+02  0.72533420314E+02  0.93502589030E+02  0.41800000000E+01 0.  1.
         -5    1    4    4    0  501 -0.36808703050E+01 -0.22380648553E+01 -0.47637567722E+02  0.48014247875E+02  0.41800000000E+01 0.  1.
</event>
<event>
11    1  0.8453735E-009  0.1450077E+03  0.7561462E-02  0.1102092E+00
         22   -1    0    0    0    0  0.00000000000E+00  0.00000000000E+00  0.16755909350E+03  0.16755909350E+03  0.00000000000E+00 0.  1.
         22   -1    0    0    0    0 -0.00000000000E+00 -0.00000000000E+00 -0.16089641327E+04  0.16089641327E+04  0.00000000000E+00 0. -1.
         24    2    1    2    0    0 -0.67032641643E+02  0.28400989161E+02 -0.14934996863E+04  0.14974591971E+04  0.80887222243E+02 0.  0.
         25    2    1    2    0    0  0.67559281103E+02 -0.90173903829E+02  0.92466406954E+01  0.16860770880E+03  0.12508984654E+03 0.  0.
        -24    2    1    2    0    0 -0.52663945992E+00  0.61772914668E+02  0.42848006495E+02  0.11045632023E+03  0.80922658642E+02 0.  0.
        -13    1    3    3    0    0 -0.17680918084E+02 -0.10566063898E+02 -0.81583559380E+02  0.84143530540E+02  0.00000000000E+00 0.  1.
         14    1    3    3    0    0 -0.49351723559E+02  0.38967053059E+02 -0.14119161270E+04  0.14133156666E+04  0.00000000000E+00 0. -1.
         13    1    5    5    0    0  0.38891705378E+02  0.35832282067E+02  0.32743283844E+02  0.62198390833E+02  0.00000000000E+00 0. -1.
        -14    1    5    5    0    0 -0.39418344838E+02  0.25940632602E+02  0.10104722651E+02  0.48257929394E+02  0.00000000000E+00 0.  1.
          5    1    4    4  501    0 -0.27541654799E+02 -0.52844795256E+02 -0.18719398738E+02  0.62601944250E+02  0.41800000000E+01 0. -1.
         -5    1    4    4    0  501  0.95100935902E+02 -0.37329108573E+02  0.27966039434E+02  0.10600576455E+03  0.41800000000E+01 0. -1.
</event>
<event>
11    1  0.8453735E-009  0.3006186E+03  0.7561462E-02  0.9999298E-01
         22   -1    0    0    0    0  0.00000000000E+00  0.00000000000E+00  0.30480133104E+03  0.30480133104E+03  0.00000000000E+00 0.  1.
         22   -1    0    0    0    0 -0.00000000000E+00 -0.00000000000E+00 -0.22205343885E+03  0.22205343885E+03  0.00000000000E+00 0. -1.
         24    2    1    2    0    0 -0.24755038751E+02  0.12440211951E+03 -0.14568892391E+02  0.15114273871E+03  0.80889897751E+02 0.  0.
         25    2    1    2    0    0 -0.20556494301E+02  0.72227905480E+02  0.35764661777E+02  0.15022215391E+03  0.12509254456E+03 0.  0.
        -24    2    1    2    0    0  0.45311533052E+02 -0.19663002499E+03  0.61552122804E+02  0.22548987726E+03  0.79627377033E+02 0.  0.
        -13    1    3    3    0    0 -0.75364041800E+01  0.24515549198E+02  0.30810203598E+02  0.40088379690E+02  0.00000000000E+00 0.  1.
         14    1    3    3    0    0 -0.17218634571E+02  0.99886570310E+02 -0.45379095989E+02  0.11105435902E+03  0.00000000000E+00 0. -1.
         11    1    5    5    0    0 -0.11787299276E+02 -0.11461425966E+03  0.18576271718E+02  0.11670666996E+03  0.00000000000E+00 0. -1.
        -12    1    5    5    0    0  0.57098832328E+02 -0.82015765325E+02  0.42975851085E+02  0.10878320731E+03  0.00000000000E+00 0.  1.
          5    1    4    4  501    0  0.33599479369E+02  0.34564706874E+02 -0.30040999441E+02  0.56952418935E+02  0.41800000000E+01 0. -1.
         -5    1    4    4    0  501 -0.54155973669E+02  0.37663198606E+02  0.65805661218E+02  0.93269734971E+02  0.41800000000E+01 0. -1.
</event>
<event>
11    1  0.8453735E-009  0.2077510E+03  0.7561462E-02  0.1049174E+00
         22   -1    0    0    0    0  0.00000000000E+00  0.00000000000E+00  0.51081025882E+03  0.51081025882E+03  0.00000000000E+00 0.  1.
         22   -1    0    0    0    0 -0.00000000000E+00 -0.00000000000E+00 -0.23919968441E+03  0.23919968441E+03  0.00000000000E+00 0.  1.
         24    2    1    2    0    0  0.15392455339E+03 -0.37273455667E+02 -0.89143996483E+02  0.19805831457E+03  0.78729697251E+02 0.  0.
         25    2    1    2    0    0 -0.16902563171E+03  0.85403914523E+02  0.57214689083E+02  0.23406251238E+03  0.12509295049E+03 0.  0.
        -24    2    1    2    0    0  0.15101078320E+02 -0.48130458855E+02  0.30353988181E+03  0.31788911628E+03  0.79827606513E+02 0.  0.
        -11    1    3    3    0    0  0.15615403128E+03 -0.17756345050E+02 -0.77616243482E+02  0.17528163203E+03  0.00000000000E+00 0.  1.
         12    1    3    3    0    0 -0.22294778901E+01 -0.19517110617E+02 -0.11527753001E+02  0.22776682545E+02  0.00000000000E+00 0. -1.
         13    1    5    5    0    0  0.62672411178E+01  0.77164744349E+01  0.86509909278E+00  0.99785111802E+01  0.00000000000E+00 0. -1.
        -14    1    5    5    0    0  0.88338372022E+01 -0.55846933290E+02  0.30267478272E+03  0.30791060510E+03  0.00000000000E+00 0.  1.
          5    1    4    4  501    0 -0.18720684007E+03  0.62495723451E+02  0.50553614273E+02  0.20377746866E+03  0.41800000000E+01 0.  1.
         -5    1    4    4    0  501  0.18181208356E+02  0.22908191071E+02  0.66610748097E+01  0.30285043719E+02  0.41800000000E+01 0.  1.
</event>
<event>
11    1  0.8453735E-009  0.1364220E+03  0.7561462E-02  0.1111621E+00
         22   -1    0    0    0    0  0.00000000000E+00  0.00000000000E+00  0.61206205665E+03  0.61206205665E+03  0.00000000000E+00 0. -1.
         22   -1    0    0    0    0 -0.00000000000E+00 -0.00000000000E+00 -0.35552436653E+03  0.35552436653E+03  0.00000000000E+00 0.  1.
        -24    2    1    2    0    0 -0.44268558816E+02  0.31403655111E+02 -0.31580875770E+03  0.33045507492E+03  0.80743360355E+02 0.  0.
         25    2    1    2    0    0  0.68127609660E+02 -0.35924896034E+01  0.15395658494E+03  0.20977560908E+03  0.12509555923E+03 0.  0.
         24    2    1    2    0    0 -0.23859050844E+02 -0.27811165507E+02  0.41838986289E+03  0.42735573918E+03  0.78994526459E+02 0.  0.
        -13    1    5    5    0    0 -0.15381295730E+02  0.26874269225E+02  0.12383322956E+03  0.12764591395E+03  0.00000000000E+00 0.  1.
         14    1    5    5    0    0 -0.84777551143E+01 -0.54685434732E+02  0.29455663333E+03  0.29970982523E+03  0.00000000000E+00 0. -1.
         13    1    3    3    0    0 -0.54453849364E+01 -0.20813003792E+02 -0.27608809314E+02  0.35001138491E+02  0.00000000000E+00 0. -1.
        -14    1    3    3    0    0 -0.38823173880E+02  0.52216658903E+02 -0.28819994839E+03  0.29545393642E+03  0.00000000000E+00 0.  1.
          5    1    4    4  501    0  0.10380085050E+02 -0.16998985802E+02 -0.18415086430E+02  0.27446301976E+02  0.41800000000E+01 0. -1.
         -5    1    4    4    0  501  0.57747524610E+02  0.13406496199E+02  0.17237167137E+03  0.18232930711E+03  0.41800000000E+01 0. -1.
</event>
<event>
11    1  0.8453735E-009  0.1942755E+03  0.7561462E-02  0.1058647E+00
         22   -1    0    0    0    0  0.00000000000E+00  0.00000000000E+00  0.19815457886E+04  0.19815457886E+04  0.00000000000E+00 0.  1.
         22   -1    0    0    0    0 -0.00000000000E+00 -0.00000000000E+00 -0.13788386086E+04  0.13788386086E+04  0.00000000000E+00 0.  1.
         24    2    1    2    0    0 -0.13355618024E+03  0.55892474757E+02 -0.98162088093E+03  0.99572778529E+03  0.83264917507E+02 0.  0.
         25    2    1    2    0    0  0.14827287188E+03 -0.69368329903E+02 -0.36203280214E+03  0.41654733031E+03  0.12508844406E+03 0.  0.
        -24    2    1    2    0    0 -0.14716691639E+02  0.13475855146E+02  0.19463608630E+04  0.19481092816E+04  0.80068621934E+02 0.  0.
        -13    1    3    3    0    0 -0.69428625500E+00 -0.32407542470E+01 -0.23783550895E+03  0.23785860052E+03  0.00000000000E+00 0.  1.
         14    1    3    3    0    0 -0.13286189399E+03  0.59133229004E+02 -0.74378537198E+03  0.75786918477E+03  0.00000000000E+00 0. -1.
         13    1    5    5    0    0 -0.42292847637E+02 -0.11237130995E+02  0.85326332293E+03  0.85438472384E+03  0.00000000000E+00 0. -1.
        -14    1    5    5    0    0  0.27576155998E+02  0.24712986141E+02  0.10930975401E+04  0.10937245578E+04  0.00000000000E+00 0.  1.
          5    1    4    4  501    0  0.15240691096E+02  0.25141678706E+02 -0.15515494491E+02  0.33505009216E+02  0.41800000000E+01 0. -1.
         -5    1    4    4    0  501  0.13303218078E+03 -0.94510008609E+02 -0.34651730765E+03  0.38304232110E+03  0.41800000000E+01 0. -1.
</event>
<event>
11    1  0.8453735E-009  0.1396998E+03  0.7561462E-02  0.1107894E+00
         22   -1    0    0    0    0  0.00000000000E+00  0.00000000000E+00  0.34841855395E+03  0.34841855395E+03  0.00000000000E+00 0. -1.
         22   -1    0    0    0    0 -0.00000000000E+00 -0.00000000000E+00 -0.73672877881E+03  0.73672877881E+03  0.00000000000E+00 0. -1.
        -24    2    1    2    0    0 -0.51906998898E+02  0.35481253062E+02 -0.61834303609E+03  0.62644708646E+03  0.78323598017E+02 0.  0.
         25    2    1    2    0    0  0.48307747114E+02 -0.26943974249E+02 -0.65686053403E+02  0.15172587365E+03  0.12508583830E+03 0.  0.
         24    2    1    2    0    0  0.35992517840E+01 -0.85372788132E+01  0.29571886463E+03  0.30697437264E+03  0.81839958567E+02 0.  0.
        -11    1    5    5    0    0  0.20047488696E+01 -0.32720538785E+02  0.48316805744E+02  0.58388067220E+02  0.00000000000E+00 0.  1.
         12    1    5    5    0    0  0.15945029143E+01  0.24183259972E+02  0.24740205889E+03  0.24858630542E+03  0.00000000000E+00 0. -1.
         13    1    3    3    0    0 -0.72670372269E+02  0.25826391994E+02 -0.49938750413E+03  0.50530769320E+03  0.00000000000E+00 0. -1.
        -14    1    3    3    0    0  0.20763373371E+02  0.96548610688E+01 -0.11895553196E+03  0.12113939326E+03  0.00000000000E+00 0.  1.
          5    1    4    4  501    0 -0.10866349305E+02  0.39847266113E+02 -0.42551577945E+02  0.59447383033E+02  0.41800000000E+01 0.  1.
         -5    1    4    4    0  501  0.59174096419E+02 -0.66791240362E+02 -0.23134475458E+02  0.92278490618E+02  0.41800000000E+01 0.  1.
</event>
<event>
11    1  0.8453735E-009  0.1593992E+03  0.7561462E-02  0.1087644E+00
         22   -1    0    0    0    0  0.00000000000E+00  0.00000000000E+00  0.23865554123E+03  0.23865554123E+03  0.00000000000E+00 0. -1.
         22   -1    0    0    0    0 -0.00000000000E+00 -0.00000000000E+00 -0.10628835433E+04  0.10628835433E+04  0.00000000000E+00 0.  1.
         24    2    1    2    0    0  0.73157795829E+02 -0.19179093851E+02 -0.95095004977E+03  0.95736714928E+03  0.80783417956E+02 0.  0.
         25    2    1    2    0    0 -0.14076065038E+03 -0.34141313023E+02  0.31440334475E+02  0.19394547115E+03  0.12508861338E+03 0.  0.
        -24    2    1    2    0    0  0.67602854554E+02  0.53320406874E+02  0.95281713219E+02  0.15022646410E+03  0.77949816612E+02 0.  0.
        -11    1    3    3    0    0  0.52142489709E+02  0.69816617220E+01 -0.83509256679E+03  0.83674797756E+03  0.00000000000E+00 0.  1.
         12    1    3    3    0    0  0.21015306119E+02 -0.26160755573E+02 -0.11585748298E+03  0.12061917172E+03  0.00000000000E+00 0. -1.
         11    1    5    5    0    0  0.65271881156E+02  0.67208406571E+02  0.98331451665E+02  0.13581775572E+03  0.00000000000E+00 0. -1.
        -12    1    5    5    0    0  0.23309733983E+01 -0.13887999697E+02 -0.30497384460E+01  0.14408708379E+02  0.00000000000E+00 0.  1.
          5    1    4    4  501    0 -0.11443382995E+03 -0.20907940062E+02  0.76971734655E+02  0.13955057768E+03  0.41800000000E+01 0. -1.
         -5    1    4    4    0  501 -0.26326820438E+02 -0.13233372962E+02 -0.45531400180E+02  0.54394893480E+02  0.41800000000E+01 0. -1.
</event>
<event>
11    1  0.8453735E-009  0.2254691E+03  0.7561462E-02  0.1037845E+00
         22   -1    0    0    0    0  0.00000000000E+00  0.00000000000E+00  0.16237704948E+03  0.16237704948E+03  0.00000000000E+00 0. -1.
         22   -1    0    0    0    0 -0.00000000000E+00 -0.00000000000E+00 -0.90956169415E+03  0.90956169415E+03  0.00000000000E+00 0. -1.
        -24    2    1    2    0    0 -0.15703794901E+03 -0.12597409570E+03 -0.50045216232E+03  0.54522626506E+03  0.79302730861E+02 0.  0.
         25    2    1    2    0    0  0.20820321973E+03 -0.64425527545E+02 -0.14144075656E+03  0.28834270696E+03  0.12504719002E+03 0.  0.
         24    2    1    2    0    0 -0.51165270723E+02  0.19039962325E+03 -0.10529172578E+03  0.23836977162E+03  0.82848651416E+02 0.  0.
        -11    1    5    5    0    0 -0.60019399482E+02  0.10416412644E+03 -0.30872622280E+02  0.12411934723E+03  0.00000000000E+00 0.  1.
         12    1    5    5    0    0  0.88541287589E+01  0.86235496812E+02 -0.74419103504E+02  0.11425042439E+03  0.00000000000E+00 0. -1.
         11    1    3    3    0    0 -0.12198483609E+03 -0.95803112716E+02 -0.28112662310E+03  0.32107742813E+03  0.00000000000E+00 0. -1.
        -12    1    3    3    0    0 -0.35053112913E+02 -0.30170982989E+02 -0.21932553923E+03  0.22414883693E+03  0.00000000000E+00 0.  1.
          5    1    4    4  501    0  0.38248454140E+02 -0.43212670983E+02  0.11141792014E+02  0.58922755425E+02  0.41800000000E+01 0. -1.
         -5    1    4    4    0  501  0.16995476559E+03 -0.21212856562E+02 -0.15258254858E+03  0.22941995153E+03  0.41800000000E+01 0. -1.
</event>
<event>
11    1  0.8453735E-009  0.2948796E+03  0.7561462E-02  0.1002382E+00
         22   -1    0    0    0    0  0.00000000000E+00  0.00000000000E+00  0.29776219845E+04  0.29776219845E+04  0.00000000000E+00 0. -1.
         22   -1    0    0    0    0 -0.00000000000E+00 -0.00000000000E+00 -0.17742969733E+04  0.17742969733E+04  0.00000000000E+00 0.  1.
        -24    2    1    2    0    0 -0.59559910798E+02  0.46745490976E+02 -0.16628792841E+04  0.16666223209E+04  0.82036107357E+02 0.  0.
         25    2    1    2    0    0 -0.39832761958E+02 -0.29306955711E+03  0.14908867640E+03  0.35405986216E+03  0.12511809753E+03 0.  0.
         24    2    1    2    0    0  0.99392672756E+02  0.24632406614E+03  0.27171156190E+04  0.27312367748E+04  0.79891076658E+02 0.  0.
        -11    1    5    5    0    0  0.60092715398E+02  0.54745204305E+02  0.87576760288E+03  0.87953229963E+03  0.00000000000E+00 0.  1.
         12    1    5    5    0    0  0.39299957358E+02  0.19157886183E+03  0.18413480161E+04  0.18517044752E+04  0.00000000000E+00 0. -1.
         13    1    3    3    0    0 -0.24469151002E+01  0.82663560483E+01 -0.14971176257E+02  0.17275883605E+02  0.00000000000E+00 0. -1.
        -14    1    3    3    0    0 -0.57112995698E+02  0.38479134928E+02 -0.16479081079E+04  0.16493464373E+04  0.00000000000E+00 0.  1.
          5    1    4    4  501    0 -0.15779851525E+02 -0.26214739949E+03  0.16650405462E+03  0.31098446163E+03  0.41800000000E+01 0. -1.
         -5    1    4    4    0  501 -0.24052910433E+02 -0.30922157626E+02 -0.17415378214E+02  0.43075400530E+02  0.41800000000E+01 0. -1.
</event>
<event>
11    1  0.8453735E-009  0.1531600E+03  0.7561462E-02  0.1093693E+00
         22   -1    0    0    0    0  0.00000000000E+00  0.00000000000E+00  0.19132185519E+03  0.19132185519E+03  0.00000000000E+00 0. -1.
         22   -1    0    0    0    0 -0.00000000000E+00 -0.00000000000E+00 -0.12841853509E+04  0.12841853509E+04  0.00000000000E+00 0. -1.
        -24    2    1    2    0    0  0.26151147416E+01  0.64843763490E+02 -0.11722420280E+04  0.11784221988E+04  0.10156748510E+03 0.  0.
         25    2    1    2    0    0  0.84605107647E+02 -0.24167949404E+02  0.89218763793E+01  0.15320482707E+03  0.12509998058E+03 0.  0.
         24    2    1    2    0    0 -0.87220222389E+02 -0.40675814086E+02  0.70456655895E+02  0.14388018018E+03  0.80470347614E+02 0.  0.
        -11    1    5    5    0    0  0.13376756776E+02 -0.11887951034E+02  0.29286501859E+00  0.17898233755E+02  0.00000000000E+00 0.  1.
         12    1    5    5    0    0 -0.10059697916E+03 -0.28787863051E+02  0.70163790876E+02  0.12598194643E+03  0.00000000000E+00 0. -1.
         13    1    3    3    0    0 -0.49277267095E+01  0.62119629457E+02 -0.11673837150E+04  0.11690457086E+04  0.00000000000E+00 0. -1.
        -14    1    3    3    0    0  0.75428414511E+01  0.27241340333E+01 -0.48583130157E+01  0.93764902147E+01  0.00000000000E+00 0.  1.
          5    1    4    4  501    0 -0.88548644431E+01  0.32695805593E+02 -0.20534885903E+02  0.39831875009E+02  0.41800000000E+01 0.  1.
         -5    1    4    4    0  501  0.93459972090E+02 -0.56863754997E+02  0.29456762282E+02  0.11337295206E+03  0.41800000000E+01 0.  1.
</event>
<event>
11    1  0.9368600E-009  0.1655126E+03  0.7561462E-02  0.1082004E+00
         22   -1    0    0    0    0  0.00000000000E+00  0.00000000000E+00  0.84344554592E+03  0.84344554592E+03  0.00000000000E+00 0.  1.
         22   -1    0    0    0    0 -0.00000000000E+00 -0.00000000000E+00 -0.41102476655E+03  0.41102476655E+03  0.00000000000E+00 0. -1.
        -24    2    1    2    0    0 -0.76067005921E+02 -0.64636093741E+02 -0.13389617170E+03  0.18562791063E+03  0.81027911276E+02 0.  0.
         25    2    1    2    0    0  0.17692783976E+03  0.97994667660E+02 -0.18783159979E+03  0.30304244252E+03  0.12509035420E+03 0.  0.
         24    2    1    2    0    0 -0.10086083383E+03 -0.33358573919E+02  0.75414855086E+03  0.76579995932E+03  0.80148853271E+02 0.  0.
        -13    1    5    5    0    0 -0.86058868331E+02 -0.39782506382E+02  0.73346330217E+03  0.73956554292E+03  0.00000000000E+00 0.  1.
         14    1    5    5    0    0 -0.14801965503E+02  0.64239324634E+01  0.20685248685E+02  0.26234416407E+02  0.00000000000E+00 0. -1.
         13    1    3    3    0    0 -0.49203458812E+02 -0.58506337830E+02 -0.13801050371E+03  0.15776840958E+03  0.00000000000E+00 0. -1.
        -14    1    3    3    0    0 -0.26863547109E+02 -0.61297559105E+01  0.41143320190E+01  0.27859501050E+02  0.00000000000E+00 0.  1.
          5    1    4    4  501    0  0.44009056940E+02  0.56582251586E+02 -0.13717823214E+03  0.15483438914E+03  0.41800000000E+01 0. -1.
         -5    1    4    4    0  501  0.13291878282E+03  0.41412416074E+02 -0.50653367648E+02  0.14820805337E+03  0.41800000000E+01 0. -1.
</event>
<event>
11    1  0.8453735E-009  0.1715718E+03  0.7561462E-02  0.1076672E+00
         22   -1    0    0    0    0  0.00000000000E+00  0.00000000000E+00  0.85796754163E+02  0.85796754163E+02  0.00000000000E+00 0.  1.
         22   -1    0    0    0    0 -0.00000000000E+00 -0.00000000000E+00 -0.11521663722E+04  0.11521663722E+04  0.00000000000E+00 0. -1.
        -24    2    1    2    0    0 -0.76379268986E+02  0.82204158955E+02 -0.86224856531E+03  0.87325508233E+03  0.80687879922E+02 0.  0.
         25    2    1    2    0    0  0.11704382305E+03 -0.11736446647E+03 -0.16060545698E+03  0.26252044887E+03  0.12509675759E+03 0.  0.
         24    2    1    2    0    0 -0.40664554059E+02  0.35160307510E+02 -0.43515595789E+02  0.10218759520E+03  0.75225290665E+02 0.  0.
        -11    1    5    5    0    0 -0.51773443357E+02  0.17567963652E+02 -0.80508380509E+00  0.54678797937E+02  0.00000000000E+00 0.  1.
         12    1    5    5    0    0  0.11108889297E+02  0.17592343858E+02 -0.42710511983E+02  0.47508797267E+02  0.00000000000E+00 0. -1.
         13    1    3    3    0    0 -0.69399803594E+01  0.18489286891E+02 -0.44744697596E+03  0.44788258881E+03  0.00000000000E+00 0. -1.
        -14    1    3    3    0    0 -0.69439288627E+02  0.63714872064E+02 -0.41480158934E+03  0.42537249353E+03  0.00000000000E+00 0.  1.
          5    1    4    4  501    0  0.13310189377E+03 -0.12793704141E+03 -0.15727952926E+03  0.24256612173E+03  0.41800000000E+01 0.  1.
         -5    1    4    4    0  501 -0.16058070720E+02  0.10572574941E+02 -0.33259277190E+01  0.19954327133E+02  0.41800000000E+01 0.  1.
</event>
<event>
11    1  0.8453735E-009  0.2364564E+03  0.7561462E-02  0.1031372E+00
         22   -1    0    0    0    0  0.00000000000E+00  0.00000000000E+00  0.68070232855E+03  0.68070232855E+03  0.00000000000E+00 0. -1.
         22   -1    0    0    0    0 -0.00000000000E+00 -0.00000000000E+00 -0.43296264174E+03  0.43296264174E+03  0.00000000000E+00 0. -1.
        -24    2    1    2    0    0  0.10848224282E+01  0.12939461658E+02 -0.32067323478E+03  0.33141505892E+03  0.82680174552E+02 0.  0.
         25    2    1    2    0    0 -0.20151341060E+03 -0.13806908206E+02  0.83259303740E+02  0.25172412100E+03  0.12503853832E+03 0.  0.
         24    2    1    2    0    0  0.20042858818E+03  0.86744654745E+00  0.48515361785E+03  0.53052579037E+03  0.76884393230E+02 0.  0.
        -13    1    5    5    0    0  0.10194044572E+03 -0.17184101937E+02  0.16164056564E+03  0.19187188511E+03  0.00000000000E+00 0.  1.
         14    1    5    5    0    0  0.98488142452E+02  0.18051548485E+02  0.32351305220E+03  0.33865390527E+03  0.00000000000E+00 0. -1.
         13    1    3    3    0    0 -0.31051180966E+02  0.39351744517E+01 -0.26241268747E+03  0.26427273787E+03  0.00000000000E+00 0. -1.
        -14    1    3    3    0    0  0.32136003395E+02  0.90042872068E+01 -0.58260547315E+02  0.67142321048E+02  0.00000000000E+00 0.  1.
          5    1    4    4  501    0 -0.38968339073E+02  0.28321911527E+02 -0.22396666562E+02  0.53289259666E+02  0.41800000000E+01 0.  1.
         -5    1    4    4    0  501 -0.16254507153E+03 -0.42128819733E+02  0.10565597030E+03  0.19843486133E+03  0.41800000000E+01 0.  1.
</event>
<event>
11    1  0.8453735E-009  0.1981613E+03  0.7561462E-02  0.1055832E+00
         22   -1    0    0    0    0  0.00000000000E+00  0.00000000000E+00  0.25285484684E+04  0.25285484684E+04  0.00000000000E+00 0.  1.
         22   -1    0    0    0    0 -0.00000000000E+00 -0.00000000000E+00 -0.22700329038E+03  0.22700329038E+03  0.00000000000E+00 0.  1.
        -24    2    1    2    0    0 -0.13986986866E+03 -0.61199365235E+02 -0.18083310790E+03  0.24945319350E+03  0.78850113321E+02 0.  0.
         25    2    1    2    0    0  0.16711749993E+03  0.10305834720E+03  0.13624369549E+04  0.13821831758E+04  0.12508634515E+03 0.  0.
         24    2    1    2    0    0 -0.27247631270E+02 -0.41858981966E+02  0.11199413311E+04  0.11239153895E+04  0.80141187509E+02 0.  0.
        -13    1    5    5    0    0 -0.51748238549E+02 -0.93480128329E+01  0.54333735329E+03  0.54587612608E+03  0.00000000000E+00 0.  1.
         14    1    5    5    0    0  0.24500607279E+02 -0.32510969133E+02  0.57660397781E+03  0.57803926346E+03  0.00000000000E+00 0. -1.
         11    1    3    3    0    0  0.76635771252E+01 -0.31663232072E+01  0.83810726675E+00  0.83341730721E+01  0.00000000000E+00 0. -1.
        -12    1    3    3    0    0 -0.14753344579E+03 -0.58033042028E+02 -0.18167121516E+03  0.24111902043E+03  0.00000000000E+00 0.  1.
          5    1    4    4  501    0 -0.11038698445E+02 -0.59719125362E+01  0.22842996948E+02  0.26396808752E+02  0.41800000000E+01 0. -1.
         -5    1    4    4    0  501  0.17815619838E+03  0.10903025974E+03  0.13395939579E+04  0.13557863670E+04  0.41800000000E+01 0. -1.
</event>
<event>
11    1  0.8453735E-009  0.1760535E+03  0.7561462E-02  0.1072881E+00
         22   -1    0    0    0    0  0.00000000000E+00  0.00000000000E+00  0.24248765811E+03  0.24248765811E+03  0.00000000000E+00 0. -1.
         22   -1    0    0    0    0 -0.00000000000E+00 -0.00000000000E+00 -0.74674624085E+03  0.74674624085E+03  0.00000000000E+00 0. -1.
        -24    2    1    2    0    0  0.67346648120E+02 -0.10283438980E+03 -0.58871529914E+03  0.60667550325E+03  0.79743213231E+02 0.  0.
         25    2    1    2    0    0 -0.70752787750E+02  0.10916421991E+03 -0.81788394317E+02  0.19814166131E+03  0.12509193667E+03 0.  0.
         24    2    1    2    0    0  0.34061396293E+01 -0.63298301081E+01  0.16624511072E+03  0.18441673440E+03  0.79501110368E+02 0.  0.
        -11    1    5    5    0    0  0.15523820480E+02 -0.67761749667E+01 -0.77597438619E+00  0.16956051596E+02  0.00000000000E+00 0.  1.
         12    1    5    5    0    0 -0.12117680851E+02  0.44634485852E+00  0.16702108511E+03  0.16746068280E+03  0.00000000000E+00 0. -1.
         11    1    3    3    0    0  0.50205829010E+02 -0.11458335691E+03 -0.52295343376E+03  0.53770834550E+03  0.00000000000E+00 0. -1.
        -12    1    3    3    0    0  0.17140819111E+02  0.11748967111E+02 -0.65761865388E+02  0.68967157744E+02  0.00000000000E+00 0.  1.
          5    1    4    4  501    0  0.14575670967E+02  0.28580741917E+02 -0.73622824355E+02  0.80418291816E+02  0.41800000000E+01 0. -1.
         -5    1    4    4    0  501 -0.85328458716E+02  0.80583477990E+02 -0.81655699616E+01  0.11772336949E+03  0.41800000000E+01 0. -1.
</event>
<event>
11    1  0.8453735E-009  0.1548368E+03  0.7561462E-02  0.1092036E+00
         22   -1    0    0    0    0  0.00000000000E+00  0.00000000000E+00  0.78016651681E+03  0.78016651681E+03  0.00000000000E+00 0. -1.
         22   -1    0    0    0    0 -0.00000000000E+00 -0.00000000000E+00 -0.12519291863E+03  0.12519291863E+03  0.00000000000E+00 0.  1.
         24    2    1    2    0    0 -0.86358009849E+02  0.14551770514E+02 -0.52637028288E+02  0.13037671898E+03  0.80981307813E+02 0.  0.
         25    2    1    2    0    0  0.12152005620E+03  0.26882986593E+02  0.24202823208E+03  0.29952455778E+03  0.12508987394E+03 0.  0.
        -24    2    1    2    0    0 -0.35162046354E+02 -0.41434757106E+02  0.46558239439E+03  0.47545815869E+03  0.79625913467E+02 0.  0.
        -11    1    3    3    0    0 -0.97019001386E+02 -0.43889650391E+00 -0.30728968896E+02  0.10177007807E+03  0.00000000000E+00 0.  1.
         12    1    3    3    0    0  0.10660991537E+02  0.14990667018E+02 -0.21908059391E+02  0.28606640916E+02  0.00000000000E+00 0. -1.
         11    1    5    5    0    0 -0.14245863573E+02 -0.44015472419E+02  0.43948749404E+03  0.44191578820E+03  0.00000000000E+00 0. -1.
        -12    1    5    5    0    0 -0.20916182782E+02  0.25807153129E+01  0.26094900348E+02  0.33542370486E+02  0.00000000000E+00 0.  1.
          5    1    4    4  501    0  0.49161695832E+02 -0.40600510935E+02  0.42406206758E+02  0.76687890810E+02  0.41800000000E+01 0. -1.
         -5    1    4    4    0  501  0.72358360371E+02  0.67483497527E+02  0.19962202532E+03  0.22283666697E+03  0.41800000000E+01 0. -1.
</event>
<event>
11    1  0.8453735E-009  0.1345956E+03  0.7561462E-02  0.1113748E+00
         22   -1    0    0    0    0  0.00000000000E+00  0.00000000000E+00  0.32410283258E+03  0.32410283258E+03  0.00000000000E+00 0.  1.
         22   -1    0    0    0    0 -0.00000000000E+00 -0.00000000000E+00 -0.62789057019E+03  0.62789057019E+03  0.00000000000E+00 0.  1.
        -24    2    1    2    0    0 -0.18617751267E+02 -0.47602090297E+02 -0.50967899349E+03  0.51838601649E+03  0.79616619050E+02 0.  0.
         25    2    1    2    0    0  0.42974596186E+02  0.20736451187E+02 -0.65085459248E+02  0.14886260682E+03  0.12508853815E+03 0.  0.
         24    2    1    2    0    0 -0.24356844919E+02  0.26865639110E+02  0.27097671512E+03  0.28474477946E+03  0.79600193670E+02 0.  0.
        -11    1    5    5    0    0  0.11767264991E+02  0.45081700429E+02  0.13101239858E+03  0.13905062683E+03  0.00000000000E+00 0.  1.
         12    1    5    5    0    0 -0.36124109910E+02 -0.18216061319E+02  0.13996431654E+03  0.14569415263E+03  0.00000000000E+00 0. -1.
         11    1    3    3    0    0 -0.12852433200E+02 -0.20295852998E+02 -0.32619863791E+02  0.40511260185E+02  0.00000000000E+00 0. -1.
        -12    1    3    3    0    0 -0.57653180666E+01 -0.27306237299E+02 -0.47705912970E+03  0.47787475631E+03  0.00000000000E+00 0.  1.
          5    1    4    4  501    0  0.82709999952E+02 -0.98162449790E+01 -0.44392883725E+02  0.94474881757E+02  0.41800000000E+01 0. -1.
         -5    1    4    4    0  501 -0.39735403766E+02  0.30552696166E+02 -0.20692575523E+02  0.54387725060E+02  0.41800000000E+01 0. -1.
</event>
<event>
11    1  0.8453735E-009  0.1453718E+03  0.7561462E-02  0.1101704E+00
         22   -1    0    0    0    0  0.00000000000E+00  0.00000000000E+00  0.10324129731E+04  0.10324129731E+04  0.00000000000E+00 0. -1.
         22   -1    0    0    0    0 -0.00000000000E+00 -0.00000000000E+00 -0.86054078411E+02  0.86054078411E+02  0.00000000000E+00 0.  1.
        -24    2    1    2    0    0 -0.67941705411E+02  0.17672427187E+02  0.10273726658E+02  0.10691510058E+03  0.79980617999E+02 0.  0.
         25    2    1    2    0    0  0.61214157794E+02 -0.82275604032E+02  0.15612025326E+03  0.22480862591E+03  0.12509571005E+03 0.  0.
         24    2    1    2    0    0  0.67275476169E+01  0.64603176844E+02  0.77996491479E+03  0.78674332504E+03  0.80006005014E+02 0.  0.
        -11    1    5    5    0    0 -0.99532106445E+01  0.70085528765E+02  0.38927439624E+03  0.39565844274E+03  0.00000000000E+00 0.  1.
         12    1    5    5    0    0  0.16680758261E+02 -0.54823519206E+01  0.39069051856E+03  0.39108488231E+03  0.00000000000E+00 0. -1.
         13    1    3    3    0    0 -0.37040841735E+02  0.28149298769E+02  0.41062991368E+02  0.62053011511E+02  0.00000000000E+00 0. -1.
        -14    1    3    3    0    0 -0.30900863676E+02 -0.10476871581E+02 -0.30789264710E+02  0.44862089067E+02  0.00000000000E+00 0.  1.
          5    1    4    4  501    0  0.40170978156E+02 -0.11526625159E+03  0.11239912077E+03  0.16598509268E+03  0.41800000000E+01 0.  1.
         -5    1    4    4    0  501  0.21043179638E+02  0.32990647559E+02  0.43721132494E+02  0.58823533235E+02  0.41800000000E+01 0.  1.
</event>
<event>
11    1  0.8453735E-009  0.1461719E+03  0.7561462E-02  0.1100856E+00
         22   -1    0    0    0    0  0.00000000000E+00  0.00000000000E+00  0.19619239587E+04  0.19619239587E+04  0.00000000000E+00 0.  1.
         22   -1    0    0    0    0 -0.00000000000E+00 -0.00000000000E+00 -0.24852908785E+03  0.24852908785E+03  0.00000000000E+00 0. -1.
        -24    2    1    2    0    0 -0.39245926488E+02  0.28073240165E+02 -0.21387248773E+03  0.23398394478E+03  0.81723288280E+02 0.  0.
         25    2    1    2    0    0 -0.10355681401E+02  0.33449407143E+02  0.16227718322E+03  0.20786520057E+03  0.12509178406E+03 0.  0.
         24    2    1    2    0    0  0.49601607889E+02 -0.61522647307E+02  0.17649901754E+04  0.17686039012E+04  0.80771805412E+02 0.  0.
        -13    1    5    5    0    0  0.57983946035E+02 -0.76229591517E+02  0.15425920653E+04  0.15455624765E+04  0.00000000000E+00 0.  1.
         14    1    5    5    0    0 -0.83823381464E+01  0.14706944210E+02  0.22239811004E+03  0.22304142474E+03  0.00000000000E+00 0. -1.
         11    1    3    3    0    0 -0.10098558827E+02  0.53577720004E+02 -0.10297578175E+03  0.11651851612E+03  0.00000000000E+00 0. -1.
        -12    1    3    3    0    0 -0.29147367661E+02 -0.25504479839E+02 -0.11089670598E+03  0.11746542866E+03  0.00000000000E+00 0.  1.
          5    1    4    4  501    0  0.94042192088E+01  0.22782743935E+01  0.16966750314E+03  0.16999459961E+03  0.41800000000E+01 0.  1.
         -5    1    4    4    0  501 -0.19759900610E+02  0.31171132749E+02 -0.73903199207E+01  0.37870600966E+02  0.41800000000E+01 0.  1.
</event>
<event>
11    1  0.8453735E-009  0.5744258E+03  0.7561462E-02  0.9241048E-01
         22   -1    0    0    0    0  0.00000000000E+00  0.00000000000E+00  0.25928166061E+03  0.25928166061E+03  0.00000000000E+00 0.  1.
         22   -1    0    0    0    0 -0.00000000000E+00 -0.00000000000E+00 -0.18569894243E+04  0.18569894243E+04  0.00000000000E+00 0.  1.
        -24    2    1    2    0    0 -0.33515091944E+02 -0.55722553004E+03 -0.11976516986E+04  0.13237947033E+04  0.80245078820E+02 0.  0.
         25    2    1    2    0    0  0.92128138476E+02  0.56152553844E+03 -0.35429349095E+03  0.68188882014E+03  0.12509980450E+03 0.  0.
         24    2    1    2    0    0 -0.58613046532E+02 -0.43000083963E+01 -0.45762574101E+02  0.11058756141E+03  0.81739930599E+02 0.  0.
        -11    1    5    5    0    0 -0.30251635963E+02 -0.42880373582E+02 -0.19563962735E+02  0.56005683237E+02  0.00000000000E+00 0.  1.
         12    1    5    5    0    0 -0.28361410569E+02  0.38580365186E+02 -0.26198611367E+02  0.54581878173E+02  0.00000000000E+00 0. -1.
         11    1    3    3    0    0 -0.57313553111E+02 -0.28612425041E+03 -0.61431626477E+03  0.68010028908E+03  0.00000000000E+00 0. -1.
        -12    1    3    3    0    0  0.23798461166E+02 -0.27110127963E+03 -0.58333543386E+03  0.64369441427E+03  0.00000000000E+00 0.  1.
          5    1    4    4  501    0  0.24543569511E+02  0.21343334876E+02 -0.45232024280E+02  0.55868892672E+02  0.41800000000E+01 0. -1.
         -5    1    4    4    0  501  0.67584568965E+02  0.54018220356E+03 -0.30906146667E+03  0.62601992747E+03  0.41800000000E+01 0. -1.
</event>
<event>
11    1  0.8453735E-009  0.3613829E+03  0.7561462E-02  0.9771117E-01
         22   -1    0    0    0    0  0.00000000000E+00  0.00000000000E+00  0.66748311202E+03  0.66748311202E+03  0.00000000000E+00 0. -1.
         22   -1    0    0    0    0 -0.00000000000E+00 -0.00000000000E+00 -0.13260550736E+04  0.13260550736E+04  0.00000000000E+00 0. -1.
        -24    2    1    2    0    0  0.20481798979E+02 -0.75583656229E+02 -0.35481416725E+03  0.37220137638E+03  0.80674519608E+02 0.  0.
         25    2    1    2    0    0 -0.84576562120E+02  0.40447375007E+03 -0.86268280724E+03  0.96468734280E+03  0.12509130303E+03 0.  0.
         24    2    1    2    0    0  0.64094763142E+02 -0.32889009384E+03  0.55892501286E+03  0.65664946649E+03  0.80712572435E+02 0.  0.
        -13    1    5    5    0    0  0.56498212673E+01 -0.49960014136E+02  0.38585231968E+02  0.63377784900E+02  0.00000000000E+00 0.  1.
         14    1    5    5    0    0  0.58444941874E+02 -0.27893007971E+03  0.52033978090E+03  0.59327168159E+03  0.00000000000E+00 0. -1.
         11    1    3    3    0    0  0.44892311850E+01 -0.75811555248E+02 -0.34538235113E+03  0.35363330383E+03  0.00000000000E+00 0. -1.
        -12    1    3    3    0    0  0.15992567794E+02  0.22789901904E+00 -0.94318161187E+01  0.18568072541E+02  0.00000000000E+00 0.  1.
          5    1    4    4  501    0 -0.69519029455E+02  0.12989262546E+03 -0.40184990204E+03  0.42802547328E+03  0.41800000000E+01 0.  1.
         -5    1    4    4    0  501 -0.15057532665E+02  0.27458112462E+03 -0.46083290519E+03  0.53666186952E+03  0.41800000000E+01 0.  1.
</event>
<event>
11    1  0.8453735E-009  0.1532592E+03  0.7561462E-02  0.1093594E+00
         22   -1    0    0    0    0  0.00000000000E+00  0.00000000000E+00  0.14521081904E+03  0.14521081904E+03  0.00000000000E+00 0. -1.
         22   -1    0    0    0    0 -0.00000000000E+00 -0.00000000000E+00 -0.10478467344E+04  0.10478467344E+04  0.00000000000E+00 0.  1.
        -24    2    1    2    0    0 -0.79924904847E+02 -0.20858358776E+02 -0.54796437903E+03  0.56030888702E+03  0.82813203302E+02 0.  0.
         25    2    1    2    0    0  0.89876749014E+02  0.53500715229E+02 -0.46442610643E+03  0.49221829232E+03  0.12508829847E+03 0.  0.
         24    2    1    2    0    0 -0.99518441664E+01 -0.32642356453E+02  0.10975457008E+03  0.14053037412E+03  0.80858875572E+02 0.  0.
        -11    1    5    5    0    0 -0.42066491917E+02 -0.30068882361E+02  0.46488921100E+02  0.69533784692E+02  0.00000000000E+00 0.  1.
         12    1    5    5    0    0  0.32114647750E+02 -0.25734740920E+01  0.63265648979E+02  0.70996589423E+02  0.00000000000E+00 0. -1.
         13    1    3    3    0    0 -0.32149912302E+02  0.24316525284E+02 -0.10465230899E+03  0.11214729617E+03  0.00000000000E+00 0. -1.
        -14    1    3    3    0    0 -0.47774992545E+02 -0.45174884060E+02 -0.44331207004E+03  0.44816159085E+03  0.00000000000E+00 0.  1.
          5    1    4    4  501    0  0.11380667680E+03  0.12222175199E+02 -0.34636508936E+03  0.36481171689E+03  0.41800000000E+01 0.  1.
         -5    1    4    4    0  501 -0.23929927789E+02  0.41278540031E+02 -0.11806101706E+03  0.12740657542E+03  0.41800000000E+01 0.  1.
</event>
<event>
11    1  0.8453735E-009  0.4895853E+03  0.7561462E-02  0.9417099E-01
         22   -1    0    0    0    0  0.00000000000E+00  0.00000000000E+00  0.28074518249E+04  0.28074518249E+04  0.00000000000E+00 0. -1.
         22   -1    0    0    0    0 -0.00000000000E+00 -0.00000000000E+00 -0.20751510430E+03  0.20751510430E+03  0.00000000000E+00 0. -1.
         24    2    1    2    0    0  0.10765770502E+03 -0.15395200842E+03  0.35267728571E+03  0.40721857355E+03  0.78449324024E+02 0.  0.
         25    2    1    2    0    0 -0.26372199230E+02  0.49891926006E+03  0.24067938480E+03  0.56849792680E+03  0.12508959016E+03 0.  0.
        -24    2    1    2    0    0 -0.81285505795E+02 -0.34496725164E+03  0.20065800501E+04  0.20392504288E+04  0.81049836058E+02 0.  0.
        -13    1    3    3    0    0 -0.12466386490E+02 -0.93077894307E+01  0.26301537045E+02  0.30558412707E+02  0.00000000000E+00 0.  1.
         14    1    3    3    0    0  0.12012409151E+03 -0.14464421899E+03  0.32637574867E+03  0.37666016084E+03  0.00000000000E+00 0. -1.
         13    1    5    5    0    0 -0.54033195735E+02 -0.31226993014E+03  0.16517995145E+04  0.16819256023E+04  0.00000000000E+00 0. -1.
        -14    1    5    5    0    0 -0.27252310059E+02 -0.32697321496E+02  0.35478053554E+03  0.35732482650E+03  0.00000000000E+00 0.  1.
          5    1    4    4  501    0 -0.26671781387E+02  0.29509145096E+03  0.74671529468E+02  0.30558739841E+03  0.41800000000E+01 0. -1.
         -5    1    4    4    0  501  0.29958215727E+00  0.20382780909E+03  0.16600785533E+03  0.26291052839E+03  0.41800000000E+01 0. -1.
</event>
<event>
11    1  0.8453735E-009  0.1325785E+03  0.7561462E-02  0.1116141E+00
         22   -1    0    0    0    0  0.00000000000E+00  0.00000000000E+00  0.20327618585E+04  0.20327618585E+04  0.00000000000E+00 0.  1.
         22   -1    0    0    0    0 -0.00000000000E+00 -0.00000000000E+00 -0.32239429855E+02  0.32239429855E+02  0.00000000000E+00 0. -1.
        -24    2    1    2    0    0 -0.52220948851E+01  0.50043063855E+02  0.76412079026E+02  0.12202016000E+03  0.80737445529E+02 0.  0.
         25    2    1    2    0    0 -0.64050400931E+01 -0.12903312105E+02  0.48418488324E+03  0.50028923265E+03  0.12508715020E+03 0.  0.
         24    2    1    2    0    0  0.11627134978E+02 -0.37139751750E+02  0.14399254664E+04  0.14426918957E+04  0.80374161109E+02 0.  0.
        -13    1    5    5    0    0  0.42950421582E+02 -0.11898011523E+02  0.97912614333E+03  0.98013994202E+03  0.00000000000E+00 0.  1.
         14    1    5    5    0    0 -0.31323286604E+02 -0.25241740226E+02  0.46079932306E+03  0.46255195369E+03  0.00000000000E+00 0. -1.
         11    1    3    3    0    0  0.45148380628E+01  0.24531254645E+02 -0.13283663145E+02  0.28259899571E+02  0.00000000000E+00 0. -1.
        -12    1    3    3    0    0 -0.97369329479E+01  0.25511809209E+02  0.89695742170E+02  0.93760260430E+02  0.00000000000E+00 0.  1.
          5    1    4    4  501    0 -0.38278715829E+02 -0.42260388264E+02  0.41233266638E+03  0.41627743233E+03  0.41800000000E+01 0.  1.
         -5    1    4    4    0  501  0.31873675736E+02  0.29357076159E+02  0.71852216860E+02  0.84011800321E+02  0.41800000000E+01 0.  1.
</event>
<event>
11    1  0.8453735E-009  0.1431831E+03  0.7561462E-02  0.1104055E+00
         22   -1    0    0    0    0  0.00000000000E+00  0.00000000000E+00  0.14451419522E+04  0.14451419522E+04  0.00000000000E+00 0.  1.
         22   -1    0    0    0    0 -0.00000000000E+00 -0.00000000000E+00 -0.49646518260E+03  0.49646518260E+03  0.00000000000E+00 0.  1.
         24    2    1    2    0    0  0.26226953767E+02 -0.64434978726E+02 -0.47851688755E+03  0.49077358080E+03  0.83908142321E+02 0.  0.
         25    2    1    2    0    0 -0.91427011107E+02  0.54870254179E+02  0.87134485788E+03  0.88671181072E+03  0.12508529398E+03 0.  0.
        -24    2    1    2    0    0  0.65200057340E+02  0.95647245462E+01  0.55584879929E+03  0.56412174330E+03  0.70163538657E+02 0.  0.
        -11    1    3    3    0    0 -0.19276775124E+01 -0.72103227970E+02 -0.41008472589E+03  0.41637972313E+03  0.00000000000E+00 0.  1.
         12    1    3    3    0    0  0.28154631279E+02  0.76682492441E+01 -0.68432161662E+02  0.74393857667E+02  0.00000000000E+00 0. -1.
         11    1    5    5    0    0  0.35830514292E+01 -0.43601695864E+01  0.10527695736E+01  0.57408762521E+01  0.00000000000E+00 0. -1.
        -12    1    5    5    0    0  0.61617005911E+02  0.13924894133E+02  0.55479602972E+03  0.55838086705E+03  0.00000000000E+00 0.  1.
          5    1    4    4  501    0 -0.11651239228E+02  0.23849317401E+02  0.27221260344E+02  0.38249323272E+02  0.41800000000E+01 0. -1.
         -5    1    4    4    0  501 -0.79775771879E+02  0.31020936778E+02  0.84412359753E+03  0.84846248745E+03  0.41800000000E+01 0. -1.
</event>
<event>
11    1  0.8453735E-009  0.1475292E+03  0.7561462E-02  0.1099431E+00
         22   -1    0    0    0    0  0.00000000000E+00  0.00000000000E+00  0.23846677213E+03  0.23846677213E+03  0.00000000000E+00 0.  1.
         22   -1    0    0    0    0 -0.00000000000E+00 -0.00000000000E+00 -0.16309773704E+04  0.16309773704E+04  0.00000000000E+00 0. -1.
         24    2    1    2    0    0 -0.68723534728E+02  0.44598378781E+02 -0.14376774899E+04  0.14421864040E+04  0.79203024894E+02 0.  0.
         25    2    1    2    0    0  0.52881683226E+02  0.19830122148E+02 -0.15147078398E+03  0.20440380825E+03  0.12509121577E+03 0.  0.
        -24    2    1    2    0    0  0.15841851502E+02 -0.64428500930E+02  0.19663767567E+03  0.22285393029E+03  0.81212700742E+02 0.  0.
        -13    1    3    3    0    0  0.10177148252E+02  0.32578014109E+02 -0.42182716969E+03  0.42320569755E+03  0.00000000000E+00 0.  1.
         14    1    3    3    0    0 -0.78900682980E+02  0.12020364672E+02 -0.10158503203E+04  0.10189807064E+04  0.00000000000E+00 0. -1.
         11    1    5    5    0    0  0.27142524829E+01 -0.68553829581E+01 -0.73981183916E+01  0.10444883809E+02  0.00000000000E+00 0. -1.
        -12    1    5    5    0    0  0.13127599020E+02 -0.57573117972E+02  0.20403579406E+03  0.21240904648E+03  0.00000000000E+00 0.  1.
          5    1    4    4  501    0  0.31471573884E+02  0.45566327434E+02 -0.69165942047E+01  0.55964826757E+02  0.41800000000E+01 0.  1.
         -5    1    4    4    0  501  0.21410109342E+02 -0.25736205286E+02 -0.14455418977E+03  0.14843898149E+03  0.41800000000E+01 0.  1.
</event>
<event>
11    1  0.8453735E-009  0.2365925E+03  0.7561462E-02  0.1031294E+00
         22   -1    0    0    0    0  0.00000000000E+00  0.00000000000E+00  0.81737791155E+02  0.81737791155E+02  0.00000000000E+00 0. -1.
         22   -1    0    0    0    0 -0.00000000000E+00 -0.00000000000E+00 -0.19780794924E+04  0.19780794924E+04  0.00000000000E+00 0.  1.
        -24    2    1    2    0    0 -0.61697422872E+02 -0.10106719892E+03 -0.78587753524E+03  0.79871900875E+03  0.79544980107E+02 0.  0.
         25    2    1    2    0    0  0.22055694502E+03 -0.24053884908E+02 -0.96718906965E+03  0.10001626540E+04  0.12508670025E+03 0.  0.
         24    2    1    2    0    0 -0.15885952215E+03  0.12512108382E+03 -0.14327509634E+03  0.26093562082E+03  0.81657893587E+02 0.  0.
        -11    1    5    5    0    0 -0.34545161616E+02  0.29644697419E+02  0.42042526589E+01  0.45714899284E+02  0.00000000000E+00 0.  1.
         12    1    5    5    0    0 -0.12431436053E+03  0.95476386406E+02 -0.14747934900E+03  0.21522072153E+03  0.00000000000E+00 0. -1.
         13    1    3    3    0    0 -0.25813271183E+02 -0.66116527851E+02 -0.23284490505E+03  0.24342241070E+03  0.00000000000E+00 0. -1.
        -14    1    3    3    0    0 -0.35884151689E+02 -0.34950671065E+02 -0.55303263019E+03  0.55529659805E+03  0.00000000000E+00 0.  1.
          5    1    4    4  501    0  0.52799748135E+02 -0.13566627252E+02 -0.51203926275E+03  0.51495004202E+03  0.41800000000E+01 0.  1.
         -5    1    4    4    0  501  0.16775719688E+03 -0.10487257656E+02 -0.45514980689E+03  0.48521261195E+03  0.41800000000E+01 0.  1.
</event>
<event>
11    1  0.8453735E-009  0.1309919E+03  0.7561462E-02  0.1118056E+00
         22   -1    0    0    0    0  0.00000000000E+00  0.00000000000E+00  0.72323495235E+03  0.72323495235E+03  0.00000000000E+00 0. -1.
         22   -1    0    0    0    0 -0.00000000000E+00 -0.00000000000E+00 -0.66712003435E+03  0.66712003435E+03  0.00000000000E+00 0.  1.
         24    2    1    2    0    0  0.10234051326E+02 -0.12087313646E+02 -0.44323570607E+03  0.45020168414E+03  0.77284062475E+02 0.  0.
         25    2    1    2    0    0  0.16746002882E+02 -0.16172750522E+02 -0.19914102541E+03  0.23631840768E+03  0.12508898967E+03 0.  0.
        -24    2    1    2    0    0 -0.26980054208E+02  0.28260064168E+02  0.69849164947E+03  0.70383489488E+03  0.77242606851E+02 0.  0.
        -13    1    3    3    0    0  0.83949811594E+00 -0.44217915468E+02 -0.28992404360E+03  0.29327782027E+03  0.00000000000E+00 0.  1.
         14    1    3    3    0    0  0.93945532101E+01  0.32130601822E+02 -0.15331166247E+03  0.15692386387E+03  0.00000000000E+00 0. -1.
         11    1    5    5    0    0 -0.36855072612E+02 -0.11018612935E+02  0.19765780571E+03  0.20136612021E+03  0.00000000000E+00 0. -1.
        -12    1    5    5    0    0  0.98750184042E+01  0.39278677104E+02  0.50083384376E+03  0.50246877467E+03  0.00000000000E+00 0.  1.
          5    1    4    4  501    0 -0.52872857745E+02 -0.24165910299E+01 -0.11130982577E+03  0.12332367458E+03  0.41800000000E+01 0.  1.
         -5    1    4    4    0  501  0.69618860628E+02 -0.13756159492E+02 -0.87831199637E+02  0.11299473310E+03  0.41800000000E+01 0.  1.
</event>
<event>
11    1  0.8453735E-009  0.1577794E+03  0.7561462E-02  0.1089185E+00
         22   -1    0    0    0    0  0.00000000000E+00  0.00000000000E+00  0.15928598849E+04  0.15928598849E+04  0.00000000000E+00 0.  1.
         22   -1    0    0    0    0 -0.00000000000E+00 -0.00000000000E+00 -0.42869646057E+03  0.42869646057E+03  0.00000000000E+00 0.  1.
         24    2    1    2    0    0 -0.36764412771E+02  0.25553084594E+02 -0.37564765944E+03  0.38679870771E+03  0.80607034834E+02 0.  0.
         25    2    1    2    0    0  0.13064126193E+03 -0.18432810425E+02  0.13993999115E+03  0.22943095950E+03  0.12509378976E+03 0.  0.
        -24    2    1    2    0    0 -0.93876849157E+02 -0.71202741683E+01  0.13998710926E+04  0.14053266783E+04  0.80252324633E+02 0.  0.
        -11    1    3    3    0    0 -0.38510121529E+02  0.35150938021E+02 -0.37308716386E+03  0.37671295404E+03  0.00000000000E+00 0.  1.
         12    1    3    3    0    0  0.17457087578E+01 -0.95978534273E+01 -0.25604955791E+01  0.10085753670E+02  0.00000000000E+00 0. -1.
         13    1    5    5    0    0 -0.22039500219E+02  0.21822499436E+02  0.15638025685E+03  0.15942630204E+03  0.00000000000E+00 0. -1.
        -14    1    5    5    0    0 -0.71837348938E+02 -0.28942773604E+02  0.12434908358E+04  0.12459003762E+04  0.00000000000E+00 0.  1.
          5    1    4    4  501    0  0.14661782615E+03 -0.14383070606E+02  0.81178908902E+02  0.16825916711E+03  0.41800000000E+01 0.  1.
         -5    1    4    4    0  501 -0.15976564225E+02 -0.40497398197E+01  0.58761082252E+02  0.61171792392E+02  0.41800000000E+01 0.  1.
</event>
<event>
11    1  0.8453735E-009  0.4503436E+03  0.7561462E-02  0.9511883E-01
         22   -1    0    0    0    0  0.00000000000E+00  0.00000000000E+00  0.77091877173E+03  0.77091877173E+03  0.00000000000E+00 0. -1.
         22   -1    0    0    0    0 -0.00000000000E+00 -0.00000000000E+00 -0.19125124314E+04  0.19125124314E+04  0.00000000000E+00 0.  1.
        -24    2    1    2    0    0 -0.28687696877E+03 -0.29081545387E+03 -0.14056481128E+04  0.14660062486E+04  0.80347248868E+02 0.  0.
         25    2    1    2    0    0  0.33439473730E+03  0.54376569425E+03 -0.20004656160E+03  0.68056720552E+03  0.12510844830E+03 0.  0.
         24    2    1    2    0    0 -0.47517768533E+02 -0.25295024038E+03  0.46410101473E+03  0.53685774905E+03  0.81146339469E+02 0.  0.
        -11    1    5    5    0    0 -0.90677525953E+01 -0.53078722953E+02  0.42153155586E+02  0.68384672941E+02  0.00000000000E+00 0.  1.
         12    1    5    5    0    0 -0.38450015937E+02 -0.19987151743E+03  0.42194785914E+03  0.46847307611E+03  0.00000000000E+00 0. -1.
         13    1    3    3    0    0 -0.31145559908E+02 -0.72733434907E+02 -0.22804679357E+03  0.24138255635E+03  0.00000000000E+00 0. -1.
        -14    1    3    3    0    0 -0.25573140886E+03 -0.21808201896E+03 -0.11776013193E+04  0.12246236923E+04  0.00000000000E+00 0.  1.
          5    1    4    4  501    0  0.15794759424E+03  0.34649155805E+03 -0.15909789160E+03  0.41271473664E+03  0.41800000000E+01 0.  1.
         -5    1    4    4    0  501  0.17644714307E+03  0.19727413620E+03 -0.40948670002E+02  0.26785246888E+03  0.41800000000E+01 0.  1.
</event>
<event>
11    1  0.8453735E-009  0.2841689E+03  0.7561462E-02  0.1007123E+00
         22   -1    0    0    0    0  0.00000000000E+00  0.00000000000E+00  0.16630467987E+03  0.16630467987E+03  0.00000000000E+00 0.  1.
         22   -1    0    0    0    0 -0.00000000000E+00 -0.00000000000E+00 -0.22811086080E+04  0.22811086080E+04  0.00000000000E+00 0.  1.
        -24    2    1    2    0    0  0.21392726381E+03 -0.13561592237E+03 -0.19839821739E+04  0.20016614353E+04  0.79414625280E+02 0.  0.
         25    2    1    2    0    0 -0.26673275900E+03  0.10640409408E+03 -0.58948158625E+02  0.31873024861E+03  0.12508353213E+03 0.  0.
         24    2    1    2    0    0  0.52805495190E+02  0.29211828287E+02 -0.71873595588E+02  0.12702160393E+03  0.85597446739E+02 0.  0.
        -11    1    5    5    0    0  0.39897239398E+02 -0.24560829558E+02 -0.19144362910E+02  0.50611566775E+02  0.00000000000E+00 0.  1.
         12    1    5    5    0    0  0.12908255792E+02  0.53772657845E+02 -0.52729232678E+02  0.76410037156E+02  0.00000000000E+00 0. -1.
         11    1    3    3    0    0  0.60403493927E+02 -0.71604782679E+02 -0.53223013413E+03  0.54041164186E+03  0.00000000000E+00 0. -1.
        -12    1    3    3    0    0  0.15352376988E+03 -0.64011139689E+02 -0.14517520398E+04  0.14612497934E+04  0.00000000000E+00 0.  1.
          5    1    4    4  501    0 -0.18929208371E+03  0.75797383948E+02 -0.98456856218E+02  0.22646845543E+03  0.41800000000E+01 0. -1.
         -5    1    4    4    0  501 -0.77440675287E+02  0.30606710133E+02  0.39508697593E+02  0.92261793174E+02  0.41800000000E+01 0. -1.
</event>
<event>
11    1  0.8453735E-009  0.1285738E+03  0.7561462E-02  0.1121034E+00
         22   -1    0    0    0    0  0.00000000000E+00  0.00000000000E+00  0.35868461466E+03  0.35868461466E+03  0.00000000000E+00 0.  1.
         22   -1    0    0    0    0 -0.00000000000E+00 -0.00000000000E+00 -0.28993874703E+04  0.28993874703E+04  0.00000000000E+00 0. -1.
         24    2    1    2    0    0 -0.28311515919E+02 -0.88580558290E+01 -0.28494898054E+04  0.28508656611E+04  0.83443752714E+02 0.  0.
         25    2    1    2    0    0  0.32780322892E+02  0.32829901842E+02  0.63473485882E+02  0.14774314698E+03  0.12508717778E+03 0.  0.
        -24    2    1    2    0    0 -0.44688069729E+01 -0.23971846013E+02  0.24531346381E+03  0.25946327687E+03  0.80918952538E+02 0.  0.
        -11    1    3    3    0    0 -0.25180916307E+02  0.33154202773E+02 -0.95436080285E+03  0.95526845532E+03  0.00000000000E+00 0.  1.
         12    1    3    3    0    0 -0.31305996121E+01 -0.42012258602E+02 -0.18951290025E+04  0.18955972058E+04  0.00000000000E+00 0. -1.
         13    1    5    5    0    0  0.48671096805E+01 -0.36399501224E+02  0.42974028754E+02  0.56527688732E+02  0.00000000000E+00 0. -1.
        -14    1    5    5    0    0 -0.93359166535E+01  0.12427655210E+02  0.20233943506E+03  0.20293558814E+03  0.00000000000E+00 0.  1.
          5    1    4    4  501    0  0.16206398026E+02  0.32386564869E+01 -0.37473459030E+02  0.41168783860E+02  0.41800000000E+01 0. -1.
         -5    1    4    4    0  501  0.16573924865E+02  0.29591245356E+02  0.10094694491E+03  0.10657436312E+03  0.41800000000E+01 0. -1.
</event>
<event>
11    1  0.8974663E-009  0.1733937E+03  0.7561462E-02  0.1075115E+00
         22   -1    0    0    0    0  0.00000000000E+00  0.00000000000E+00  0.73849162893E+03  0.73849162893E+03  0.00000000000E+00 0. -1.
         22   -1    0    0    0    0 -0.00000000000E+00 -0.00000000000E+00 -0.74097326384E+03  0.74097326384E+03  0.00000000000E+00 0.  1.
        -24    2    1    2    0    0  0.49284836756E+02 -0.46449024320E+01 -0.64033916131E+03  0.64726367134E+03  0.80408012555E+02 0.  0.
         25    2    1    2    0    0 -0.38102944824E+02  0.12411875992E+03  0.18940052775E+01  0.18030568220E+03  0.12509696562E+03 0.  0.
         24    2    1    2    0    0 -0.11181891932E+02 -0.11947385748E+03  0.63596352112E+03  0.65189553924E+03  0.78225037918E+02 0.  0.
        -11    1    5    5    0    0  0.33308557833E+02 -0.52556066605E+02  0.24686750997E+03  0.25458823154E+03  0.00000000000E+00 0.  1.
         12    1    5    5    0    0 -0.44490449765E+02 -0.66917790879E+02  0.38909601115E+03  0.39730730770E+03  0.00000000000E+00 0. -1.
         11    1    3    3    0    0 -0.16690646147E+02  0.76824696443E+00 -0.40910936617E+02  0.44191318232E+02  0.00000000000E+00 0. -1.
        -12    1    3    3    0    0  0.65975482903E+02 -0.54131493965E+01 -0.59942822469E+03  0.60307235311E+03  0.00000000000E+00 0.  1.
          5    1    4    4  501    0 -0.79132424359E+02  0.46829073769E+02 -0.66493757018E+01  0.92285369004E+02  0.41800000000E+01 0.  1.
         -5    1    4    4    0  501  0.41029479535E+02  0.77289686147E+02  0.85433809793E+01  0.88020313191E+02  0.41800000000E+01 0.  1.
</event>
<event>
11    1  0.8453735E-009  0.2254601E+03  0.7561462E-02  0.1037850E+00
         22   -1    0    0    0    0  0.00000000000E+00  0.00000000000E+00  0.53977348851E+03  0.53977348851E+03  0.00000000000E+00 0. -1.
         22   -1    0    0    0    0 -0.00000000000E+00 -0.00000000000E+00 -0.40029224119E+03  0.40029224119E+03  0.00000000000E+00 0. -1.
         24    2    1    2    0    0 -0.12269711855E+02  0.14495573363E+02 -0.12239303651E+03  0.14824489264E+03  0.81460575323E+02 0.  0.
         25    2    1    2    0    0 -0.17615248735E+03 -0.51945117101E+01 -0.19485663825E+03  0.29098686077E+03  0.12509021512E+03 0.  0.
        -24    2    1    2    0    0  0.18842219921E+03 -0.93010616533E+01  0.45673092208E+03  0.50083397630E+03  0.81499090355E+02 0.  0.
        -13    1    3    3    0    0 -0.52108843508E+01  0.43358580942E+02 -0.35083202790E+02  0.56017416711E+02  0.00000000000E+00 0.  1.
         14    1    3    3    0    0 -0.70588275043E+01 -0.28863007578E+02 -0.87309833718E+02  0.92227475928E+02  0.00000000000E+00 0. -1.
         13    1    5    5    0    0  0.18073806360E+03 -0.23590525971E+02  0.36839260033E+03  0.41101808784E+03  0.00000000000E+00 0. -1.
        -14    1    5    5    0    0  0.76841356021E+01  0.14289464318E+02  0.88338321752E+02  0.89815888463E+02  0.00000000000E+00 0.  1.
          5    1    4    4  501    0 -0.18017598519E+03  0.28023843879E+02 -0.16430425933E+03  0.24548336705E+03  0.41800000000E+01 0. -1.
         -5    1    4    4    0  501  0.40234978390E+01 -0.33218355589E+02 -0.30552378923E+02  0.45503493721E+02  0.41800000000E+01 0. -1.
</event>
<event>
11    1  0.8453735E-009  0.2145312E+03  0.7561462E-02  0.1044698E+00
         22   -1    0    0    0    0  0.00000000000E+00  0.00000000000E+00  0.18862092440E+03  0.18862092440E+03  0.00000000000E+00 0.  1.
         22   -1    0    0    0    0 -0.00000000000E+00 -0.00000000000E+00 -0.10329865312E+04  0.10329865312E+04  0.00000000000E+00 0. -1.
         24    2    1    2    0    0  0.17635095696E+02  0.79997878252E+02 -0.52660726159E+03  0.53937108507E+03  0.83037957140E+02 0.  0.
         25    2    1    2    0    0  0.16257842526E+02 -0.24172905398E+03 -0.39750095691E+03  0.48202865395E+03  0.12508940603E+03 0.  0.
        -24    2    1    2    0    0 -0.33892938222E+02  0.16173117572E+03  0.79742611726E+02  0.20020771656E+03  0.80115798573E+02 0.  0.
        -11    1    3    3    0    0  0.39604470460E+02  0.69043052546E+01 -0.19342769313E+03  0.19756127146E+03  0.00000000000E+00 0.  1.
         12    1    3    3    0    0 -0.21969374764E+02  0.73093572998E+02 -0.33317956846E+03  0.34180981361E+03  0.00000000000E+00 0. -1.
         11    1    5    5    0    0 -0.73118300134E+01  0.13852315202E+03  0.34702696690E+02  0.14299092161E+03  0.00000000000E+00 0. -1.
        -12    1    5    5    0    0 -0.26581108209E+02  0.23208023701E+02  0.45039915036E+02  0.57216794948E+02  0.00000000000E+00 0.  1.
          5    1    4    4  501    0 -0.49921731228E+02 -0.15833728043E+03 -0.24644897625E+03  0.29718250944E+03  0.41800000000E+01 0. -1.
         -5    1    4    4    0  501  0.66179573754E+02 -0.83391773544E+02 -0.15105198066E+03  0.18484614450E+03  0.41800000000E+01 0. -1.
</event>
<event>
11    1  0.8453735E-009  0.1856049E+03  0.7561462E-02  0.1065197E+00
         22   -1    0    0    0    0  0.00000000000E+00  0.00000000000E+00  0.16942314046E+04  0.16942314046E+04  0.00000000000E+00 0. -1.
         22   -1    0    0    0    0 -0.00000000000E+00 -0.00000000000E+00 -0.10904692581E+04  0.10904692581E+04  0.00000000000E+00 0. -1.
        -24    2    1    2    0    0 -0.90984103862E+02  0.10055689962E+03 -0.10350977111E+04  0.10469298079E+04  0.79025021676E+02 0.  0.
         25    2    1    2    0    0  0.13489554851E+03 -0.21985839567E+03  0.41209180952E+03  0.50199822985E+03  0.12509212663E+03 0.  0.
         24    2    1    2    0    0 -0.43911444651E+02  0.11930149605E+03  0.12267680480E+04  0.12357726249E+04  0.77544019291E+02 0.  0.
        -11    1    5    5    0    0 -0.91471767309E+01 -0.44515564228E+01  0.29549361862E+03  0.29566867579E+03  0.00000000000E+00 0.  1.
         12    1    5    5    0    0 -0.34764267920E+02  0.12375305248E+03  0.93127442943E+03  0.94010394916E+03  0.00000000000E+00 0. -1.
         11    1    3    3    0    0 -0.66132106947E+02  0.67947613956E+02 -0.91756866482E+03  0.92245465389E+03  0.00000000000E+00 0. -1.
        -12    1    3    3    0    0 -0.24851996915E+02  0.32609285661E+02 -0.11752904623E+03  0.12447515403E+03  0.00000000000E+00 0.  1.
          5    1    4    4  501    0  0.58971685474E+02 -0.18868050717E+03  0.23751686006E+03  0.30904647658E+03  0.41800000000E+01 0. -1.
         -5    1    4    4    0  501  0.75923863039E+02 -0.31177888496E+02  0.17457494947E+03  0.19295175327E+03  0.41800000000E+01 0. -1.
</event>
<event>
11    1  0.8453735E-009  0.1488011E+03  0.7561462E-02  0.1098110E+00
         22   -1    0    0    0    0  0.00000000000E+00  0.00000000000E+00  0.19148106203E+04  0.19148106203E+04  0.00000000000E+00 0.  1.
         22   -1    0    0    0    0 -0.00000000000E+00 -0.00000000000E+00 -0.56038396688E+02  0.56038396688E+02  0.00000000000E+00 0. -1.
        -24    2    1    2    0    0 -0.19766351101E+01  0.70838461366E+02  0.63838152391E+02  0.12526078824E+03  0.81197048433E+02 0.  0.
         25    2    1    2    0    0 -0.21006416143E+02 -0.11072350706E+03  0.27149872554E+03  0.31946825140E+03  0.12508973239E+03 0.  0.
         24    2    1    2    0    0  0.22983051253E+02  0.39885045691E+02  0.15234353456E+04  0.15261199773E+04  0.77896696176E+02 0.  0.
        -11    1    5    5    0    0  0.46311001964E+02  0.33615451907E+02  0.13225614645E+04  0.13237989027E+04  0.00000000000E+00 0.  1.
         12    1    5    5    0    0 -0.23327950710E+02  0.62695937839E+01  0.20087388118E+03  0.20232107461E+03  0.00000000000E+00 0. -1.
         11    1    3    3    0    0 -0.54672565251E+01  0.69106854803E+02  0.81603173066E+02  0.10707346137E+03  0.00000000000E+00 0. -1.
        -12    1    3    3    0    0  0.34906214149E+01  0.17316065632E+01 -0.17765020674E+02  0.18187326871E+02  0.00000000000E+00 0.  1.
          5    1    4    4  501    0 -0.36641868879E+02 -0.92889067325E+02  0.27724507742E+03  0.29470885758E+03  0.41800000000E+01 0. -1.
         -5    1    4    4    0  501  0.15635452736E+02 -0.17834439733E+02 -0.57463518729E+01  0.24759393827E+02  0.41800000000E+01 0. -1.
</event>
<event>
11    1  0.8453735E-009  0.1707584E+03  0.7561462E-02  0.1077374E+00
         22   -1    0    0    0    0  0.00000000000E+00  0.00000000000E+00  0.15744759635E+04  0.15744759635E+04  0.00000000000E+00 0. -1.
         22   -1    0    0    0    0 -0.00000000000E+00 -0.00000000000E+00 -0.68432214383E+03  0.68432214383E+03  0.00000000000E+00 0.  1.
        -24    2    1    2    0    0 -0.25283428412E+02 -0.13590236050E+01 -0.52117387398E+03  0.52831223560E+03  0.82767823835E+02 0.  0.
         25    2    1    2    0    0  0.10900116220E+03  0.81435308079E+02 -0.10164358230E+03  0.21092603589E+03  0.12508162147E+03 0.  0.
         24    2    1    2    0    0 -0.83717733789E+02 -0.80076284474E+02  0.15129712760E+04  0.15195598359E+04  0.80988533646E+02 0.  0.
        -11    1    5    5    0    0 -0.37932744373E+02  0.63272661608E+01  0.63418352126E+03  0.63534846032E+03  0.00000000000E+00 0.  1.
         12    1    5    5    0    0 -0.45784989415E+02 -0.86403550635E+02  0.87878775472E+03  0.88421137555E+03  0.00000000000E+00 0. -1.
         13    1    3    3    0    0  0.26619598803E+02  0.14050391502E+02 -0.24839495597E+03  0.25021205145E+03  0.00000000000E+00 0. -1.
        -14    1    3    3    0    0 -0.51903027215E+02 -0.15409415107E+02 -0.27277891801E+03  0.27810018414E+03  0.00000000000E+00 0.  1.
          5    1    4    4  501    0  0.78654497340E+02  0.13559999183E+02  0.58721708038E+01  0.80139617666E+02  0.41800000000E+01 0.  1.
         -5    1    4    4    0  501  0.30346664860E+02  0.67875308896E+02 -0.10751575310E+03  0.13078641822E+03  0.41800000000E+01 0.  1.
</event>
<event>
11    1  0.8453735E-009  0.1515070E+03  0.7561462E-02  0.1095349E+00
         22   -1    0    0    0    0  0.00000000000E+00  0.00000000000E+00  0.50019223251E+03  0.50019223251E+03  0.00000000000E+00 0.  1.
         22   -1    0    0    0    0 -0.00000000000E+00 -0.00000000000E+00 -0.45752770568E+03  0.45752770568E+03  0.00000000000E+00 0.  1.
         24    2    1    2    0    0  0.17650524375E+02 -0.85294932755E+02 -0.42042523337E+03  0.43705192059E+03  0.81671524273E+02 0.  0.
         25    2    1    2    0    0 -0.77285855402E+01  0.44921129166E+02  0.18239040370E+03  0.22581433394E+03  0.12509282622E+03 0.  0.
        -24    2    1    2    0    0 -0.99219388346E+01  0.40373803589E+02  0.28069935649E+03  0.29485368365E+03  0.80112902445E+02 0.  0.
        -11    1    3    3    0    0  0.44421181601E+02 -0.20226082268E+02 -0.15892763529E+03  0.16625380909E+03  0.00000000000E+00 0.  1.
         12    1    3    3    0    0 -0.26770657226E+02 -0.65068850487E+02 -0.26149759807E+03  0.27079811150E+03  0.00000000000E+00 0. -1.
         11    1    5    5    0    0 -0.66701917804E+01  0.14871585443E+02  0.37644352833E+01  0.16728014974E+02  0.00000000000E+00 0. -1.
        -12    1    5    5    0    0 -0.32517470542E+01  0.25502218146E+02  0.27693492121E+03  0.27812566867E+03  0.00000000000E+00 0.  1.
          5    1    4    4  501    0 -0.11875755866E+02  0.38871871115E+02 -0.23062124583E+01  0.40924894103E+02  0.41800000000E+01 0. -1.
         -5    1    4    4    0  501  0.41471703260E+01  0.60492580509E+01  0.18469661616E+03  0.18488943984E+03  0.41800000000E+01 0. -1.
</event>
<event>
11    1  0.8453735E-009  0.2581896E+03  0.7561462E-02  0.1019625E+00
         22   -1    0    0    0    0  0.00000000000E+00  0.00000000000E+00  0.90777427620E+03  0.90777427620E+03  0.00000000000E+00 0. -1.
         22   -1    0    0    0    0 -0.00000000000E+00 -0.00000000000E+00 -0.23646769427E+03  0.23646769427E+03  0.00000000000E+00 0. -1.
         24    2    1    2    0    0 -0.19229051052E+02 -0.20120260274E+02 -0.10323774071E+03  0.13447101069E+03  0.81546553151E+02 0.  0.
         25    2    1    2    0    0 -0.18518077997E+03 -0.86022910016E+02  0.49111042519E+02  0.24444095776E+03  0.12509046733E+03 0.  0.
        -24    2    1    2    0    0  0.20440983102E+03  0.10614317029E+03  0.72543328012E+03  0.76533000202E+03  0.80167427752E+02 0.  0.
        -11    1    3    3    0    0 -0.33375080832E+02 -0.45036952840E+02 -0.56083624786E+02  0.79294363676E+02  0.00000000000E+00 0.  1.
         12    1    3    3    0    0  0.14146029780E+02  0.24916692566E+02 -0.47154115922E+02  0.55176647011E+02  0.00000000000E+00 0. -1.
         13    1    5    5    0    0  0.74853918991E+02  0.65433863022E+02  0.41044021911E+03  0.42231016218E+03  0.00000000000E+00 0. -1.
        -14    1    5    5    0    0  0.12955591203E+03  0.40709307268E+02  0.31499306101E+03  0.34301983984E+03  0.00000000000E+00 0.  1.
          5    1    4    4  501    0 -0.15559372313E+03 -0.10380493704E+03  0.74510408809E+02  0.20138059750E+03  0.41800000000E+01 0.  1.
         -5    1    4    4    0  501 -0.29587056843E+02  0.17782027024E+02 -0.25399366290E+02  0.43060360259E+02  0.41800000000E+01 0.  1.
</event>
<event>
11    1  0.8453735E-009  0.2399031E+03  0.7561462E-02  0.1029420E+00
         22   -1    0    0    0    0  0.00000000000E+00  0.00000000000E+00  0.11180142307E+04  0.11180142307E+04  0.00000000000E+00 0.  1.
         22   -1    0    0    0    0 -0.00000000000E+00 -0.00000000000E+00 -0.20145394486E+04  0.20145394486E+04  0.00000000000E+00 0. -1.
         24    2    1    2    0    0  0.77731723276E+02 -0.18844997590E+03 -0.19266247700E+04  0.19390637239E+04  0.80805364316E+02 0.  0.
         25    2    1    2    0    0 -0.27734796086E+03  0.17688574767E+03  0.42883396009E+03  0.55476799979E+03  0.12513396481E+03 0.  0.
        -24    2    1    2    0    0  0.19961623758E+03  0.11564228235E+02  0.60126559193E+03  0.63872195558E+03  0.80405539746E+02 0.  0.
        -13    1    3    3    0    0  0.16848606609E+02 -0.14270404649E+02 -0.72683716833E+02  0.75963429926E+02  0.00000000000E+00 0.  1.
         14    1    3    3    0    0  0.60883116668E+02 -0.17417957125E+03 -0.18539410531E+04  0.18631002940E+04  0.00000000000E+00 0. -1.
         11    1    5    5    0    0  0.36969123273E+02  0.28705052747E+02  0.20006558198E+03  0.20546759652E+03  0.00000000000E+00 0. -1.
        -12    1    5    5    0    0  0.16264711431E+03 -0.17140824511E+02  0.40120000996E+03  0.43325435906E+03  0.00000000000E+00 0.  1.
          5    1    4    4  501    0 -0.18764952675E+03  0.76543153743E+02  0.33170679013E+03  0.38873907225E+03  0.41800000000E+01 0.  1.
         -5    1    4    4    0  501 -0.89698434107E+02  0.10034259393E+03  0.97127169956E+02  0.16602892754E+03  0.41800000000E+01 0.  1.
</event>
<event>
11    1  0.8453735E-009  0.1328694E+03  0.7561462E-02  0.1115793E+00
         22   -1    0    0    0    0  0.00000000000E+00  0.00000000000E+00  0.34789265613E+03  0.34789265613E+03  0.00000000000E+00 0. -1.
         22   -1    0    0    0    0 -0.00000000000E+00 -0.00000000000E+00 -0.10875357128E+04  0.10875357128E+04  0.00000000000E+00 0. -1.
        -24    2    1    2    0    0  0.35267726292E+02 -0.91106967070E+01 -0.95982467372E+03  0.96391130449E+03  0.80837994377E+02 0.  0.
         25    2    1    2    0    0 -0.53107104654E+02  0.48868382583E+02 -0.75295453945E+02  0.16286707842E+03  0.12509115264E+03 0.  0.
         24    2    1    2    0    0  0.17839378361E+02 -0.39757685876E+02  0.29547707097E+03  0.30864998605E+03  0.77840846684E+02 0.  0.
        -11    1    5    5    0    0  0.79509911353E+01  0.17460167336E+02  0.22516068690E+02  0.29581228046E+02  0.00000000000E+00 0.  1.
         12    1    5    5    0    0  0.98883872261E+01 -0.57217853212E+02  0.27296100228E+03  0.27906875800E+03  0.00000000000E+00 0. -1.
         13    1    3    3    0    0  0.59433570902E+02  0.21734369429E+01 -0.75844013975E+03  0.76076837392E+03  0.00000000000E+00 0. -1.
        -14    1    3    3    0    0 -0.24165844610E+02 -0.11284133650E+02 -0.20138453397E+03  0.20314293057E+03  0.00000000000E+00 0.  1.
          5    1    4    4  501    0 -0.25763275975E+02  0.52429119753E+02  0.21304945823E+02  0.62321201076E+02  0.41800000000E+01 0.  1.
         -5    1    4    4    0  501 -0.27343828679E+02 -0.35607371697E+01 -0.96600399768E+02  0.10054587735E+03  0.41800000000E+01 0.  1.
</event>
<event>
11    1  0.8453735E-009  0.1331134E+03  0.7561462E-02  0.1115502E+00
         22   -1    0    0    0    0  0.00000000000E+00  0.00000000000E+00  0.23153652120E+04  0.23153652120E+04  0.00000000000E+00 0. -1.
         22   -1    0    0    0    0 -0.00000000000E+00 -0.00000000000E+00 -0.12242861317E+03  0.12242861317E+03  0.00000000000E+00 0.  1.
         24    2    1    2    0    0  0.96004077292E+00  0.45221583761E+02 -0.91974996118E+02  0.13030388123E+03  0.80459854816E+02 0.  0.
         25    2    1    2    0    0  0.25884707394E+02 -0.52669335289E+02  0.44924325878E+03  0.47001138573E+03  0.12508844953E+03 0.  0.
        -24    2    1    2    0    0 -0.26844748167E+02  0.74477515287E+01  0.18356683362E+04  0.18374785582E+04  0.76636165863E+02 0.  0.
        -11    1    3    3    0    0 -0.68462505685E+01  0.60764716021E+02 -0.94671522164E+02  0.11270279042E+03  0.00000000000E+00 0.  1.
         12    1    3    3    0    0  0.78062913414E+01 -0.15543132261E+02  0.26965260460E+01  0.17601090810E+02  0.00000000000E+00 0. -1.
         11    1    5    5    0    0  0.21491620314E+02 -0.16918257994E+02  0.65006275767E+03  0.65063792243E+03  0.00000000000E+00 0. -1.
        -12    1    5    5    0    0 -0.48336368481E+02  0.24366009523E+02  0.11856055785E+04  0.11868406358E+04  0.00000000000E+00 0.  1.
          5    1    4    4  501    0  0.37578567542E+02 -0.78515494461E+02  0.42040955902E+03  0.42934659813E+03  0.41800000000E+01 0.  1.
         -5    1    4    4    0  501 -0.11693860148E+02  0.25846159172E+02  0.28833699751E+02  0.40664787598E+02  0.41800000000E+01 0.  1.
</event>
<event>
11    1  0.1347009E-008  0.1855683E+03  0.7561462E-02  0.1065226E+00
         22   -1    0    0    0    0  0.00000000000E+00  0.00000000000E+00  0.92435741689E+03  0.92435741689E+03  0.00000000000E+00 0.  1.
         22   -1    0    0    0    0 -0.00000000000E+00 -0.00000000000E+00 -0.50728261728E+03  0.50728261728E+03  0.00000000000E+00 0.  1.
        -24    2    1    2    0    0  0.20470840939E+02  0.11425882201E+01 -0.37447709971E+03  0.38359227070E+03  0.80557874215E+02 0.  0.
         25    2    1    2    0    0 -0.84540398904E+02  0.11944832832E+03 -0.43842780344E+02  0.19744630657E+03  0.12509145616E+03 0.  0.
         24    2    1    2    0    0  0.64069557965E+02 -0.12059091654E+03  0.83539467966E+03  0.85060145690E+03  0.83615131869E+02 0.  0.
        -13    1    5    5    0    0  0.23175358965E+02 -0.11567114287E+03  0.65762631395E+03  0.66812370064E+03  0.00000000000E+00 0.  1.
         14    1    5    5    0    0  0.40894199000E+02 -0.49197736614E+01  0.17776836571E+03  0.18247775626E+03  0.00000000000E+00 0. -1.
         13    1    3    3    0    0  0.34826282337E+02 -0.13562386256E+00 -0.64680149281E+02  0.73460261681E+02  0.00000000000E+00 0. -1.
        -14    1    3    3    0    0 -0.14355441398E+02  0.12782120827E+01 -0.30979695043E+03  0.31013200902E+03  0.00000000000E+00 0.  1.
          5    1    4    4  501    0  0.69107695847E+01  0.85932723890E+02 -0.50026860902E+02  0.99761470434E+02  0.41800000000E+01 0. -1.
         -5    1    4    4    0  501 -0.91451168489E+02  0.33515604426E+02  0.61840805583E+01  0.97684836133E+02  0.41800000000E+01 0. -1.
</event>
<event>
11    1  0.8453735E-009  0.1325232E+03  0.7561462E-02  0.1116207E+00
         22   -1    0    0    0    0  0.00000000000E+00  0.00000000000E+00  0.38552904856E+03  0.38552904856E+03  0.00000000000E+00 0.  1.
         22   -1    0    0    0    0 -0.00000000000E+00 -0.00000000000E+00 -0.94024657131E+03  0.94024657131E+03  0.00000000000E+00 0. -1.
         24    2    1    2    0    0  0.72084054792E+01  0.45386538624E+02 -0.82217033678E+03  0.82732841632E+03  0.79977164074E+02 0.  0.
         25    2    1    2    0    0  0.24469670931E+02 -0.14914690759E+02 -0.71982754145E+02  0.14714691844E+03  0.12509790533E+03 0.  0.
        -24    2    1    2    0    0 -0.31678076410E+02 -0.30471847865E+02  0.33943556817E+03  0.35130028511E+03  0.79141337775E+02 0.  0.
        -11    1    3    3    0    0  0.84666673741E+01 -0.21152454630E+02 -0.13150427822E+03  0.13346342564E+03  0.00000000000E+00 0.  1.
         12    1    3    3    0    0 -0.12582618949E+01  0.66538993254E+02 -0.69066605856E+03  0.69386499068E+03  0.00000000000E+00 0. -1.
         13    1    5    5    0    0 -0.37433311556E+02  0.21056179562E+00  0.64327019070E+02  0.74426222078E+02  0.00000000000E+00 0. -1.
        -14    1    5    5    0    0  0.57552351464E+01 -0.30682409661E+02  0.27510854910E+03  0.27687406303E+03  0.00000000000E+00 0.  1.
          5    1    4    4  501    0  0.55505567948E+02  0.27479418584E+02 -0.71164324547E+02  0.94434209941E+02  0.41800000000E+01 0.  1.
         -5    1    4    4    0  501 -0.31035897017E+02 -0.42394109343E+02 -0.81842959839E+00  0.52712708503E+02  0.41800000000E+01 0.  1.
</event>
<event>
11    1  0.8453735E-009  0.1688773E+03  0.7561462E-02  0.1079013E+00
         22   -1    0    0    0    0  0.00000000000E+00  0.00000000000E+00  0.15126859416E+04  0.15126859416E+04  0.00000000000E+00 0.  1.
         22   -1    0    0    0    0 -0.00000000000E+00 -0.00000000000E+00 -0.14853505841E+03  0.14853505841E+03  0.00000000000E+00 0. -1.
         24    2    1    2    0    0  0.28319343943E+02  0.21565796957E+02 -0.95839547974E+02  0.12484735223E+03  0.71655938790E+02 0.  0.
         25    2    1    2    0    0 -0.12964051424E+03 -0.64494118207E+02  0.23116741670E+03  0.30010562941E+03  0.12513536688E+03 0.  0.
        -24    2    1    2    0    0  0.10132117030E+03  0.42928321251E+02  0.12288230145E+04  0.12362680184E+04  0.79017669188E+02 0.  0.
        -13    1    3    3    0    0 -0.82883860991E+01  0.24969919676E+02 -0.49066984168E+01  0.26763219576E+02  0.00000000000E+00 0.  1.
         14    1    3    3    0    0  0.36607730042E+02 -0.34041227190E+01 -0.90932849557E+02  0.98084132656E+02  0.00000000000E+00 0. -1.
         13    1    5    5    0    0  0.24661411014E+02  0.26675205038E+02  0.76574813562E+03  0.76660939138E+03  0.00000000000E+00 0. -1.
        -14    1    5    5    0    0  0.76659759287E+02  0.16253116213E+02  0.46307487886E+03  0.46965862700E+03  0.00000000000E+00 0.  1.
          5    1    4    4  501    0 -0.14672082151E+03 -0.26335514362E+02  0.17400524553E+03  0.22916338419E+03  0.41800000000E+01 0. -1.
         -5    1    4    4    0  501  0.17080307270E+02 -0.38158603845E+02  0.57162171175E+02  0.70942245223E+02  0.41800000000E+01 0. -1.
</event>
<event>
11    1  0.8453735E-009  0.1748928E+03  0.7561462E-02  0.1073851E+00
         22   -1    0    0    0    0  0.00000000000E+00  0.00000000000E+00  0.18042581241E+04  0.18042581241E+04  0.00000000000E+00 0.  1.
         22   -1    0    0    0    0 -0.00000000000E+00 -0.00000000000E+00 -0.11310608775E+04  0.11310608775E+04  0.00000000000E+00 0.  1.
         24    2    1    2    0    0 -0.11139766125E+03  0.30620394868E+02 -0.63225169058E+03  0.64788658480E+03  0.81656469451E+02 0.  0.
         25    2    1    2    0    0  0.12530794800E+03 -0.60130512657E+02 -0.47199949860E+03  0.50768921409E+03  0.12508817305E+03 0.  0.
        -24    2    1    2    0    0 -0.13910286742E+02  0.29510117790E+02  0.17774484357E+04  0.17797432027E+04  0.84253087924E+02 0.  0.
        -11    1    3    3    0    0 -0.10020228346E+03  0.20436366719E+02 -0.62010386699E+03  0.62847987123E+03  0.00000000000E+00 0.  1.
         12    1    3    3    0    0 -0.11195377794E+02  0.10184028149E+02 -0.12147823599E+02  0.19406713567E+02  0.00000000000E+00 0. -1.
         11    1    5    5    0    0  0.80598206169E+00  0.18550230499E+02  0.77408610603E+02  0.79604357004E+02  0.00000000000E+00 0. -1.
        -12    1    5    5    0    0 -0.14716268803E+02  0.10959887291E+02  0.17000398251E+04  0.17001388457E+04  0.00000000000E+00 0.  1.
          5    1    4    4  501    0  0.26484199609E+02  0.40236521748E+01 -0.28725721146E+03  0.28853384644E+03  0.41800000000E+01 0.  1.
         -5    1    4    4    0  501  0.98823748387E+02 -0.64154164832E+02 -0.18474228714E+03  0.21915536765E+03  0.41800000000E+01 0.  1.
</event>
<event>
11    1  0.8453735E-009  0.3660012E+03  0.7561462E-02  0.9755767E-01
         22   -1    0    0    0    0  0.00000000000E+00  0.00000000000E+00  0.10205484142E+04  0.10205484142E+04  0.00000000000E+00 0.  1.
         22   -1    0    0    0    0 -0.00000000000E+00 -0.00000000000E+00 -0.36991769285E+03  0.36991769285E+03  0.00000000000E+00 0.  1.
         24    2    1    2    0    0 -0.29125737707E+03  0.19856816622E+03 -0.18171625900E+03  0.40460358760E+03  0.80144169968E+02 0.  0.
         25    2    1    2    0    0  0.30776164990E+03 -0.94153233792E+02  0.37571813101E+03  0.51028801977E+03  0.12509070535E+03 0.  0.
        -24    2    1    2    0    0 -0.16504272826E+02 -0.10441493243E+03  0.45662884936E+03  0.47557449972E+03  0.80537752483E+02 0.  0.
        -13    1    3    3    0    0 -0.23613139711E+03  0.15603557071E+03 -0.10727845211E+03  0.30267772021E+03  0.00000000000E+00 0.  1.
         14    1    3    3    0    0 -0.55125979966E+02  0.42532595508E+02 -0.74437806892E+02  0.10192586739E+03  0.00000000000E+00 0. -1.
         11    1    5    5    0    0 -0.98447975748E+01  0.77970935100E+01  0.13617923279E+02  0.18524646850E+02  0.00000000000E+00 0. -1.
        -12    1    5    5    0    0 -0.66594752510E+01 -0.11221202594E+03  0.44301092608E+03  0.45704985287E+03  0.00000000000E+00 0.  1.
          5    1    4    4  501    0  0.29658819200E+03 -0.81361778060E+02  0.38310978433E+03  0.49129916936E+03  0.41800000000E+01 0. -1.
         -5    1    4    4    0  501  0.11173457899E+02 -0.12791455732E+02 -0.73916533164E+01  0.18988850411E+02  0.41800000000E+01 0. -1.
</event>
<event>
11    1  0.8453735E-009  0.1730862E+03  0.7561462E-02  0.1075377E+00
         22   -1    0    0    0    0  0.00000000000E+00  0.00000000000E+00  0.94617804101E+03  0.94617804101E+03  0.00000000000E+00 0. -1.
         22   -1    0    0    0    0 -0.00000000000E+00 -0.00000000000E+00 -0.12724969332E+03  0.12724969332E+03  0.00000000000E+00 0.  1.
         24    2    1    2    0    0  0.12001661982E+03  0.35883476791E+02  0.12452235177E+01  0.14973025444E+03  0.82012106267E+02 0.  0.
         25    2    1    2    0    0 -0.81000401463E+02 -0.88507693600E+02  0.10324356377E+03  0.20174496893E+03  0.12508845736E+03 0.  0.
        -24    2    1    2    0    0 -0.39016218353E+02  0.52624216809E+02  0.71443956040E+03  0.72195251096E+03  0.80622386081E+02 0.  0.
        -13    1    3    3    0    0  0.83170929650E+02  0.60827748240E+02 -0.10876953432E+02  0.10361335151E+03  0.00000000000E+00 0.  1.
         14    1    3    3    0    0  0.36845690166E+02 -0.24944271449E+02  0.12122176950E+02  0.46116902931E+02  0.00000000000E+00 0. -1.
         11    1    5    5    0    0 -0.30089723301E+02 -0.90109165776E+00  0.49458055471E+03  0.49549584107E+03  0.00000000000E+00 0. -1.
        -12    1    5    5    0    0 -0.89264950517E+01  0.53525308467E+02  0.21985900568E+03  0.22645666990E+03  0.00000000000E+00 0.  1.
          5    1    4    4  501    0  0.29509119071E+02 -0.44287417873E+02  0.22955080211E+02  0.58108274778E+02  0.41800000000E+01 0. -1.
         -5    1    4    4    0  501 -0.11050952053E+03 -0.44220275727E+02  0.80288483560E+02  0.14363669415E+03  0.41800000000E+01 0. -1.
</event>
<event>
11    1  0.8453735E-009  0.1337402E+03  0.7561462E-02  0.1114757E+00
         22   -1    0    0    0    0  0.00000000000E+00  0.00000000000E+00  0.69373549801E+03  0.69373549801E+03  0.00000000000E+00 0.  1.
         22   -1    0    0    0    0 -0.00000000000E+00 -0.00000000000E+00 -0.31156928515E+03  0.31156928515E+03  0.00000000000E+00 0.  1.
         24    2    1    2    0    0  0.46414162134E+02  0.14387803454E+02 -0.28226655163E+03  0.29857606205E+03  0.84332528268E+02 0.  0.
         25    2    1    2    0    0 -0.21878749369E+01 -0.20707755171E+02  0.23167627641E+03  0.26411285741E+03  0.12509239178E+03 0.  0.
        -24    2    1    2    0    0 -0.44226287197E+02  0.63199517167E+01  0.43275648808E+03  0.44261586370E+03  0.81453781713E+02 0.  0.
        -13    1    3    3    0    0  0.70559584279E+02  0.74686354514E+01 -0.22785728393E+03  0.23864906723E+03  0.00000000000E+00 0.  1.
         14    1    3    3    0    0 -0.24145422145E+02  0.69191680030E+01 -0.54409267702E+02  0.59926994822E+02  0.00000000000E+00 0. -1.
         13    1    5    5    0    0  0.16177689512E+02 -0.17134313034E+02  0.63805274191E+02  0.68017757503E+02  0.00000000000E+00 0. -1.
        -14    1    5    5    0    0 -0.60403976709E+02  0.23454264751E+02  0.36895121389E+03  0.37459810620E+03  0.00000000000E+00 0.  1.
          5    1    4    4  501    0 -0.20030296753E+02  0.12548726269E+02  0.22411414535E+03  0.22539588697E+03  0.41800000000E+01 0.  1.
         -5    1    4    4    0  501  0.17842421816E+02 -0.33256481440E+02  0.75621310590E+01  0.38716970441E+02  0.41800000000E+01 0.  1.
</event>
<event>
11    1  0.8453735E-009  0.2556527E+03  0.7561462E-02  0.1020930E+00
         22   -1    0    0    0    0  0.00000000000E+00  0.00000000000E+00  0.23936296434E+04  0.23936296434E+04  0.00000000000E+00 0.  1.
         22   -1    0    0    0    0 -0.00000000000E+00 -0.00000000000E+00 -0.16654316941E+03  0.16654316941E+03  0.00000000000E+00 0.  1.
         24    2    1    2    0    0 -0.79137096975E+02  0.20377164520E+03 -0.33536849600E+02  0.23531644440E+03  0.80396176647E+02 0.  0.
         25    2    1    2    0    0  0.15720277459E+03 -0.20886381181E+03  0.66532374011E+03  0.72569887012E+03  0.12508543771E+03 0.  0.
        -24    2    1    2    0    0 -0.78065677618E+02  0.50921666042E+01  0.15952995834E+04  0.15991574982E+04  0.78763970494E+02 0.  0.
        -13    1    3    3    0    0 -0.84077977499E+02  0.20905729472E+03 -0.34703285168E+02  0.22798766804E+03  0.00000000000E+00 0.  1.
         14    1    3    3    0    0  0.49408805236E+01 -0.52856495140E+01  0.11664355676E+01  0.73287763690E+01  0.00000000000E+00 0. -1.
         11    1    5    5    0    0 -0.54479553598E+02 -0.16482101557E+01  0.41033850013E+03  0.41394253592E+03  0.00000000000E+00 0. -1.
        -12    1    5    5    0    0 -0.23586124020E+02  0.67403767599E+01  0.11849610833E+04  0.11852149623E+04  0.00000000000E+00 0.  1.
          5    1    4    4  501    0  0.90466402217E+02 -0.10153281802E+03  0.49627110031E+03  0.51458289951E+03  0.41800000000E+01 0.  1.
         -5    1    4    4    0  501  0.66736372377E+02 -0.10733099379E+03  0.16905263980E+03  0.21111597062E+03  0.41800000000E+01 0.  1.
</event>
<event>
11    1  0.8453735E-009  0.1802842E+03  0.7561462E-02  0.1069413E+00
         22   -1    0    0    0    0  0.00000000000E+00  0.00000000000E+00  0.34960165708E+03  0.34960165708E+03  0.00000000000E+00 0.  1.
         22   -1    0    0    0    0 -0.00000000000E+00 -0.00000000000E+00 -0.72291151132E+03  0.72291151132E+03  0.00000000000E+00 0. -1.
        -24    2    1    2    0    0  0.97196228049E+02 -0.78901463009E+02 -0.57760048619E+03  0.59756700913E+03  0.88269253672E+02 0.  0.
         25    2    1    2    0    0 -0.13843582368E+03  0.10095037355E+03 -0.37470815144E+02  0.21542370202E+03  0.12509138343E+03 0.  0.
         24    2    1    2    0    0  0.41239595633E+02 -0.22048910541E+02  0.24176144709E+03  0.25952245724E+03  0.81953949318E+02 0.  0.
        -13    1    5    5    0    0  0.47337092750E+01 -0.27480409794E+02  0.20684308088E+03  0.20871425690E+03  0.00000000000E+00 0.  1.
         14    1    5    5    0    0  0.36505886358E+02  0.54314992534E+01  0.34918366211E+02  0.50808200339E+02  0.00000000000E+00 0. -1.
         13    1    3    3    0    0  0.97787505100E+02 -0.81689384152E+02 -0.58000629327E+03  0.59383739514E+03  0.00000000000E+00 0. -1.
        -14    1    3    3    0    0 -0.59127705102E+00  0.27879211431E+01  0.24058070760E+01  0.37296139932E+01  0.00000000000E+00 0.  1.
          5    1    4    4  501    0 -0.15154607708E+02 -0.50038203875E+01 -0.49688135263E+02  0.52355358266E+02  0.41800000000E+01 0.  1.
         -5    1    4    4    0  501 -0.12328121597E+03  0.10595419394E+03  0.12217320118E+02  0.16306834376E+03  0.41800000000E+01 0.  1.
</event>
<event>
11    1  0.8453735E-009  0.1280376E+03  0.7561462E-02  0.1121704E+00
         22   -1    0    0    0    0  0.00000000000E+00  0.00000000000E+00  0.57186223642E+03  0.57186223642E+03  0.00000000000E+00 0. -1.
         22   -1    0    0    0    0 -0.00000000000E+00 -0.00000000000E+00 -0.13000107010E+03  0.13000107010E+03  0.00000000000E+00 0.  1.
        -24    2    1    2    0    0  0.99025319447E+01 -0.25207392977E+02 -0.56908163476E+02  0.10127535181E+03  0.79276005289E+02 0.  0.
         25    2    1    2    0    0  0.68764538803E+01  0.31737343133E+02  0.40899890655E+02  0.13555454170E+03  0.12509071969E+03 0.  0.
         24    2    1    2    0    0 -0.16778985825E+02 -0.65299501558E+01  0.45786943914E+03  0.46503341300E+03  0.79293614491E+02 0.  0.
        -11    1    5    5    0    0 -0.28518900173E+02  0.28290500615E+02  0.16271180888E+03  0.16759717432E+03  0.00000000000E+00 0.  1.
         12    1    5    5    0    0  0.11739914348E+02 -0.34820450771E+02  0.29515763026E+03  0.29743623868E+03  0.00000000000E+00 0. -1.
         11    1    3    3    0    0  0.37252260784E+02  0.96236428626E+01 -0.34339018679E+02  0.51570472552E+02  0.00000000000E+00 0. -1.
        -12    1    3    3    0    0 -0.27349728839E+02 -0.34831035839E+02 -0.22569144797E+02  0.49704879258E+02  0.00000000000E+00 0.  1.
          5    1    4    4  501    0 -0.29187922816E+02 -0.20811742026E+02  0.59004617333E+02  0.69167049316E+02  0.41800000000E+01 0.  1.
         -5    1    4    4    0  501  0.36064376696E+02  0.52549085158E+02 -0.18104726678E+02  0.66387492388E+02  0.41800000000E+01 0.  1.
</event>
<event>
11    1  0.8453735E-009  0.1311175E+03  0.7561462E-02  0.1117904E+00
         22   -1    0    0    0    0  0.00000000000E+00  0.00000000000E+00  0.71970210022E+03  0.71970210022E+03  0.00000000000E+00 0. -1.
         22   -1    0    0    0    0 -0.00000000000E+00 -0.00000000000E+00 -0.10414324270E+04  0.10414324270E+04  0.00000000000E+00 0. -1.
        -24    2    1    2    0    0  0.55227547802E+00 -0.25593660183E+00 -0.10186764798E+04  0.10216571814E+04  0.77982404396E+02 0.  0.
         25    2    1    2    0    0  0.89548424046E+01  0.38366466639E+02  0.23204166847E+03  0.26653853158E+03  0.12508908004E+03 0.  0.
         24    2    1    2    0    0 -0.95071178826E+01 -0.38110530037E+02  0.46490448455E+03  0.47293881418E+03  0.77408942739E+02 0.  0.
        -11    1    5    5    0    0 -0.32273026284E+02  0.34084538265E+01  0.10411829253E+03  0.10905862929E+03  0.00000000000E+00 0.  1.
         12    1    5    5    0    0  0.22765908402E+02 -0.41518983863E+02  0.36078619201E+03  0.36388018489E+03  0.00000000000E+00 0. -1.
         13    1    3    3    0    0  0.13015103287E+02 -0.52814860037E+01 -0.98877683282E+03  0.98887659095E+03  0.00000000000E+00 0. -1.
        -14    1    3    3    0    0 -0.12462827809E+02  0.50255494019E+01 -0.29899646964E+02  0.32780590482E+02  0.00000000000E+00 0.  1.
          5    1    4    4  501    0 -0.37726558766E+02  0.11378914833E+02  0.14215816063E+02  0.42099106469E+02  0.41800000000E+01 0.  1.
         -5    1    4    4    0  501  0.46681401171E+02  0.26987551805E+02  0.21782585241E+03  0.22443942511E+03  0.41800000000E+01 0.  1.
</event>
<event>
11    1  0.8453735E-009  0.1524828E+03  0.7561462E-02  0.1094369E+00
         22   -1    0    0    0    0  0.00000000000E+00  0.00000000000E+00  0.11988512238E+03  0.11988512238E+03  0.00000000000E+00 0. -1.
         22   -1    0    0    0    0 -0.00000000000E+00 -0.00000000000E+00 -0.10794687281E+04  0.10794687281E+04  0.00000000000E+00 0.  1.
         24    2    1    2    0    0 -0.39168254208E+02 -0.72636194942E+02 -0.69829588122E+03  0.70666315035E+03  0.70324258830E+02 0.  0.
         25    2    1    2    0    0 -0.37951910411E+01  0.12591030922E+03 -0.32401585739E+03  0.36946126758E+03  0.12509013932E+03 0.  0.
        -24    2    1    2    0    0  0.42963445249E+02 -0.53274114273E+02  0.62728132875E+02  0.12322943257E+03  0.81035088199E+02 0.  0.
        -11    1    3    3    0    0 -0.38988474556E+02 -0.80109508132E+02 -0.68899047685E+03  0.69472693314E+03  0.00000000000E+00 0.  1.
         12    1    3    3    0    0 -0.17977965121E+00  0.74733131904E+01 -0.93054043700E+01  0.11936217209E+02  0.00000000000E+00 0. -1.
         11    1    5    5    0    0 -0.80422871056E+01 -0.50066481760E+01  0.51196326707E+02  0.52065427839E+02  0.00000000000E+00 0. -1.
        -12    1    5    5    0    0  0.51005732354E+02 -0.48267466097E+02  0.11531806169E+02  0.71164004735E+02  0.00000000000E+00 0.  1.
          5    1    4    4  501    0 -0.51962836261E+02  0.22773253924E+02 -0.15966009965E+03  0.16949211565E+03  0.41800000000E+01 0.  1.
         -5    1    4    4    0  501  0.48167645219E+02  0.10313705529E+03 -0.16435575775E+03  0.19996915193E+03  0.41800000000E+01 0.  1.
</event>
<event>
11    1  0.8453735E-009  0.1310265E+03  0.7561462E-02  0.1118014E+00
         22   -1    0    0    0    0  0.00000000000E+00  0.00000000000E+00  0.39507415781E+03  0.39507415781E+03  0.00000000000E+00 0. -1.
         22   -1    0    0    0    0 -0.00000000000E+00 -0.00000000000E+00 -0.37814399702E+03  0.37814399702E+03  0.00000000000E+00 0.  1.
         24    2    1    2    0    0  0.17438925943E+02  0.52629362099E+01 -0.33273573252E+03  0.34156588564E+03  0.74982477287E+02 0.  0.
         25    2    1    2    0    0 -0.36201993980E+02 -0.36435611927E+02  0.10403569015E+03  0.17061463548E+03  0.12509113010E+03 0.  0.
        -24    2    1    2    0    0  0.18763068037E+02  0.31172675717E+02  0.24563020316E+03  0.26103763372E+03  0.80514974281E+02 0.  0.
        -11    1    3    3    0    0  0.60610383451E+01  0.38771872517E+02 -0.13106426080E+03  0.13681313805E+03  0.00000000000E+00 0.  1.
         12    1    3    3    0    0  0.11377887598E+02 -0.33508936307E+02 -0.20167147172E+03  0.20475274759E+03  0.00000000000E+00 0. -1.
         11    1    5    5    0    0  0.17949304879E+02 -0.42564109096E+01  0.20991514503E+03  0.21072413885E+03  0.00000000000E+00 0. -1.
        -12    1    5    5    0    0  0.81376315820E+00  0.35429086627E+02  0.35715058124E+02  0.50313494874E+02  0.00000000000E+00 0.  1.
          5    1    4    4  501    0  0.29440944283E+02 -0.43319205323E+02  0.67456798399E+01  0.52974516011E+02  0.41800000000E+01 0.  1.
         -5    1    4    4    0  501 -0.65642938263E+02  0.68835933956E+01  0.97290010312E+02  0.11764011947E+03  0.41800000000E+01 0.  1.
</event>
<event>
11    1  0.8453735E-009  0.1901167E+03  0.7561462E-02  0.1061741E+00
         22   -1    0    0    0    0  0.00000000000E+00  0.00000000000E+00  0.32368978993E+04  0.32368978993E+04  0.00000000000E+00 0. -1.
         22   -1    0    0    0    0 -0.00000000000E+00 -0.00000000000E+00 -0.30132220670E+03  0.30132220670E+03  0.00000000000E+00 0.  1.
        -24    2    1    2    0    0 -0.22908802331E+02 -0.38898455128E+02 -0.18609145781E+03  0.20741184149E+03  0.79697793474E+02 0.  0.
         25    2    1    2    0    0  0.15951831678E+03  0.79399897854E+02  0.13272536826E+02  0.21811500575E+03  0.12509020078E+03 0.  0.
         24    2    1    2    0    0 -0.13660951445E+03 -0.40501442725E+02  0.31083946136E+04  0.31126932588E+04  0.80247885411E+02 0.  0.
        -13    1    5    5    0    0 -0.11240791912E+03 -0.53628435526E+02  0.19510133532E+04  0.19549845661E+04  0.00000000000E+00 0.  1.
         14    1    5    5    0    0 -0.24201595332E+02  0.13126992801E+02  0.11573812605E+04  0.11577086927E+04  0.00000000000E+00 0. -1.
         13    1    3    3    0    0 -0.40476325144E+02 -0.20580082715E+02 -0.44549643784E+02  0.63612447390E+02  0.00000000000E+00 0. -1.
        -14    1    3    3    0    0  0.17567522812E+02 -0.18318372413E+02 -0.14154181402E+03  0.14379939410E+03  0.00000000000E+00 0.  1.
          5    1    4    4  501    0  0.13285670868E+03  0.50392695343E+02  0.62192494277E+02  0.15516348646E+03  0.41800000000E+01 0.  1.
         -5    1    4    4    0  501  0.26661608099E+02  0.29007202510E+02 -0.48919957451E+02  0.62951519290E+02  0.41800000000E+01 0.  1.
</event>
<event>
11    1  0.8453735E-009  0.1271978E+03  0.7561462E-02  0.1122761E+00
         22   -1    0    0    0    0  0.00000000000E+00  0.00000000000E+00  0.52810125516E+03  0.52810125516E+03  0.00000000000E+00 0.  1.
         22   -1    0    0    0    0 -0.00000000000E+00 -0.00000000000E+00 -0.18005785010E+04  0.18005785010E+04  0.00000000000E+00 0. -1.
         24    2    1    2    0    0 -0.64362417034E-01 -0.90839103516E+01 -0.17712991092E+04  0.17731676019E+04  0.80872052413E+02 0.  0.
         25    2    1    2    0    0 -0.21720216753E+02 -0.16473426016E+00  0.15025587186E+03  0.19671287140E+03  0.12508929528E+03 0.  0.
        -24    2    1    2    0    0  0.21784579170E+02  0.92486446117E+01  0.34856599149E+03  0.35879928280E+03  0.81722515815E+02 0.  0.
        -11    1    3    3    0    0 -0.18614274176E+02  0.75949160373E+01 -0.11943938701E+03  0.12111953237E+03  0.00000000000E+00 0.  1.
         12    1    3    3    0    0  0.18549911759E+02 -0.16678826389E+02 -0.16518597222E+04  0.16520480696E+04  0.00000000000E+00 0. -1.
         13    1    5    5    0    0  0.12156300645E+02  0.25703954962E+02  0.37062615453E+02  0.46713021850E+02  0.00000000000E+00 0. -1.
        -14    1    5    5    0    0  0.96282785254E+01 -0.16455310351E+02  0.31150337604E+03  0.31208626095E+03  0.00000000000E+00 0.  1.
          5    1    4    4  501    0  0.34579444284E+02 -0.21639165198E+02  0.74745520396E+01  0.41681323943E+02  0.41800000000E+01 0.  1.
         -5    1    4    4    0  501 -0.56299661037E+02  0.21474430938E+02  0.14278131982E+03  0.15503154746E+03  0.41800000000E+01 0.  1.
</event>
<event>
11    1  0.8453735E-009  0.1360122E+03  0.7561462E-02  0.1112095E+00
         22   -1    0    0    0    0  0.00000000000E+00  0.00000000000E+00  0.20681772343E+03  0.20681772343E+03  0.00000000000E+00 0.  1.
         22   -1    0    0    0    0 -0.00000000000E+00 -0.00000000000E+00 -0.62704732133E+03  0.62704732133E+03  0.00000000000E+00 0. -1.
        -24    2    1    2    0    0  0.17029620561E+02 -0.55167357336E+02 -0.43552969325E+03  0.44663085723E+03  0.80371410538E+02 0.  0.
         25    2    1    2    0    0  0.24670586807E+01  0.36609701846E+02 -0.15185400139E+03  0.20013366416E+03  0.12508992423E+03 0.  0.
         24    2    1    2    0    0 -0.19496679242E+02  0.18557655490E+02  0.16715409674E+03  0.18710052337E+03  0.79634205652E+02 0.  0.
        -13    1    5    5    0    0 -0.17490113968E+02  0.49552842952E+02  0.11418582122E+03  0.12569721595E+03  0.00000000000E+00 0.  1.
         14    1    5    5    0    0 -0.20065652736E+01 -0.30995187462E+02  0.52968275520E+02  0.61403307416E+02  0.00000000000E+00 0. -1.
         11    1    3    3    0    0  0.18382326420E+02 -0.66402394516E+02 -0.42683493768E+03  0.43236009523E+03  0.00000000000E+00 0. -1.
        -12    1    3    3    0    0 -0.13527058591E+01  0.11235037181E+02 -0.86947555745E+01  0.14270762001E+02  0.00000000000E+00 0.  1.
          5    1    4    4  501    0 -0.24475460068E+02  0.75083520086E+02 -0.69728247909E+02  0.10543284161E+03  0.41800000000E+01 0.  1.
         -5    1    4    4    0  501  0.26942518749E+02 -0.38473818240E+02 -0.82125753482E+02  0.94700822549E+02  0.41800000000E+01 0.  1.
</event>
<event>
11    1  0.8453735E-009  0.1381722E+03  0.7561462E-02  0.1109617E+00
         22   -1    0    0    0    0  0.00000000000E+00  0.00000000000E+00  0.32849839515E+03  0.32849839515E+03  0.00000000000E+00 0.  1.
         22   -1    0    0    0    0 -0.00000000000E+00 -0.00000000000E+00 -0.58156150586E+03  0.58156150586E+03  0.00000000000E+00 0.  1.
         24    2    1    2    0    0 -0.20876733112E+02  0.25487399411E+02 -0.32780497464E+03  0.33796314194E+03  0.75349441918E+02 0.  0.
         25    2    1    2    0    0 -0.29891399182E+02  0.59552898252E+01 -0.22324075117E+03  0.25770630314E+03  0.12508854653E+03 0.  0.
        -24    2    1    2    0    0  0.50768132294E+02 -0.31442689236E+02  0.29798261509E+03  0.31439045593E+03  0.80508843735E+02 0.  0.
        -13    1    3    3    0    0 -0.43617367870E+02  0.13819902855E+02 -0.28038492897E+03  0.28409359881E+03  0.00000000000E+00 0.  1.
         14    1    3    3    0    0  0.22740634758E+02  0.11667496556E+02 -0.47420045670E+02  0.53869543124E+02  0.00000000000E+00 0. -1.
         11    1    5    5    0    0  0.59541972778E+02  0.65613483827E+01  0.15465958925E+03  0.16585501609E+03  0.00000000000E+00 0. -1.
        -12    1    5    5    0    0 -0.87738404840E+01 -0.38004037619E+02  0.14332302584E+03  0.14853543984E+03  0.00000000000E+00 0.  1.
          5    1    4    4  501    0  0.46529590976E+02 -0.15029028502E+02 -0.94162574782E+02  0.10618350825E+03  0.41800000000E+01 0.  1.
         -5    1    4    4    0  501 -0.76420990158E+02  0.20984318327E+02 -0.12907817639E+03  0.15152279489E+03  0.41800000000E+01 0.  1.
</event>
<event>
11    1  0.8453735E-009  0.1532944E+03  0.7561462E-02  0.1093559E+00
         22   -1    0    0    0    0  0.00000000000E+00  0.00000000000E+00  0.27738799000E+03  0.27738799000E+03  0.00000000000E+00 0.  1.
         22   -1    0    0    0    0 -0.00000000000E+00 -0.00000000000E+00 -0.28689444768E+03  0.28689444768E+03  0.00000000000E+00 0. -1.
         24    2    1    2    0    0 -0.46857687155E+02 -0.80586102364E+02 -0.21996204878E+03  0.25239875287E+03  0.81437490195E+02 0.  0.
         25    2    1    2    0    0  0.23452981172E+02  0.47705217499E+02  0.88232304737E+02  0.16204447975E+03  0.12509054208E+03 0.  0.
        -24    2    1    2    0    0  0.23404705983E+02  0.32880884865E+02  0.12222328636E+03  0.14983920506E+03  0.76709339666E+02 0.  0.
        -11    1    3    3    0    0 -0.45366912239E+02 -0.44831017630E+01 -0.10561432195E+03  0.11503321229E+03  0.00000000000E+00 0.  1.
         12    1    3    3    0    0 -0.14907749169E+01 -0.76103000601E+02 -0.11434772683E+03  0.13736554059E+03  0.00000000000E+00 0. -1.
         11    1    5    5    0    0  0.31397380578E+02  0.16219796466E+02  0.10885004031E+02  0.36977839544E+02  0.00000000000E+00 0. -1.
        -12    1    5    5    0    0 -0.79926745944E+01  0.16661088399E+02  0.11133828233E+03  0.11286136551E+03  0.00000000000E+00 0.  1.
          5    1    4    4  501    0 -0.40840683308E+02 -0.57827336793E+01  0.15021718469E+01  0.41486507953E+02  0.41800000000E+01 0. -1.
         -5    1    4    4    0  501  0.64293664480E+02  0.53487951178E+02  0.86730132890E+02  0.12055797180E+03  0.41800000000E+01 0. -1.
</event>
<event>
11    1  0.8453735E-009  0.1391004E+03  0.7561462E-02  0.1108567E+00
         22   -1    0    0    0    0  0.00000000000E+00  0.00000000000E+00  0.62561007305E+03  0.62561007305E+03  0.00000000000E+00 0. -1.
         22   -1    0    0    0    0 -0.00000000000E+00 -0.00000000000E+00 -0.54679529065E+03  0.54679529065E+03  0.00000000000E+00 0. -1.
        -24    2    1    2    0    0  0.21882675295E+02  0.28291680922E+02 -0.49294316594E+03  0.50086908111E+03  0.81225617077E+02 0.  0.
         25    2    1    2    0    0 -0.74473690560E+02  0.28759588780E+00  0.80396938732E+02  0.16630247978E+03  0.12508570553E+03 0.  0.
         24    2    1    2    0    0  0.52591015265E+02 -0.28579276810E+02  0.49136100961E+03  0.50523380282E+03  0.10120752834E+03 0.  0.
        -11    1    5    5    0    0  0.26959487516E+02 -0.35642319950E+02  0.70093392669E+02  0.83128049624E+02  0.00000000000E+00 0.  1.
         12    1    5    5    0    0  0.25631527750E+02  0.70630431398E+01  0.42126761694E+03  0.42210575319E+03  0.00000000000E+00 0. -1.
         13    1    3    3    0    0 -0.21764704753E+02 -0.11303977516E+02 -0.23516865918E+03  0.23644403258E+03  0.00000000000E+00 0. -1.
        -14    1    3    3    0    0  0.43647380048E+02  0.39595658438E+02 -0.25777450676E+03  0.26442504853E+03  0.00000000000E+00 0.  1.
          5    1    4    4  501    0 -0.10470010018E+03  0.60065074743E+01  0.33711009893E+02  0.11023653522E+03  0.41800000000E+01 0. -1.
         -5    1    4    4    0  501  0.30226409617E+02 -0.57189115865E+01  0.46685928840E+02  0.56065944563E+02  0.41800000000E+01 0. -1.
</event>
<event>
11    1  0.8453735E-009  0.2997950E+03  0.7561462E-02  0.1000278E+00
         22   -1    0    0    0    0  0.00000000000E+00  0.00000000000E+00  0.12365553918E+04  0.12365553918E+04  0.00000000000E+00 0.  1.
         22   -1    0    0    0    0 -0.00000000000E+00 -0.00000000000E+00 -0.11876691498E+03  0.11876691498E+03  0.00000000000E+00 0.  1.
         24    2    1    2    0    0 -0.45273760539E+02  0.19634182943E+02  0.78787858252E+01  0.95931640414E+02  0.81887665941E+02 0.  0.
         25    2    1    2    0    0  0.29313969762E+03  0.46029443817E+02  0.54020858587E+03  0.62890556929E+03  0.12508919544E+03 0.  0.
        -24    2    1    2    0    0 -0.24786593708E+03 -0.65663626760E+02  0.56970110509E+03  0.63048509704E+03  0.84869746162E+02 0.  0.
        -13    1    3    3    0    0  0.15704788342E+02  0.23369159380E+02  0.18820205286E+02  0.33866770056E+02  0.00000000000E+00 0.  1.
         14    1    3    3    0    0 -0.60978548882E+02 -0.37349764374E+01 -0.10941419461E+02  0.62064870358E+02  0.00000000000E+00 0. -1.
         11    1    5    5    0    0 -0.86367991152E+02 -0.22666595729E+02  0.30177808851E+03  0.31471132671E+03  0.00000000000E+00 0. -1.
        -12    1    5    5    0    0 -0.16149794593E+03 -0.42997031031E+02  0.26792301658E+03  0.31577377033E+03  0.00000000000E+00 0.  1.
          5    1    4    4  501    0  0.17064775722E+03 -0.14043552444E+02  0.20601888654E+03  0.26791627875E+03  0.41800000000E+01 0. -1.
         -5    1    4    4    0  501  0.12249194040E+03  0.60072996262E+02  0.33418969933E+03  0.36098929054E+03  0.41800000000E+01 0. -1.
</event>
<event>
11    1  0.8453735E-009  0.1516849E+03  0.7561462E-02  0.1095169E+00
         22   -1    0    0    0    0  0.00000000000E+00  0.00000000000E+00  0.26699186756E+03  0.26699186756E+03  0.00000000000E+00 0. -1.
         22   -1    0    0    0    0 -0.00000000000E+00 -0.00000000000E+00 -0.11484061148E+04  0.11484061148E+04  0.00000000000E+00 0.  1.
         24    2    1    2    0    0  0.23190423885E+02  0.49089323380E+02 -0.10371968794E+04  0.10414415360E+04  0.76652128965E+02 0.  0.
         25    2    1    2    0    0 -0.58158935878E+02 -0.11777426511E+03 -0.14891919615E+01  0.18136068059E+03  0.12504494962E+03 0.  0.
        -24    2    1    2    0    0  0.34968511993E+02  0.68684941728E+02  0.15727182410E+03  0.19259576578E+03  0.80114195296E+02 0.  0.
        -13    1    3    3    0    0  0.51295058882E+02  0.28942236222E+02 -0.70162576116E+03  0.70409342052E+03  0.00000000000E+00 0.  1.
         14    1    3    3    0    0 -0.28104634997E+02  0.20147087158E+02 -0.33557111820E+03  0.33734811545E+03  0.00000000000E+00 0. -1.
         11    1    5    5    0    0  0.43743538948E+02  0.54339013176E+02  0.16091845888E+03  0.17538807246E+03  0.00000000000E+00 0. -1.
        -12    1    5    5    0    0 -0.87750269547E+01  0.14345928552E+02 -0.36466347792E+01  0.17207693317E+02  0.00000000000E+00 0.  1.
          5    1    4    4  501    0 -0.92164005540E+02 -0.59543003167E+02 -0.19304910829E+02  0.11148867712E+03  0.41800000000E+01 0. -1.
         -5    1    4    4    0  501  0.34005069662E+02 -0.58231261941E+02  0.17815718867E+02  0.69872003468E+02  0.41800000000E+01 0. -1.
</event>
<event>
11    1  0.8453735E-009  0.1586292E+03  0.7561462E-02  0.1088374E+00
         22   -1    0    0    0    0  0.00000000000E+00  0.00000000000E+00  0.12111482890E+04  0.12111482890E+04  0.00000000000E+00 0. -1.
         22   -1    0    0    0    0 -0.00000000000E+00 -0.00000000000E+00 -0.23899718988E+03  0.23899718988E+03  0.00000000000E+00 0.  1.
         24    2    1    2    0    0 -0.64595332045E+02 -0.46690255040E+02 -0.15494465908E+03  0.19156684972E+03  0.79608251439E+02 0.  0.
         25    2    1    2    0    0  0.10316991715E+03  0.13198369378E+03  0.11417699138E+03  0.23821623786E+03  0.12508742300E+03 0.  0.
        -24    2    1    2    0    0 -0.38574585104E+02 -0.85293438737E+02  0.10129187668E+04  0.10203623913E+04  0.79824884090E+02 0.  0.
        -11    1    3    3    0    0 -0.44758939243E+02 -0.54330563890E+02 -0.54848911973E+02  0.89238870227E+02  0.00000000000E+00 0.  1.
         12    1    3    3    0    0 -0.19836392801E+02  0.76403088500E+01 -0.10009574710E+03  0.10232797949E+03  0.00000000000E+00 0. -1.
         13    1    5    5    0    0 -0.38949304341E+02 -0.97717031516E+02  0.96978557765E+03  0.97547410687E+03  0.00000000000E+00 0. -1.
        -14    1    5    5    0    0  0.37471923721E+00  0.12423592779E+02  0.43133189151E+02  0.44888284422E+02  0.00000000000E+00 0.  1.
          5    1    4    4  501    0  0.81692479697E+02  0.32594131195E+02  0.38772354208E+01  0.88139344120E+02  0.41800000000E+01 0. -1.
         -5    1    4    4    0  501  0.21477437451E+02  0.99389562581E+02  0.11029975596E+03  0.15007689374E+03  0.41800000000E+01 0. -1.
</event>
<event>
11    1  0.8453735E-009  0.2447195E+03  0.7561462E-02  0.1026750E+00
         22   -1    0    0    0    0  0.00000000000E+00  0.00000000000E+00  0.86357819495E+03  0.86357819495E+03  0.00000000000E+00 0. -1.
         22   -1    0    0    0    0 -0.00000000000E+00 -0.00000000000E+00 -0.20738029254E+03  0.20738029254E+03  0.00000000000E+00 0.  1.
         24    2    1    2    0    0  0.18648179822E+02  0.56742408169E+02 -0.11997724533E+03  0.15618938718E+03  0.80206793816E+02 0.  0.
         25    2    1    2    0    0  0.17798329063E+03 -0.12646989999E+03  0.32124390109E+03  0.40806602472E+03  0.12509016427E+03 0.  0.
        -24    2    1    2    0    0 -0.19663147045E+03  0.69727491816E+02  0.45493124665E+03  0.50670307560E+03  0.79118325029E+02 0.  0.
        -11    1    3    3    0    0  0.25035364197E+02  0.41600529019E+01 -0.93670582443E+02  0.97047686814E+02  0.00000000000E+00 0.  1.
         12    1    3    3    0    0 -0.63871843751E+01  0.52582355267E+02 -0.26306662888E+02  0.59141700364E+02  0.00000000000E+00 0. -1.
         11    1    5    5    0    0 -0.19344073179E+03  0.72895945835E+02  0.45712966417E+03  0.50169778303E+03  0.00000000000E+00 0. -1.
        -12    1    5    5    0    0 -0.31907386611E+01 -0.31684540186E+01 -0.21984175210E+01  0.50052925657E+01  0.00000000000E+00 0.  1.
          5    1    4    4  501    0  0.17028957281E+03 -0.13767577842E+03  0.23730425232E+03  0.32293023881E+03  0.41800000000E+01 0. -1.
         -5    1    4    4    0  501  0.76937178169E+01  0.11205878436E+02  0.83939648776E+02  0.85135785907E+02  0.41800000000E+01 0. -1.
</event>
<event>
11    1  0.8453735E-009  0.1414739E+03  0.7561462E-02  0.1105924E+00
         22   -1    0    0    0    0  0.00000000000E+00  0.00000000000E+00  0.52742506994E+03  0.52742506994E+03  0.00000000000E+00 0.  1.
         22   -1    0    0    0    0 -0.00000000000E+00 -0.00000000000E+00 -0.58058522457E+03  0.58058522457E+03  0.00000000000E+00 0.  1.
         24    2    1    2    0    0  0.56761615540E+02 -0.30489187091E+02 -0.51580499207E+03  0.52630091398E+03  0.82379552561E+02 0.  0.
         25    2    1    2    0    0 -0.78557453428E+02  0.83313123556E+02  0.82472714491E+02  0.18857523284E+03  0.12508604942E+03 0.  0.
        -24    2    1    2    0    0  0.21795837887E+02 -0.52823936465E+02  0.38017212295E+03  0.39313414769E+03  0.82208200315E+02 0.  0.
        -11    1    3    3    0    0  0.56209343430E+02 -0.42933235527E+00 -0.45510538009E+03  0.45856360693E+03  0.00000000000E+00 0.  1.
         12    1    3    3    0    0  0.55227211068E+00 -0.30059854736E+02 -0.60699611978E+02  0.67737307044E+02  0.00000000000E+00 0. -1.
         13    1    5    5    0    0 -0.12007338036E+02  0.16321564315E+02  0.46895001348E+02  0.51085328421E+02  0.00000000000E+00 0. -1.
        -14    1    5    5    0    0  0.33803175923E+02 -0.69145500780E+02  0.33327712160E+03  0.34204881927E+03  0.00000000000E+00 0.  1.
          5    1    4    4  501    0 -0.10864930005E+03  0.78148023544E+02  0.47773931633E+02  0.14216752417E+03  0.41800000000E+01 0. -1.
         -5    1    4    4    0  501  0.30091846626E+02  0.51651000121E+01  0.34698782858E+02  0.46407708663E+02  0.41800000000E+01 0. -1.
</event>
<event>
11    1  0.8453735E-009  0.1456885E+03  0.7561462E-02  0.1101367E+00
         22   -1    0    0    0    0  0.00000000000E+00  0.00000000000E+00  0.14860221588E+04  0.14860221588E+04  0.00000000000E+00 0.  1.
         22   -1    0    0    0    0 -0.00000000000E+00 -0.00000000000E+00 -0.66753548978E+02  0.66753548978E+02  0.00000000000E+00 0. -1.
        -24    2    1    2    0    0  0.51127941071E+01  0.21830834899E+02 -0.23598731884E+02  0.85115787575E+02  0.78645223199E+02 0.  0.
         25    2    1    2    0    0  0.71042912737E+02 -0.13123993873E+02  0.58751317696E+03  0.60501089458E+03  0.12508842789E+03 0.  0.
         24    2    1    2    0    0 -0.76155706844E+02 -0.87068410251E+01  0.85535416472E+03  0.86264902560E+03  0.81591013581E+02 0.  0.
        -11    1    5    5    0    0 -0.52379987245E+02  0.74322968776E+01  0.78317668061E+03  0.78496153737E+03  0.00000000000E+00 0.  1.
         12    1    5    5    0    0 -0.23775719599E+02 -0.16139137903E+02  0.72177484109E+02  0.77687488227E+02  0.00000000000E+00 0. -1.
         13    1    3    3    0    0  0.41665153680E+02  0.12765053315E+02 -0.17527936395E+02  0.46969779344E+02  0.00000000000E+00 0. -1.
        -14    1    3    3    0    0 -0.36552359573E+02  0.90657815831E+01 -0.60707954893E+01  0.38146008231E+02  0.00000000000E+00 0.  1.
          5    1    4    4  501    0 -0.99240599790E+01  0.30332487338E+02  0.32991391852E+03  0.33148033544E+03  0.41800000000E+01 0.  1.
         -5    1    4    4    0  501  0.80966972716E+02 -0.43456481211E+02  0.25759925845E+03  0.27353055914E+03  0.41800000000E+01 0.  1.
</event>
<event>
11    1  0.8453735E-009  0.3970045E+03  0.7561462E-02  0.9658638E-01
         22   -1    0    0    0    0  0.00000000000E+00  0.00000000000E+00  0.10110024687E+04  0.10110024687E+04  0.00000000000E+00 0.  1.
         22   -1    0    0    0    0 -0.00000000000E+00 -0.00000000000E+00 -0.21451235758E+03  0.21451235758E+03  0.00000000000E+00 0. -1.
         24    2    1    2    0    0 -0.38159150355E+03 -0.24062990038E+02  0.15887415625E+03  0.42173642985E+03  0.80184260687E+02 0.  0.
         25    2    1    2    0    0  0.36668182742E+03  0.19316236432E+02  0.42606938377E+03  0.57620306693E+03  0.12508467134E+03 0.  0.
        -24    2    1    2    0    0  0.14909676136E+02  0.47467536062E+01  0.21154657108E+03  0.22757532948E+03  0.82424199978E+02 0.  0.
        -11    1    3    3    0    0 -0.10801777010E+03  0.27448202563E+02  0.33106460512E+02  0.11626383878E+03  0.00000000000E+00 0.  1.
         12    1    3    3    0    0 -0.27357373345E+03 -0.51511192601E+02  0.12576769574E+03  0.30547259106E+03  0.00000000000E+00 0. -1.
         13    1    5    5    0    0 -0.33420682688E+02 -0.98967384103E+00  0.10997574253E+03  0.11494601094E+03  0.00000000000E+00 0. -1.
        -14    1    5    5    0    0  0.48330358824E+02  0.57364274472E+01  0.10157082855E+03  0.11262931855E+03  0.00000000000E+00 0.  1.
          5    1    4    4  501    0  0.98994274500E+02 -0.84722314403E+01  0.20518501121E+03  0.22801317136E+03  0.41800000000E+01 0. -1.
         -5    1    4    4    0  501  0.26768755292E+03  0.27788467872E+02  0.22088437256E+03  0.34818989557E+03  0.41800000000E+01 0. -1.
</event>
<event>
11    1  0.8453735E-009  0.2061272E+03  0.7561462E-02  0.1050273E+00
         22   -1    0    0    0    0  0.00000000000E+00  0.00000000000E+00  0.20587951094E+04  0.20587951094E+04  0.00000000000E+00 0. -1.
         22   -1    0    0    0    0 -0.00000000000E+00 -0.00000000000E+00 -0.48871293338E+03  0.48871293338E+03  0.00000000000E+00 0.  1.
        -24    2    1    2    0    0 -0.48016345460E+02 -0.15639441378E+03 -0.44844942538E+03  0.48393050268E+03  0.79479948491E+02 0.  0.
         25    2    1    2    0    0  0.51956510657E+02  0.16251425317E+03  0.50080854387E+03  0.54366148530E+03  0.12509297145E+03 0.  0.
         24    2    1    2    0    0 -0.39401651972E+01 -0.61198393830E+01  0.15177230575E+04  0.15199160548E+04  0.81293031401E+02 0.  0.
        -13    1    5    5    0    0  0.29656243573E+02 -0.26051544012E+02  0.55571270045E+03  0.55711289805E+03  0.00000000000E+00 0.  1.
         14    1    5    5    0    0 -0.33596408770E+02  0.19931704629E+02  0.96201035706E+03  0.96280315674E+03  0.00000000000E+00 0. -1.
         11    1    3    3    0    0 -0.75020940937E+01 -0.96928866870E+02 -0.16519083929E+03  0.19167550713E+03  0.00000000000E+00 0. -1.
        -12    1    3    3    0    0 -0.40514251366E+02 -0.59465546914E+02 -0.28325858608E+03  0.29225499555E+03  0.00000000000E+00 0.  1.
          5    1    4    4  501    0  0.45539306795E+02  0.70644024986E+02  0.39254984470E+03  0.40146887763E+03  0.41800000000E+01 0. -1.
         -5    1    4    4    0  501  0.64172038620E+01  0.91870228181E+02  0.10825869917E+03  0.14219260767E+03  0.41800000000E+01 0.  1.
</event>
<event>
11    1  0.8453735E-009  0.2059325E+03  0.7561462E-02  0.1050406E+00
         22   -1    0    0    0    0  0.00000000000E+00  0.00000000000E+00  0.31497528755E+03  0.31497528755E+03  0.00000000000E+00 0.  1.
         22   -1    0    0    0    0 -0.00000000000E+00 -0.00000000000E+00 -0.27139285357E+04  0.27139285357E+04  0.00000000000E+00 0. -1.
         24    2    1    2    0    0  0.10229650931E+02 -0.13030853639E+02 -0.23505194568E+04  0.23519454247E+04  0.80194233263E+02 0.  0.
         25    2    1    2    0    0  0.12107696653E+03 -0.86687719266E+02 -0.30504405432E+03  0.36176550746E+03  0.12509202538E+03 0.  0.
        -24    2    1    2    0    0 -0.13130661747E+03  0.99718572905E+02  0.25661026292E+03  0.31519289115E+03  0.79451305983E+02 0.  0.
        -11    1    3    3    0    0 -0.33998850223E+02  0.30177961415E-01 -0.12457402794E+04  0.12462041432E+04  0.00000000000E+00 0.  1.
         12    1    3    3    0    0  0.44228501154E+02 -0.13061031600E+02 -0.11047791774E+04  0.11057412815E+04  0.00000000000E+00 0. -1.
         11    1    5    5    0    0 -0.14260399664E+02 -0.13889206017E+02  0.27429403972E+02  0.33891610240E+02  0.00000000000E+00 0. -1.
        -12    1    5    5    0    0 -0.11704621780E+03  0.11360777892E+03  0.22918085895E+03  0.28130128091E+03  0.00000000000E+00 0.  1.
          5    1    4    4  501    0  0.12550554899E+03 -0.35960241901E+02 -0.15198246374E+03  0.20040190495E+03  0.41800000000E+01 0. -1.
         -5    1    4    4    0  501 -0.44285824524E+01 -0.50727477365E+02 -0.15306159058E+03  0.16136360250E+03  0.41800000000E+01 0. -1.
</event>
<event>
11    1  0.8453735E-009  0.1350636E+03  0.7561462E-02  0.1113199E+00
         22   -1    0    0    0    0  0.00000000000E+00  0.00000000000E+00  0.17462364621E+04  0.17462364621E+04  0.00000000000E+00 0.  1.
         22   -1    0    0    0    0 -0.00000000000E+00 -0.00000000000E+00 -0.81426044737E+03  0.81426044737E+03  0.00000000000E+00 0.  1.
        -24    2    1    2    0    0 -0.97392845680E+01  0.57360774990E+02 -0.80246821565E+03  0.80866379023E+03  0.81220541284E+02 0.  0.
         25    2    1    2    0    0 -0.18143470347E+02  0.34962899756E+01  0.63966625749E+03  0.65204490019E+03  0.12509285086E+03 0.  0.
         24    2    1    2    0    0  0.27882754915E+02 -0.60857064965E+02  0.10947779729E+04  0.10997882190E+04  0.80711129598E+02 0.  0.
        -13    1    5    5    0    0  0.10025097226E+02 -0.48745151063E+01  0.74683541560E+03  0.74691860431E+03  0.00000000000E+00 0.  1.
         14    1    5    5    0    0  0.17857657689E+02 -0.55982549859E+02  0.34794255730E+03  0.35286961474E+03  0.00000000000E+00 0. -1.
         13    1    3    3    0    0 -0.87341354378E+01  0.30360579861E+01 -0.76790912909E+01  0.12019617839E+02  0.00000000000E+00 0. -1.
        -14    1    3    3    0    0 -0.10051491302E+01  0.54324717003E+02 -0.79478912436E+03  0.79664417239E+03  0.00000000000E+00 0.  1.
          5    1    4    4  501    0 -0.66424352742E+02  0.15945343058E+02  0.25070476339E+03  0.25987843194E+03  0.41800000000E+01 0.  1.
         -5    1    4    4    0  501  0.48280882395E+02 -0.12449053082E+02  0.38896149410E+03  0.39216646825E+03  0.41800000000E+01 0.  1.
</event>
<event>
11    1  0.8453735E-009  0.1743194E+03  0.7561462E-02  0.1074333E+00
         22   -1    0    0    0    0  0.00000000000E+00  0.00000000000E+00  0.16343604973E+04  0.16343604973E+04  0.00000000000E+00 0.  1.
         22   -1    0    0    0    0 -0.00000000000E+00 -0.00000000000E+00 -0.15976553734E+04  0.15976553734E+04  0.00000000000E+00 0. -1.
         24    2    1    2    0    0  0.10699972677E+03 -0.49691798928E+02 -0.15661599908E+04  0.15727347783E+04  0.81971640229E+02 0.  0.
         25    2    1    2    0    0  0.40031310058E+01  0.11876562687E+03  0.29062249997E+03  0.33797973188E+03  0.12509021740E+03 0.  0.
        -24    2    1    2    0    0 -0.11100285777E+03 -0.69073827938E+02  0.13122426148E+04  0.13213013605E+04  0.82242184878E+02 0.  0.
        -13    1    3    3    0    0  0.33005982288E+02 -0.59010859580E+02 -0.85740503542E+03  0.86006689924E+03  0.00000000000E+00 0.  1.
         14    1    3    3    0    0  0.73993744481E+02  0.93190606513E+01 -0.70875495537E+03  0.71266787908E+03  0.00000000000E+00 0. -1.
         11    1    5    5    0    0 -0.32431005622E+02 -0.33564910637E+02  0.83700525410E+03  0.83830553425E+03  0.00000000000E+00 0. -1.
        -12    1    5    5    0    0 -0.78571852151E+02 -0.35508917301E+02  0.47523736067E+03  0.48299582621E+03  0.00000000000E+00 0.  1.
          5    1    4    4  501    0 -0.53198431900E+02  0.42611483456E+02  0.17665577349E+03  0.18939521215E+03  0.41800000000E+01 0.  1.
         -5    1    4    4    0  501  0.57201562906E+02  0.76154143410E+02  0.11396672648E+03  0.14858451972E+03  0.41800000000E+01 0.  1.
</event>
<event>
11    1  0.8453735E-009  0.2169722E+03  0.7561462E-02  0.1043131E+00
         22   -1    0    0    0    0  0.00000000000E+00  0.00000000000E+00  0.18800896415E+03  0.18800896415E+03  0.00000000000E+00 0. -1.
         22   -1    0    0    0    0 -0.00000000000E+00 -0.00000000000E+00 -0.16107428936E+04  0.16107428936E+04  0.00000000000E+00 0. -1.
         24    2    1    2    0    0  0.46379483988E+02  0.17718574893E+03 -0.14483506310E+04  0.14620062484E+04  0.78720225444E+02 0.  0.
         25    2    1    2    0    0 -0.28760904993E+02 -0.12350542281E+03 -0.77546780401E+02  0.19430236827E+03  0.12513643772E+03 0.  0.
        -24    2    1    2    0    0 -0.17618578995E+02 -0.53680326115E+02  0.10316348189E+03  0.14244324114E+03  0.80345387006E+02 0.  0.
        -11    1    3    3    0    0  0.61578515945E+02  0.15800863344E+03 -0.11224628294E+04  0.11352010594E+04  0.00000000000E+00 0.  1.
         12    1    3    3    0    0 -0.15199031957E+02  0.19177115485E+02 -0.32588780158E+03  0.32680518898E+03  0.00000000000E+00 0. -1.
         11    1    5    5    0    0 -0.32276220492E+02 -0.57131614510E+02  0.10821898997E+03  0.12655878308E+03  0.00000000000E+00 0. -1.
        -12    1    5    5    0    0  0.14657641497E+02  0.34512883954E+01 -0.50555080775E+01  0.15884458057E+02  0.00000000000E+00 0.  1.
          5    1    4    4  501    0  0.48708681949E+02 -0.35116067413E+02 -0.32115393937E+02  0.68224224550E+02  0.41800000000E+01 0. -1.
         -5    1    4    4    0  501 -0.77469586942E+02 -0.88389355400E+02 -0.45431386464E+02  0.12607814372E+03  0.41800000000E+01 0. -1.
</event>
<event>
11    1  0.8453735E-009  0.2103803E+03  0.7561462E-02  0.1047417E+00
         22   -1    0    0    0    0  0.00000000000E+00  0.00000000000E+00  0.25184204352E+04  0.25184204352E+04  0.00000000000E+00 0.  1.
         22   -1    0    0    0    0 -0.00000000000E+00 -0.00000000000E+00 -0.58439895649E+02  0.58439895649E+02  0.00000000000E+00 0. -1.
        -24    2    1    2    0    0 -0.16873820925E+03 -0.29934178449E+02  0.13322226544E+03  0.23208334698E+03  0.82133243188E+02 0.  0.
         25    2    1    2    0    0  0.14408765886E+03  0.55375113443E+02  0.14161066496E+04  0.14299768381E+04  0.12509219730E+03 0.  0.
         24    2    1    2    0    0  0.24650550385E+02 -0.25440934994E+02  0.91065162447E+03  0.91480014573E+03  0.79486065952E+02 0.  0.
        -11    1    5    5    0    0 -0.15385307184E+02  0.17974298293E+02  0.40908744961E+03  0.40977106353E+03  0.00000000000E+00 0.  1.
         12    1    5    5    0    0  0.40035857569E+02 -0.43415233287E+02  0.50156417485E+03  0.50502908220E+03  0.00000000000E+00 0. -1.
         13    1    3    3    0    0 -0.12272900455E+03  0.15673263503E+02  0.73138761694E+02  0.14372660926E+03  0.00000000000E+00 0. -1.
        -14    1    3    3    0    0 -0.46009204698E+02 -0.45607441952E+02  0.60083503750E+02  0.88356737724E+02  0.00000000000E+00 0.  1.
          5    1    4    4  501    0  0.75068452240E+02  0.57960273552E+02  0.11833791749E+04  0.11871808666E+04  0.41800000000E+01 0. -1.
         -5    1    4    4    0  501  0.69019206622E+02 -0.25851601092E+01  0.23272747467E+03  0.24279597155E+03  0.41800000000E+01 0. -1.
</event>
<event>
11    1  0.8453735E-009  0.1701163E+03  0.7561462E-02  0.1077931E+00
         22   -1    0    0    0    0  0.00000000000E+00  0.00000000000E+00  0.93813253604E+03  0.93813253604E+03  0.00000000000E+00 0.  1.
         22   -1    0    0    0    0 -0.00000000000E+00 -0.00000000000E+00 -0.14724330301E+03  0.14724330301E+03  0.00000000000E+00 0.  1.
        -24    2    1    2    0    0  0.12682124426E+03 -0.30356680620E+02 -0.32094678878E+02  0.15874062902E+03  0.84636651847E+02 0.  0.
         25    2    1    2    0    0 -0.90351839711E+02 -0.32323669042E+02  0.82139525692E+02  0.17777089702E+03  0.12508923065E+03 0.  0.
         24    2    1    2    0    0 -0.36469404547E+02  0.62680349662E+02  0.74084438622E+03  0.74886431301E+03  0.81783317435E+02 0.  0.
        -11    1    5    5    0    0 -0.15837089259E+02  0.78725167795E+02  0.47520151740E+03  0.48193873841E+03  0.00000000000E+00 0.  1.
         12    1    5    5    0    0 -0.20632315288E+02 -0.16044818133E+02  0.26564286882E+03  0.26692557460E+03  0.00000000000E+00 0. -1.
         13    1    3    3    0    0  0.36703759960E+02  0.22748851435E+02  0.12612480128E+02  0.44986118878E+02  0.00000000000E+00 0. -1.
        -14    1    3    3    0    0  0.90117484299E+02 -0.53105532055E+02 -0.44707159006E+02  0.11375451014E+03  0.00000000000E+00 0.  1.
          5    1    4    4  501    0 -0.96951868708E+02 -0.38198816993E+02  0.97720855452E+01  0.10474626734E+03  0.41800000000E+01 0.  1.
         -5    1    4    4    0  501  0.66000289962E+01  0.58751479505E+01  0.72367440147E+02  0.73024629678E+02  0.41800000000E+01 0.  1.
</event>
<event>
11    1  0.8453735E-009  0.1389300E+03  0.7561462E-02  0.1108759E+00
         22   -1    0    0    0    0  0.00000000000E+00  0.00000000000E+00  0.11488772773E+04  0.11488772773E+04  0.00000000000E+00 0. -1.
         22   -1    0    0    0    0 -0.00000000000E+00 -0.00000000000E+00 -0.43574859464E+03  0.43574859464E+03  0.00000000000E+00 0. -1.
         24    2    1    2    0    0  0.31749013864E+02 -0.52956358029E+02 -0.41024071520E+03  0.42303071022E+03  0.82735492031E+02 0.  0.
         25    2    1    2    0    0  0.25974822130E+02  0.24176649209E+02  0.24368272350E+03  0.27620360400E+03  0.12509180379E+03 0.  0.
        -24    2    1    2    0    0 -0.57723835994E+02  0.28779708820E+02  0.87968667433E+03  0.88539155770E+03  0.76871663008E+02 0.  0.
        -13    1    3    3    0    0  0.41710133067E+02 -0.10654587164E+01 -0.10052275759E+03  0.10883793087E+03  0.00000000000E+00 0.  1.
         14    1    3    3    0    0 -0.99611192029E+01 -0.51890899313E+02 -0.30971795761E+03  0.31419277934E+03  0.00000000000E+00 0. -1.
         13    1    5    5    0    0 -0.63670797398E+02  0.40355458107E+02  0.84479992489E+03  0.84815649884E+03  0.00000000000E+00 0. -1.
        -14    1    5    5    0    0  0.59469614038E+01 -0.11575749287E+02  0.34886749440E+02  0.37235058855E+02  0.00000000000E+00 0.  1.
          5    1    4    4  501    0  0.67988503067E+02  0.91867610399E+01  0.75259144069E+02  0.10192273688E+03  0.41800000000E+01 0.  1.
         -5    1    4    4    0  501 -0.42013680937E+02  0.14989888169E+02  0.16842357943E+03  0.17428086711E+03  0.41800000000E+01 0.  1.
</event>
<event>
11    1  0.8453735E-009  0.1523444E+03  0.7561462E-02  0.1094507E+00
         22   -1    0    0    0    0  0.00000000000E+00  0.00000000000E+00  0.12210527708E+03  0.12210527708E+03  0.00000000000E+00 0.  1.
         22   -1    0    0    0    0 -0.00000000000E+00 -0.00000000000E+00 -0.85455339408E+03  0.85455339408E+03  0.00000000000E+00 0.  1.
        -24    2    1    2    0    0  0.83774683527E+02  0.31721147461E+02 -0.66465884064E+03  0.67561323604E+03  0.81593146002E+02 0.  0.
         25    2    1    2    0    0 -0.48528633278E+02 -0.64987378462E+02 -0.11996473839E+03  0.19135722570E+03  0.12509061422E+03 0.  0.
         24    2    1    2    0    0 -0.35246050249E+02  0.33266231001E+02  0.52175462029E+02  0.10968820943E+03  0.83428402034E+02 0.  0.
        -13    1    5    5    0    0 -0.34940547954E+02  0.59528470861E+02  0.29792387698E+02  0.75180230774E+02  0.00000000000E+00 0.  1.
         14    1    5    5    0    0 -0.30550229487E+00 -0.26262239861E+02  0.22383074331E+02  0.34507978652E+02  0.00000000000E+00 0. -1.
         11    1    3    3    0    0  0.49947753551E+02  0.32668226475E+02 -0.17719286667E+03  0.18697407067E+03  0.00000000000E+00 0. -1.
        -12    1    3    3    0    0  0.33826929976E+02 -0.94707901367E+00 -0.48746597397E+03  0.48863916536E+03  0.00000000000E+00 0.  1.
          5    1    4    4  501    0  0.33020472592E+01  0.86286299703E+01 -0.98088738315E+02  0.98611509245E+02  0.41800000000E+01 0.  1.
         -5    1    4    4    0  501 -0.51830680537E+02 -0.73616008432E+02 -0.21876000074E+02  0.92745716459E+02  0.41800000000E+01 0.  1.
</event>
<event>
11    1  0.1206319E-008  0.1423717E+03  0.7561462E-02  0.1104938E+00
         22   -1    0    0    0    0  0.00000000000E+00  0.00000000000E+00  0.98419149677E+03  0.98419149677E+03  0.00000000000E+00 0. -1.
         22   -1    0    0    0    0 -0.00000000000E+00 -0.00000000000E+00 -0.16317679746E+04  0.16317679746E+04  0.00000000000E+00 0.  1.
        -24    2    1    2    0    0 -0.12776162145E+02 -0.77145385952E+01 -0.12065605449E+04  0.12093760937E+04  0.81113765314E+02 0.  0.
         25    2    1    2    0    0 -0.14805380001E+02 -0.54532564289E+02 -0.40976924792E+03  0.43214496073E+03  0.12508169610E+03 0.  0.
         24    2    1    2    0    0  0.27581542145E+02  0.62247102885E+02  0.96875331502E+03  0.97443841696E+03  0.80073714817E+02 0.  0.
        -13    1    5    5    0    0 -0.26944817715E+02  0.13045643308E+02  0.20712775599E+03  0.20928000218E+03  0.00000000000E+00 0.  1.
         14    1    5    5    0    0  0.54526359860E+02  0.49201459576E+02  0.76162555903E+03  0.76515841478E+03  0.00000000000E+00 0. -1.
         13    1    3    3    0    0 -0.10056958145E+02  0.87064804551E+01 -0.31447034716E+02  0.34144709715E+02  0.00000000000E+00 0. -1.
        -14    1    3    3    0    0 -0.27192040001E+01 -0.16421019050E+02 -0.11751135102E+04  0.11752313840E+04  0.00000000000E+00 0.  1.
          5    1    4    4  501    0 -0.59970068525E+02 -0.26101144684E+01 -0.26570845781E+03  0.27243655916E+03  0.41800000000E+01 0. -1.
         -5    1    4    4    0  501  0.45164688524E+02 -0.51922449821E+02 -0.14406079011E+03  0.15970840157E+03  0.41800000000E+01 0. -1.
</event>
<event>
11    1  0.8453735E-009  0.1748291E+03  0.7561462E-02  0.1073904E+00
         22   -1    0    0    0    0  0.00000000000E+00  0.00000000000E+00  0.14989999000E+04  0.14989999000E+04  0.00000000000E+00 0.  1.
         22   -1    0    0    0    0 -0.00000000000E+00 -0.00000000000E+00 -0.11299026620E+04  0.11299026620E+04  0.00000000000E+00 0. -1.
        -24    2    1    2    0    0  0.89557375288E+01 -0.47882826556E+02 -0.10947397788E+04  0.10987971454E+04  0.80789931312E+02 0.  0.
         25    2    1    2    0    0 -0.12554067995E+03  0.91054498546E+01  0.24664076142E+03  0.30384602817E+03  0.12508945641E+03 0.  0.
         24    2    1    2    0    0  0.11658494242E+03  0.38777376701E+02  0.12171962555E+04  0.12262593885E+04  0.83962073229E+02 0.  0.
        -11    1    5    5    0    0  0.87137874962E+02  0.29893556305E+02  0.11308925595E+04  0.11346385394E+04  0.00000000000E+00 0.  1.
         12    1    5    5    0    0  0.29447067455E+02  0.88838203959E+01  0.86303696000E+02  0.91620849100E+02  0.00000000000E+00 0. -1.
         13    1    3    3    0    0  0.17267940874E+02 -0.56770458859E+01 -0.85727041782E+03  0.85746310702E+03  0.00000000000E+00 0. -1.
        -14    1    3    3    0    0 -0.83122033452E+01 -0.42205780670E+02 -0.23746936102E+03  0.24133403835E+03  0.00000000000E+00 0.  1.
          5    1    4    4  501    0 -0.74752253463E+02 -0.52781702550E+02  0.16907676642E+03  0.19229725132E+03  0.41800000000E+01 0. -1.
         -5    1    4    4    0  501 -0.50788426483E+02  0.61887152405E+02  0.77563995000E+02  0.11154877685E+03  0.41800000000E+01 0. -1.
</event>
<event>
11    1  0.8453735E-009  0.1320996E+03  0.7561462E-02  0.1116716E+00
         22   -1    0    0    0    0  0.00000000000E+00  0.00000000000E+00  0.22921335852E+04  0.22921335852E+04  0.00000000000E+00 0. -1.
         22   -1    0    0    0    0 -0.00000000000E+00 -0.00000000000E+00 -0.33217396973E+02  0.33217396973E+02  0.00000000000E+00 0. -1.
        -24    2    1    2    0    0  0.45676617108E+02 -0.27332056700E+02  0.58060665585E+02  0.11047296626E+03  0.77458638724E+02 0.  0.
         25    2    1    2    0    0 -0.22217924398E+02 -0.19650784446E+02  0.76565252004E+03  0.77636934531E+03  0.12508312995E+03 0.  0.
         24    2    1    2    0    0 -0.23458692710E+02  0.46982841146E+02  0.14352030026E+04  0.14385086706E+04  0.82108702883E+02 0.  0.
        -11    1    5    5    0    0  0.81765887264E+01 -0.89611322955E+00  0.14683341176E+02  0.16830333634E+02  0.00000000000E+00 0.  1.
         12    1    5    5    0    0 -0.31635281436E+02  0.47878954375E+02  0.14205196615E+04  0.14216783370E+04  0.00000000000E+00 0. -1.
         11    1    3    3    0    0  0.63470828620E+02 -0.13577519334E+02  0.23084131133E+02  0.68889565444E+02  0.00000000000E+00 0. -1.
        -12    1    3    3    0    0 -0.17794211511E+02 -0.13754537366E+02  0.34976534451E+02  0.41583400819E+02  0.00000000000E+00 0.  1.
          5    1    4    4  501    0 -0.44238087933E+02 -0.37932444681E+02  0.16530851795E+03  0.17532899729E+03  0.41800000000E+01 0.  1.
         -5    1    4    4    0  501  0.22020163534E+02  0.18281660236E+02  0.60034400209E+03  0.60104034802E+03  0.41800000000E+01 0.  1.
</event>
<event>
11    1  0.8453735E-009  0.1444966E+03  0.7561462E-02  0.1102639E+00
         22   -1    0    0    0    0  0.00000000000E+00  0.00000000000E+00  0.17862047099E+04  0.17862047099E+04  0.00000000000E+00 0.  1.
         22   -1    0    0    0    0 -0.00000000000E+00 -0.00000000000E+00 -0.16507186168E+03  0.16507186168E+03  0.00000000000E+00 0. -1.
        -24    2    1    2    0    0  0.15236306232E+02  0.64500249056E+02 -0.93832483118E+02  0.14108058896E+03  0.81894874921E+02 0.  0.
         25    2    1    2    0    0 -0.29844031760E+01 -0.11402894374E+03  0.10914010182E+03  0.20142027585E+03  0.12508820497E+03 0.  0.
         24    2    1    2    0    0 -0.12251903056E+02  0.49528694684E+02  0.16058252295E+04  0.16087757067E+04  0.82954241760E+02 0.  0.
        -11    1    5    5    0    0 -0.45777154424E+02  0.37499287059E+02  0.11709379623E+04  0.11724322820E+04  0.00000000000E+00 0.  1.
         12    1    5    5    0    0  0.33525251368E+02  0.12029407625E+02  0.43488726716E+03  0.43634342469E+03  0.00000000000E+00 0. -1.
         13    1    3    3    0    0 -0.17112986592E+02  0.56473469036E+02 -0.89875728713E+02  0.10751629470E+03  0.00000000000E+00 0. -1.
        -14    1    3    3    0    0  0.32349292824E+02  0.80267800201E+01 -0.39567544045E+01  0.33564294260E+02  0.00000000000E+00 0.  1.
          5    1    4    4  501    0  0.36337236318E+02 -0.86309821755E+01  0.74828374481E+02  0.83735575618E+02  0.41800000000E+01 0. -1.
         -5    1    4    4    0  501 -0.39321639494E+02 -0.10539796157E+03  0.34311727342E+02  0.11768470023E+03  0.41800000000E+01 0. -1.
</event>
<event>
11    1  0.8453735E-009  0.1303976E+03  0.7561462E-02  0.1118781E+00
         22   -1    0    0    0    0  0.00000000000E+00  0.00000000000E+00  0.14495527437E+04  0.14495527437E+04  0.00000000000E+00 0. -1.
         22   -1    0    0    0    0 -0.00000000000E+00 -0.00000000000E+00 -0.13488304936E+03  0.13488304936E+03  0.00000000000E+00 0. -1.
         24    2    1    2    0    0 -0.33099609756E+02 -0.10860970451E+02 -0.80645277832E+02  0.12126995851E+03  0.83601418385E+02 0.  0.
         25    2    1    2    0    0  0.55449077972E+02 -0.88587968757E+01  0.11238607991E+03  0.17728781271E+03  0.12508900450E+03 0.  0.
        -24    2    1    2    0    0 -0.22349468216E+02  0.19719767327E+02  0.12829288922E+04  0.12858780218E+04  0.81776381097E+02 0.  0.
        -13    1    3    3    0    0  0.14604026878E+02 -0.29665663182E+02 -0.11128421483E+02  0.34887976981E+02  0.00000000000E+00 0.  1.
         14    1    3    3    0    0 -0.47703636634E+02  0.18804692731E+02 -0.69516856349E+02  0.86381981532E+02  0.00000000000E+00 0. -1.
         13    1    5    5    0    0 -0.14065960643E+02 -0.31601768361E+02  0.57878434756E+03  0.57981707804E+03  0.00000000000E+00 0. -1.
        -14    1    5    5    0    0 -0.82835075736E+01  0.51321535688E+02  0.70414454468E+03  0.70606094378E+03  0.00000000000E+00 0.  1.
          5    1    4    4  501    0  0.56241500597E+01  0.53659442014E+02  0.27844767562E+02  0.60858608773E+02  0.41800000000E+01 0. -1.
         -5    1    4    4    0  501  0.49824927912E+02 -0.62518238890E+02  0.84541312350E+02  0.11642920394E+03  0.41800000000E+01 0. -1.
</event>
<event>
11    1  0.8453735E-009  0.1267296E+03  0.7561462E-02  0.1123354E+00
         22   -1    0    0    0    0  0.00000000000E+00  0.00000000000E+00  0.27284748846E+03  0.27284748846E+03  0.00000000000E+00 0. -1.
         22   -1    0    0    0    0 -0.00000000000E+00 -0.00000000000E+00 -0.13873023267E+04  0.13873023267E+04  0.00000000000E+00 0.  1.
         24    2    1    2    0    0  0.12252694528E+02 -0.36138324028E+01 -0.12133983393E+04  0.12162703276E+04  0.82551751235E+02 0.  0.
         25    2    1    2    0    0 -0.30710881834E+02  0.10755175995E+02 -0.14006694743E+03  0.19059151421E+03  0.12509014130E+03 0.  0.
        -24    2    1    2    0    0  0.18458187306E+02 -0.71413435927E+01  0.23901044842E+03  0.25328797344E+03  0.81468396135E+02 0.  0.
        -11    1    3    3    0    0  0.44455801962E+02  0.13284772388E+02 -0.76057972016E+03  0.76199364448E+03  0.00000000000E+00 0.  1.
         12    1    3    3    0    0 -0.32203107434E+02 -0.16898604791E+02 -0.45281861911E+03  0.45427668307E+03  0.00000000000E+00 0. -1.
         11    1    5    5    0    0  0.16947747296E+02  0.10326061365E+02  0.23429273513E+03  0.23513174906E+03  0.00000000000E+00 0. -1.
        -12    1    5    5    0    0  0.15104400096E+01 -0.17467404958E+02  0.47177132873E+01  0.18156224377E+02  0.00000000000E+00 0.  1.
          5    1    4    4  501    0 -0.39111502393E+02 -0.47515078881E+02 -0.37306816782E+02  0.72087886075E+02  0.41800000000E+01 0.  1.
         -5    1    4    4    0  501  0.84006205592E+01  0.58270254876E+02 -0.10276013065E+03  0.11850362813E+03  0.41800000000E+01 0.  1.
</event>
<event>
11    1  0.8453735E-009  0.1325644E+03  0.7561462E-02  0.1116158E+00
         22   -1    0    0    0    0  0.00000000000E+00  0.00000000000E+00  0.15503071699E+04  0.15503071699E+04  0.00000000000E+00 0.  1.
         22   -1    0    0    0    0 -0.00000000000E+00 -0.00000000000E+00 -0.91381878954E+02  0.91381878954E+02  0.00000000000E+00 0. -1.
         24    2    1    2    0    0  0.16642457767E+02 -0.41205122554E+01 -0.62060985220E+02  0.10336161352E+03  0.80858563195E+02 0.  0.
         25    2    1    2    0    0 -0.52342488728E+01  0.46249430904E+02  0.73587688913E+03  0.74788483362E+03  0.12510204309E+03 0.  0.
        -24    2    1    2    0    0 -0.11408208894E+02 -0.42128918649E+02  0.78510938702E+03  0.79044260170E+03  0.80608709022E+02 0.  0.
        -11    1    3    3    0    0 -0.15174290561E+02 -0.34273084801E+02 -0.19445272074E+02  0.42225845662E+02  0.00000000000E+00 0.  1.
         12    1    3    3    0    0  0.31816748327E+02  0.30152572545E+02 -0.42615713145E+02  0.61135767862E+02  0.00000000000E+00 0. -1.
         13    1    5    5    0    0  0.30766507826E+02 -0.15655099012E+02  0.17948337738E+03  0.18277292711E+03  0.00000000000E+00 0. -1.
        -14    1    5    5    0    0 -0.42174716720E+02 -0.26473819637E+02  0.60562600964E+03  0.60766967459E+03  0.00000000000E+00 0.  1.
          5    1    4    4  501    0 -0.31453132927E+02 -0.22537463292E+02  0.48058965314E+03  0.48216296408E+03  0.41800000000E+01 0.  1.
         -5    1    4    4    0  501  0.26218884054E+02  0.68786894196E+02  0.25528723599E+03  0.26572186954E+03  0.41800000000E+01 0.  1.
</event>
<event>
11    1  0.8453735E-009  0.1346811E+03  0.7561462E-02  0.1113648E+00
         22   -1    0    0    0    0  0.00000000000E+00  0.00000000000E+00  0.49222172982E+03  0.49222172982E+03  0.00000000000E+00 0.  1.
         22   -1    0    0    0    0 -0.00000000000E+00 -0.00000000000E+00 -0.49939248766E+03  0.49939248766E+03  0.00000000000E+00 0. -1.
        -24    2    1    2    0    0  0.30850865690E+02 -0.44089729507E+02 -0.42107104006E+03  0.43201293549E+03  0.80241357751E+02 0.  0.
         25    2    1    2    0    0 -0.12728969080E+02  0.13038809297E+01 -0.96387020366E+01  0.12611123649E+03  0.12508961840E+03 0.  0.
         24    2    1    2    0    0 -0.18121896610E+02  0.42785848577E+02  0.42353898425E+03  0.43349004550E+03  0.79807997030E+02 0.  0.
        -13    1    5    5    0    0 -0.27788286636E+02  0.17472294920E+02  0.38489905647E+03  0.38629619936E+03  0.00000000000E+00 0.  1.
         14    1    5    5    0    0  0.96663900256E+01  0.25313553657E+02  0.38639927780E+02  0.47193846142E+02  0.00000000000E+00 0. -1.
         11    1    3    3    0    0  0.30696412576E+02 -0.64746323769E+02 -0.26257405896E+03  0.27217548131E+03  0.00000000000E+00 0. -1.
        -12    1    3    3    0    0  0.15445311444E+00  0.20656594262E+02 -0.15849698110E+03  0.15983745418E+03  0.00000000000E+00 0.  1.
          5    1    4    4  501    0  0.32451250744E+02 -0.22663429284E+02 -0.47771423008E+02  0.62179546138E+02  0.41800000000E+01 0. -1.
         -5    1    4    4    0  501 -0.45180219824E+02  0.23967310214E+02  0.38132720971E+02  0.63931690349E+02  0.41800000000E+01 0. -1.
</event>
<event>
11    1  0.8453735E-009  0.1319375E+03  0.7561462E-02  0.1116911E+00
         22   -1    0    0    0    0  0.00000000000E+00  0.00000000000E+00  0.25976689505E+03  0.25976689505E+03  0.00000000000E+00 0. -1.
         22   -1    0    0    0    0 -0.00000000000E+00 -0.00000000000E+00 -0.27688574567E+04  0.27688574567E+04  0.00000000000E+00 0. -1.
        -24    2    1    2    0    0  0.10007769047E+02  0.20633304523E+02 -0.24016322081E+04  0.24031599786E+04  0.82551384446E+02 0.  0.
         25    2    1    2    0    0  0.27879170983E+02 -0.38645984451E+02 -0.34537190031E+03  0.37040545144E+03  0.12509072164E+03 0.  0.
         24    2    1    2    0    0 -0.37886940030E+02  0.18012679928E+02  0.23791354678E+03  0.25505892169E+03  0.81806606894E+02 0.  0.
        -13    1    5    5    0    0  0.99375384280E+01  0.15400547319E+02  0.76399084057E+01  0.19856981850E+02  0.00000000000E+00 0.  1.
         14    1    5    5    0    0 -0.47824478458E+02  0.26121326084E+01  0.23027363837E+03  0.23520193984E+03  0.00000000000E+00 0. -1.
         13    1    3    3    0    0  0.13654729081E+02 -0.25176826010E+02 -0.15683729616E+04  0.15686344606E+04  0.00000000000E+00 0. -1.
        -14    1    3    3    0    0 -0.36469600335E+01  0.45810130534E+02 -0.83325924650E+03  0.83452551803E+03  0.00000000000E+00 0.  1.
          5    1    4    4  501    0 -0.31173392226E+02  0.26372505356E+02 -0.67986013879E+02  0.79415740913E+02  0.41800000000E+01 0. -1.
         -5    1    4    4    0  501  0.59052563209E+02 -0.65018489807E+02 -0.27738588643E+03  0.29098971052E+03  0.41800000000E+01 0. -1.
</event>
<event>
11    1  0.8453735E-009  0.1344175E+03  0.7561462E-02  0.1113957E+00
         22   -1    0    0    0    0  0.00000000000E+00  0.00000000000E+00  0.18978566581E+03  0.18978566581E+03  0.00000000000E+00 0.  1.
         22   -1    0    0    0    0 -0.00000000000E+00 -0.00000000000E+00 -0.25560466711E+04  0.25560466711E+04  0.00000000000E+00 0.  1.
        -24    2    1    2    0    0 -0.68078987998E+01  0.29701572910E+02 -0.24701334995E+04  0.24715973449E+04  0.79406539920E+02 0.  0.
         25    2    1    2    0    0 -0.22151855591E+02  0.17924942902E+02 -0.32321159648E+01  0.12833350631E+03  0.12508810489E+03 0.  0.
         24    2    1    2    0    0  0.28959754391E+02 -0.47626515812E+02  0.10710461019E+03  0.14590148578E+03  0.81907836284E+02 0.  0.
        -11    1    5    5    0    0  0.44630777825E+02 -0.61151038005E+02  0.96471981677E+02  0.12263033486E+03  0.00000000000E+00 0.  1.
         12    1    5    5    0    0 -0.15671023434E+02  0.13524522193E+02  0.10632628517E+02  0.23271150921E+02  0.00000000000E+00 0. -1.
         11    1    3    3    0    0  0.27993945142E+02  0.29291283102E+01 -0.39595745175E+03  0.39695660261E+03  0.00000000000E+00 0. -1.
        -12    1    3    3    0    0 -0.34801843942E+02  0.26772444600E+02 -0.20741760478E+04  0.20746407422E+04  0.00000000000E+00 0.  1.
          5    1    4    4  501    0  0.30009957602E+02 -0.14119718727E+02 -0.43558734176E+02  0.54907192017E+02  0.41800000000E+01 0.  1.
         -5    1    4    4    0  501 -0.52161813193E+02  0.32044661629E+02  0.40326618212E+02  0.73426314295E+02  0.41800000000E+01 0.  1.
</event>
<event>
11    1  0.8453735E-009  0.2114033E+03  0.7561462E-02  0.1046740E+00
         22   -1    0    0    0    0  0.00000000000E+00  0.00000000000E+00  0.24836957390E+03  0.24836957390E+03  0.00000000000E+00 0.  1.
         22   -1    0    0    0    0 -0.00000000000E+00 -0.00000000000E+00 -0.85884146157E+03  0.85884146157E+03  0.00000000000E+00 0. -1.
        -24    2    1    2    0    0 -0.11478750414E+03  0.15254947883E+02 -0.57757240936E+03  0.59450836837E+03  0.80258504047E+02 0.  0.
         25    2    1    2    0    0  0.25911636554E+03  0.28949761737E+02 -0.12915510999E+03  0.31671556264E+03  0.12509326754E+03 0.  0.
         24    2    1    2    0    0 -0.14432886139E+03 -0.44204709620E+02  0.96255631683E+02  0.19598710446E+03  0.79755387900E+02 0.  0.
        -13    1    5    5    0    0 -0.14154564573E+03 -0.16823048133E+02  0.86773900892E+02  0.16687688471E+03  0.00000000000E+00 0.  1.
         14    1    5    5    0    0 -0.27832156667E+01 -0.27381661487E+02  0.94817307908E+01  0.29110219752E+02  0.00000000000E+00 0. -1.
         11    1    3    3    0    0 -0.97707989477E+02  0.43465970299E+02 -0.40965831917E+03  0.42338644315E+03  0.00000000000E+00 0. -1.
        -12    1    3    3    0    0 -0.17079514666E+02 -0.28211022416E+02 -0.16791409019E+03  0.17112192522E+03  0.00000000000E+00 0.  1.
          5    1    4    4  501    0  0.22432902147E+03  0.34571414034E+02 -0.53622921885E+02  0.23326290467E+03  0.41800000000E+01 0. -1.
         -5    1    4    4    0  501  0.34787344070E+02 -0.56216522973E+01 -0.75532188108E+02  0.83452657970E+02  0.41800000000E+01 0. -1.
</event>
<event>
11    1  0.8453735E-009  0.9614348E+03  0.7561462E-02  0.8716585E-01
         22   -1    0    0    0    0  0.00000000000E+00  0.00000000000E+00  0.11845362171E+04  0.11845362171E+04  0.00000000000E+00 0. -1.
         22   -1    0    0    0    0 -0.00000000000E+00 -0.00000000000E+00 -0.10492176264E+04  0.10492176264E+04  0.00000000000E+00 0. -1.
         24    2    1    2    0    0  0.95135299769E+03  0.24915812129E+03 -0.28988788986E+03  0.10278230124E+04  0.72338513814E+02 0.  0.
         25    2    1    2    0    0 -0.82413892146E+03 -0.38820075327E+03  0.30934017674E+03  0.97017609866E+03  0.12508209614E+03 0.  0.
        -24    2    1    2    0    0 -0.12721407623E+03  0.13904263198E+03  0.11586630380E+03  0.23575473239E+03  0.81480174205E+02 0.  0.
        -11    1    3    3    0    0  0.35557847648E+03  0.58886282015E+02 -0.94766760629E+02  0.37267195503E+03  0.00000000000E+00 0.  1.
         12    1    3    3    0    0  0.59577452120E+03  0.19027183927E+03 -0.19512112923E+03  0.65515105740E+03  0.00000000000E+00 0. -1.
         13    1    5    5    0    0 -0.20203925716E+02 -0.17429383187E+01 -0.58155151931E+01  0.21096366163E+02  0.00000000000E+00 0. -1.
        -14    1    5    5    0    0 -0.10701015051E+03  0.14078557030E+03  0.12168181899E+03  0.21465836622E+03  0.00000000000E+00 0.  1.
          5    1    4    4  501    0 -0.22695069493E+03 -0.16937054834E+03  0.10660485183E+03  0.30261372640E+03  0.41800000000E+01 0. -1.
         -5    1    4    4    0  501 -0.59718822653E+03 -0.21883020493E+03  0.20273532491E+03  0.66756237226E+03  0.41800000000E+01 0. -1.
</event>
<event>
11    1  0.8453735E-009  0.2186041E+03  0.7561462E-02  0.1042095E+00
         22   -1    0    0    0    0  0.00000000000E+00  0.00000000000E+00  0.61625338673E+03  0.61625338673E+03  0.00000000000E+00 0.  1.
         22   -1    0    0    0    0 -0.00000000000E+00 -0.00000000000E+00 -0.12717969292E+04  0.12717969292E+04  0.00000000000E+00 0. -1.
        -24    2    1    2    0    0  0.14329999380E+03 -0.10893867674E+03 -0.12212304876E+04  0.12362340884E+04  0.66845298371E+02 0.  0.
         25    2    1    2    0    0 -0.12067708269E+03  0.95971095316E+02  0.21885591255E+03  0.29549935612E+03  0.12509416288E+03 0.  0.
         24    2    1    2    0    0 -0.22622911113E+02  0.12967581422E+02  0.34683103260E+03  0.35631687142E+03  0.77395047708E+02 0.  0.
        -13    1    5    5    0    0 -0.50452186713E+02  0.57097581376E+01  0.25791296793E+03  0.26286331716E+03  0.00000000000E+00 0.  1.
         14    1    5    5    0    0  0.27829275600E+02  0.72578232843E+01  0.88918064669E+02  0.93453554260E+02  0.00000000000E+00 0. -1.
         13    1    3    3    0    0  0.14696663118E+03 -0.97592572222E+02 -0.11857848626E+04  0.11988366199E+04  0.00000000000E+00 0. -1.
        -14    1    3    3    0    0 -0.36666373796E+01 -0.11346104516E+02 -0.35445625028E+02  0.37397468510E+02  0.00000000000E+00 0.  1.
          5    1    4    4  501    0  0.17080743631E+02  0.33910811518E+02  0.13499574417E+02  0.40514267243E+02  0.41800000000E+01 0. -1.
         -5    1    4    4    0  501 -0.13775782632E+03  0.62060283798E+02  0.20535633814E+03  0.25498508888E+03  0.41800000000E+01 0. -1.
</event>
<event>
11    1  0.8453735E-009  0.1349198E+03  0.7561462E-02  0.1113368E+00
         22   -1    0    0    0    0  0.00000000000E+00  0.00000000000E+00  0.11474571351E+03  0.11474571351E+03  0.00000000000E+00 0.  1.
         22   -1    0    0    0    0 -0.00000000000E+00 -0.00000000000E+00 -0.52445875512E+03  0.52445875512E+03  0.00000000000E+00 0.  1.
        -24    2    1    2    0    0  0.44935889385E+02 -0.35740164750E+02 -0.35779800105E+03  0.37113565818E+03  0.80160299944E+02 0.  0.
         25    2    1    2    0    0 -0.57914018127E+01  0.23330951436E+02 -0.10348086731E+03  0.16411094908E+03  0.12508493147E+03 0.  0.
         24    2    1    2    0    0 -0.39144487572E+02  0.12409213314E+02  0.51565826736E+02  0.10395786137E+03  0.80386086921E+02 0.  0.
        -13    1    5    5    0    0 -0.44867256834E+02 -0.25675032200E+02  0.31443395817E+02  0.60505910081E+02  0.00000000000E+00 0.  1.
         14    1    5    5    0    0  0.57227692616E+01  0.38084245514E+02  0.20122430919E+02  0.43451951285E+02  0.00000000000E+00 0. -1.
         11    1    3    3    0    0  0.90155107606E+01  0.15994103011E+02 -0.18582414014E+02  0.26122727193E+02  0.00000000000E+00 0. -1.
        -12    1    3    3    0    0  0.35920378625E+02 -0.51734267761E+02 -0.33921558703E+03  0.34501293098E+03  0.00000000000E+00 0.  1.
          5    1    4    4  501    0 -0.49362092138E+02  0.60301628595E+01  0.57289219049E+00  0.49907710926E+02  0.41800000000E+01 0. -1.
         -5    1    4    4    0  501  0.43570690325E+02  0.17300788576E+02 -0.10405375950E+03  0.11420323816E+03  0.41800000000E+01 0. -1.
</event>
<event>
11    1  0.8453735E-009  0.1361862E+03  0.7561462E-02  0.1111893E+00
         22   -1    0    0    0    0  0.00000000000E+00  0.00000000000E+00  0.32949733679E+03  0.32949733679E+03  0.00000000000E+00 0.  1.
         22   -1    0    0    0    0 -0.00000000000E+00 -0.00000000000E+00 -0.16514122470E+04  0.16514122470E+04  0.00000000000E+00 0.  1.
        -24    2    1    2    0    0  0.31347346775E+02 -0.45543013336E+02 -0.15444820288E+04  0.15475177923E+04  0.79559775260E+02 0.  0.
         25    2    1    2    0    0 -0.22195084802E+02  0.23382339592E+01 -0.57116964197E+02  0.13931413767E+03  0.12509193510E+03 0.  0.
         24    2    1    2    0    0 -0.91522619728E+01  0.43204779377E+02  0.27968408277E+03  0.29407765389E+03  0.79423318377E+02 0.  0.
        -11    1    5    5    0    0  0.32362969887E+02  0.36570743639E+02  0.15020039220E+03  0.15793966863E+03  0.00000000000E+00 0.  1.
         12    1    5    5    0    0 -0.41515231860E+02  0.66340357376E+01  0.12948369057E+03  0.13613798526E+03  0.00000000000E+00 0. -1.
         11    1    3    3    0    0 -0.21572438935E+02  0.97732434548E+00 -0.61047672203E+03  0.61085853798E+03  0.00000000000E+00 0. -1.
        -12    1    3    3    0    0  0.52919785709E+02 -0.46520337681E+02 -0.93400530678E+03  0.93665925428E+03  0.00000000000E+00 0.  1.
          5    1    4    4  501    0 -0.30424731900E+02  0.48077391999E+02  0.96487448852E+01  0.57859058154E+02  0.41800000000E+01 0.  1.
         -5    1    4    4    0  501  0.82296470984E+01 -0.45739158039E+02 -0.66765709082E+02  0.81455079515E+02  0.41800000000E+01 0.  1.
</event>
<event>
11    1  0.8453735E-009  0.1395637E+03  0.7561462E-02  0.1108047E+00
         22   -1    0    0    0    0  0.00000000000E+00  0.00000000000E+00  0.26530354100E+03  0.26530354100E+03  0.00000000000E+00 0. -1.
         22   -1    0    0    0    0 -0.00000000000E+00 -0.00000000000E+00 -0.32405982086E+03  0.32405982086E+03  0.00000000000E+00 0.  1.
         24    2    1    2    0    0  0.57826515892E+02  0.22239763756E+02 -0.17556159736E+03  0.20304970533E+03  0.81048105078E+02 0.  0.
         25    2    1    2    0    0 -0.72381043416E+02  0.36257125426E+02 -0.76909626992E+02  0.16770638955E+03  0.12512692668E+03 0.  0.
        -24    2    1    2    0    0  0.14554527524E+02 -0.58496889182E+02  0.19371494449E+03  0.21860726698E+03  0.81424425968E+02 0.  0.
        -11    1    3    3    0    0  0.74602602116E+02  0.32677848044E+01 -0.11182334677E+03  0.13446444713E+03  0.00000000000E+00 0.  1.
         12    1    3    3    0    0 -0.16776086223E+02  0.18971978951E+02 -0.63738250590E+02  0.68585258201E+02  0.00000000000E+00 0. -1.
         11    1    5    5    0    0  0.50957086277E+01  0.73780217162E+01  0.11576841621E+03  0.11611514821E+03  0.00000000000E+00 0. -1.
        -12    1    5    5    0    0  0.94588188958E+01 -0.65874910898E+02  0.77946528274E+02  0.10249211877E+03  0.00000000000E+00 0.  1.
          5    1    4    4  501    0 -0.38824005162E+02 -0.45567463040E+02 -0.37749171071E+02  0.70895482094E+02  0.41800000000E+01 0. -1.
         -5    1    4    4    0  501 -0.33557038254E+02  0.81824588467E+02 -0.39160455921E+02  0.96810907454E+02  0.41800000000E+01 0. -1.
</event>
<event>
11    1  0.8453735E-009  0.1527000E+03  0.7561462E-02  0.1094151E+00
         22   -1    0    0    0    0  0.00000000000E+00  0.00000000000E+00  0.15104524982E+03  0.15104524982E+03  0.00000000000E+00 0. -1.
         22   -1    0    0    0    0 -0.00000000000E+00 -0.00000000000E+00 -0.14372685949E+04  0.14372685949E+04  0.00000000000E+00 0.  1.
         24    2    1    2    0    0  0.51424983027E+02 -0.54161266672E+02 -0.61175931050E+03  0.62188441025E+03  0.83143214050E+02 0.  0.
         25    2    1    2    0    0 -0.11605466877E+03  0.10975591663E+03 -0.78177265609E+03  0.80766968187E+03  0.12508709694E+03 0.  0.
        -24    2    1    2    0    0  0.64629685739E+02 -0.55594649956E+02  0.10730862156E+03  0.15875975255E+03  0.80135868288E+02 0.  0.
        -13    1    3    3    0    0  0.59922734720E+02 -0.41586676740E+02 -0.59426468562E+03  0.59872422900E+03  0.00000000000E+00 0.  1.
         14    1    3    3    0    0 -0.84977516927E+01 -0.12574589933E+02 -0.17494624881E+02  0.23160181250E+02  0.00000000000E+00 0. -1.
         11    1    5    5    0    0  0.38289800973E+02  0.11578683885E+02  0.61262360579E+02  0.73165918314E+02  0.00000000000E+00 0. -1.
        -12    1    5    5    0    0  0.26339884766E+02 -0.67173333841E+02  0.46046260979E+02  0.85593834234E+02  0.00000000000E+00 0.  1.
          5    1    4    4  501    0 -0.78513860007E+02 -0.45357992374E+01 -0.38789417696E+03  0.39580849486E+03  0.41800000000E+01 0.  1.
         -5    1    4    4    0  501 -0.37540808759E+02  0.11429171587E+03 -0.39387847914E+03  0.41186118701E+03  0.41800000000E+01 0.  1.
</event>
<event>
11    1  0.8453735E-009  0.2045800E+03  0.7561462E-02  0.1051331E+00
         22   -1    0    0    0    0  0.00000000000E+00  0.00000000000E+00  0.20609411094E+04  0.20609411094E+04  0.00000000000E+00 0.  1.
         22   -1    0    0    0    0 -0.00000000000E+00 -0.00000000000E+00 -0.29629305570E+03  0.29629305570E+03  0.00000000000E+00 0. -1.
        -24    2    1    2    0    0 -0.14961561622E+03  0.72653983122E+02 -0.22681199062E+03  0.29517938416E+03  0.89575419990E+02 0.  0.
         25    2    1    2    0    0  0.11113715643E+03 -0.69973166517E+02  0.20670637025E+03  0.27499324896E+03  0.12508417925E+03 0.  0.
         24    2    1    2    0    0  0.38478459787E+02 -0.26808166052E+01  0.17847536741E+04  0.17870615320E+04  0.82191625918E+02 0.  0.
        -13    1    5    5    0    0 -0.24315166235E+02  0.34939498141E+00  0.75433426614E+03  0.75472613209E+03  0.00000000000E+00 0.  1.
         14    1    5    5    0    0  0.62793626022E+02 -0.30302115866E+01  0.10304194079E+04  0.10323353999E+04  0.00000000000E+00 0. -1.
         13    1    3    3    0    0 -0.11336824000E+03  0.87104801973E+02 -0.14046580898E+03  0.20042516773E+03  0.00000000000E+00 0. -1.
        -14    1    3    3    0    0 -0.36247376220E+02 -0.14450818850E+02 -0.86346181638E+02  0.94754216433E+02  0.00000000000E+00 0.  1.
          5    1    4    4  501    0  0.10504117820E+03 -0.57835408727E+02  0.22308782728E+03  0.25330660216E+03  0.41800000000E+01 0.  1.
         -5    1    4    4    0  501  0.60959782335E+01 -0.12137757790E+02 -0.16381457028E+02  0.21686646793E+02  0.41800000000E+01 0.  1.
</event>
<event>
11    1  0.8453735E-009  0.1763994E+03  0.7561462E-02  0.1072593E+00
         22   -1    0    0    0    0  0.00000000000E+00  0.00000000000E+00  0.52682881681E+03  0.52682881681E+03  0.00000000000E+00 0.  1.
         22   -1    0    0    0    0 -0.00000000000E+00 -0.00000000000E+00 -0.38478002623E+03  0.38478002623E+03  0.00000000000E+00 0.  1.
         24    2    1    2    0    0  0.96145970367E+02 -0.72770693973E+02 -0.22842511807E+03  0.27116092967E+03  0.82526321213E+02 0.  0.
         25    2    1    2    0    0 -0.10495727303E+03  0.86515052523E+02 -0.65843197408E+02  0.19617526710E+03  0.12509406582E+03 0.  0.
        -24    2    1    2    0    0  0.88113026610E+01 -0.13744358550E+02  0.43631710606E+03  0.44427264627E+03  0.82091538795E+02 0.  0.
        -11    1    3    3    0    0  0.86885598536E+02 -0.79340616179E+02 -0.23124861569E+03  0.25946090817E+03  0.00000000000E+00 0.  1.
         12    1    3    3    0    0  0.92603718308E+01  0.65699222064E+01  0.28234976202E+01  0.11700021498E+02  0.00000000000E+00 0. -1.
         11    1    5    5    0    0 -0.91667363590E+01 -0.20222797908E+02  0.29079827883E+02  0.36587251884E+02  0.00000000000E+00 0. -1.
        -12    1    5    5    0    0  0.17978039020E+02  0.64784393581E+01  0.40723727817E+03  0.40768539439E+03  0.00000000000E+00 0.  1.
          5    1    4    4  501    0 -0.10556312977E+02  0.79134231331E+02 -0.62256351399E+02  0.10132614668E+03  0.41800000000E+01 0.  1.
         -5    1    4    4    0  501 -0.94400960051E+02  0.73808211924E+01 -0.35868460093E+01  0.94849120420E+02  0.41800000000E+01 0.  1.
</event>
<event>
11    1  0.8453735E-009  0.1390977E+03  0.7561462E-02  0.1108570E+00
         22   -1    0    0    0    0  0.00000000000E+00  0.00000000000E+00  0.62350912521E+03  0.62350912521E+03  0.00000000000E+00 0. -1.
         22   -1    0    0    0    0 -0.00000000000E+00 -0.00000000000E+00 -0.16399711931E+04  0.16399711931E+04  0.00000000000E+00 0.  1.
         24    2    1    2    0    0 -0.23084869023E+02 -0.17940952616E+02 -0.15424585857E+04  0.15450255017E+04  0.84086403308E+02 0.  0.
         25    2    1    2    0    0 -0.35957407022E+02 -0.10971482821E+01 -0.45968387721E+02  0.13803979209E+03  0.12509097760E+03 0.  0.
        -24    2    1    2    0    0  0.59042276046E+02  0.19038100898E+02  0.57196490558E+03  0.58041502450E+03  0.76741825652E+02 0.  0.
        -13    1    3    3    0    0  0.31912470652E+02 -0.31634743957E+01 -0.54622916972E+03  0.54716973528E+03  0.00000000000E+00 0.  1.
         14    1    3    3    0    0 -0.54997339675E+02 -0.14777478220E+02 -0.99622941602E+03  0.99785576642E+03  0.00000000000E+00 0. -1.
         13    1    5    5    0    0  0.47620581663E+02  0.32370904568E+02  0.54626270649E+03  0.54928912220E+03  0.00000000000E+00 0. -1.
        -14    1    5    5    0    0  0.11421694382E+02 -0.13332803670E+02  0.25702199093E+02  0.31125902308E+02  0.00000000000E+00 0.  1.
          5    1    4    4  501    0  0.46612614420E+02 -0.67438705425E+01 -0.17506868723E+02  0.50420020483E+02  0.41800000000E+01 0. -1.
         -5    1    4    4    0  501 -0.82570021443E+02  0.56467222604E+01 -0.28461518999E+02  0.87619771610E+02  0.41800000000E+01 0. -1.
</event>
<event>
11    1  0.8453735E-009  0.1614466E+03  0.7561462E-02  0.1085725E+00
         22   -1    0    0    0    0  0.00000000000E+00  0.00000000000E+00  0.15667035266E+03  0.15667035266E+03  0.00000000000E+00 0.  1.
         22   -1    0    0    0    0 -0.00000000000E+00 -0.00000000000E+00 -0.13837171972E+04  0.13837171972E+04  0.00000000000E+00 0. -1.
        -24    2    1    2    0    0  0.18864627391E+02  0.99507784647E+02 -0.10346238383E+04  0.10425735481E+04  0.79091359381E+02 0.  0.
         25    2    1    2    0    0 -0.25097455426E+02 -0.10316736144E+03 -0.31249538335E+03  0.35295104365E+03  0.12509071855E+03 0.  0.
         24    2    1    2    0    0  0.62328280352E+01  0.36595767930E+01  0.12007237707E+03  0.14486295810E+03  0.80719639786E+02 0.  0.
        -11    1    5    5    0    0  0.34510468529E+02  0.10049024577E+02  0.10734271537E+03  0.11320076801E+03  0.00000000000E+00 0.  1.
         12    1    5    5    0    0 -0.28277640494E+02 -0.63894477844E+01  0.12729661699E+02  0.31662190099E+02  0.00000000000E+00 0. -1.
         11    1    3    3    0    0 -0.14002680338E+02  0.18393952336E+02 -0.52354910967E+03  0.52405923594E+03  0.00000000000E+00 0. -1.
        -12    1    3    3    0    0  0.32867307729E+02  0.81113832311E+02 -0.51107472861E+03  0.51851431218E+03  0.00000000000E+00 0.  1.
          5    1    4    4  501    0 -0.16949059039E+02  0.22312395559E+02 -0.11767555840E+03  0.12103769265E+03  0.41800000000E+01 0.  1.
         -5    1    4    4    0  501 -0.81483963878E+01 -0.12547975700E+03 -0.19481982495E+03  0.23191335100E+03  0.41800000000E+01 0.  1.
</event>
<event>
11    1  0.8453735E-009  0.1461742E+03  0.7561462E-02  0.1100853E+00
         22   -1    0    0    0    0  0.00000000000E+00  0.00000000000E+00  0.89103374128E+03  0.89103374128E+03  0.00000000000E+00 0.  1.
         22   -1    0    0    0    0 -0.00000000000E+00 -0.00000000000E+00 -0.80792089963E+03  0.80792089963E+03  0.00000000000E+00 0.  1.
         24    2    1    2    0    0 -0.74791924669E+02 -0.14874336374E+01 -0.72928653357E+03  0.73753920821E+03  0.80679558419E+02 0.  0.
         25    2    1    2    0    0  0.92059980126E+02  0.33342742794E+02  0.15536873625E+02  0.15961164937E+03  0.12509078996E+03 0.  0.
        -24    2    1    2    0    0 -0.17268055457E+02 -0.31855309157E+02  0.79686250159E+03  0.80180378333E+03  0.81157341398E+02 0.  0.
        -13    1    3    3    0    0 -0.22753148486E+02  0.31486732145E+02 -0.44295149197E+03  0.44465171123E+03  0.00000000000E+00 0.  1.
         14    1    3    3    0    0 -0.52038776182E+02 -0.32974165782E+02 -0.28633504160E+03  0.29288749698E+03  0.00000000000E+00 0. -1.
         11    1    5    5    0    0 -0.12829925359E+02  0.13622675035E+02  0.47556476276E+02  0.51105799041E+02  0.00000000000E+00 0. -1.
        -12    1    5    5    0    0 -0.44381300980E+01 -0.45477984192E+02  0.74930602532E+03  0.75069798429E+03  0.00000000000E+00 0.  1.
          5    1    4    4  501    0  0.34889035391E+02  0.61901648170E+02 -0.33771873494E+02  0.78784964783E+02  0.41800000000E+01 0. -1.
         -5    1    4    4    0  501  0.57170944735E+02 -0.28558905376E+02  0.49308747119E+02  0.80826684582E+02  0.41800000000E+01 0. -1.
</event>
<event>
11    1  0.8453735E-009  0.1779819E+03  0.7561462E-02  0.1071287E+00
         22   -1    0    0    0    0  0.00000000000E+00  0.00000000000E+00  0.56189972218E+03  0.56189972218E+03  0.00000000000E+00 0. -1.
         22   -1    0    0    0    0 -0.00000000000E+00 -0.00000000000E+00 -0.13409021555E+04  0.13409021555E+04  0.00000000000E+00 0. -1.
        -24    2    1    2    0    0  0.69687119101E+02  0.10200232812E+03 -0.11306367778E+04  0.11402902797E+04  0.81618803618E+02 0.  0.
         25    2    1    2    0    0 -0.81516389900E+02 -0.13686687892E+03 -0.15069696008E+03  0.25245700472E+03  0.12508997196E+03 0.  0.
         24    2    1    2    0    0  0.11829270799E+02  0.34864550794E+02  0.50233130462E+03  0.51005459322E+03  0.80395770486E+02 0.  0.
        -11    1    5    5    0    0 -0.56337978081E+01 -0.24389323778E+02  0.10451888460E+03  0.10747453666E+03  0.00000000000E+00 0.  1.
         12    1    5    5    0    0  0.17463068607E+02  0.59253874571E+02  0.39781242002E+03  0.40258005656E+03  0.00000000000E+00 0. -1.
         11    1    3    3    0    0  0.14311440837E+02  0.63448928997E+02 -0.81128135009E+03  0.81388452063E+03  0.00000000000E+00 0. -1.
        -12    1    3    3    0    0  0.55375678264E+02  0.38553399125E+02 -0.31935542773E+03  0.32640575906E+03  0.00000000000E+00 0.  1.
          5    1    4    4  501    0 -0.55034513969E+02 -0.91919254878E+01 -0.39322950435E+01  0.56091216481E+02  0.41800000000E+01 0. -1.
         -5    1    4    4    0  501 -0.26481875931E+02 -0.12767495343E+03 -0.14676466504E+03  0.19636578824E+03  0.41800000000E+01 0. -1.
</event>
<event>
11    1  0.8453735E-009  0.1494940E+03  0.7561462E-02  0.1097397E+00
         22   -1    0    0    0    0  0.00000000000E+00  0.00000000000E+00  0.26460033393E+03  0.26460033393E+03  0.00000000000E+00 0. -1.
         22   -1    0    0    0    0 -0.00000000000E+00 -0.00000000000E+00 -0.41598783742E+03  0.41598783742E+03  0.00000000000E+00 0. -1.
         24    2    1    2    0    0  0.15403894590E+02  0.64555360931E+02 -0.32933617503E+03  0.34541991827E+03  0.80298998478E+02 0.  0.
         25    2    1    2    0    0  0.53185431598E+02  0.49187912033E+01  0.26765759962E+02  0.13862699359E+03  0.12509257693E+03 0.  0.
        -24    2    1    2    0    0 -0.68589326188E+02 -0.69474152134E+02  0.15118291158E+03  0.19654125950E+03  0.79000256015E+02 0.  0.
        -13    1    3    3    0    0  0.41432629331E+02  0.47990667777E+02 -0.14133971839E+03  0.15490862778E+03  0.00000000000E+00 0.  1.
         14    1    3    3    0    0 -0.26028734741E+02  0.16564693154E+02 -0.18799645665E+03  0.19051129049E+03  0.00000000000E+00 0. -1.
         13    1    5    5    0    0 -0.55380579430E+02 -0.32017555405E+02  0.14204709060E+03  0.15578674006E+03  0.00000000000E+00 0. -1.
        -14    1    5    5    0    0 -0.13208746758E+02 -0.37456596729E+02  0.91358209809E+01  0.40754519436E+02  0.00000000000E+00 0.  1.
          5    1    4    4  501    0 -0.21604093007E+02 -0.37502639187E+02  0.29423764996E+02  0.52501572616E+02  0.41800000000E+01 0. -1.
         -5    1    4    4    0  501  0.74789524605E+02  0.42421430390E+02 -0.26580050336E+01  0.86125420973E+02  0.41800000000E+01 0. -1.
</event>
<event>
11    1  0.8453735E-009  0.1367652E+03  0.7561462E-02  0.1111225E+00
         22   -1    0    0    0    0  0.00000000000E+00  0.00000000000E+00  0.10026230525E+04  0.10026230525E+04  0.00000000000E+00 0.  1.
         22   -1    0    0    0    0 -0.00000000000E+00 -0.00000000000E+00 -0.10550551310E+03  0.10550551310E+03  0.00000000000E+00 0.  1.
        -24    2    1    2    0    0 -0.53591292208E+02  0.35273666925E+02 -0.43486800154E+02  0.11157686283E+03  0.80262297209E+02 0.  0.
         25    2    1    2    0    0  0.16105827927E+02 -0.90526522933E+00  0.13338026119E+03  0.18356841345E+03  0.12508737403E+03 0.  0.
         24    2    1    2    0    0  0.37485464280E+02 -0.34368401696E+02  0.80722407839E+03  0.81298328934E+03  0.82126542312E+02 0.  0.
        -13    1    5    5    0    0  0.58805265928E+02 -0.19070559981E+02  0.69446921675E+03  0.69721534591E+03  0.00000000000E+00 0.  1.
         14    1    5    5    0    0 -0.21319801648E+02 -0.15297841715E+02  0.11275486163E+03  0.11576794343E+03  0.00000000000E+00 0. -1.
         11    1    3    3    0    0 -0.43103241935E+02  0.45760502448E+02  0.28454750348E+01  0.62928608579E+02  0.00000000000E+00 0. -1.
        -12    1    3    3    0    0 -0.10488050273E+02 -0.10486835523E+02 -0.46332275188E+02  0.48648254254E+02  0.00000000000E+00 0.  1.
          5    1    4    4  501    0  0.70302322442E+02 -0.72055067278E+01  0.66221682445E+02  0.96938740934E+02  0.41800000000E+01 0. -1.
         -5    1    4    4    0  501 -0.54196494515E+02  0.63002414985E+01  0.67158578745E+02  0.86629672513E+02  0.41800000000E+01 0. -1.
</event>
<event>
11    1  0.8453735E-009  0.1287661E+03  0.7561462E-02  0.1120794E+00
         22   -1    0    0    0    0  0.00000000000E+00  0.00000000000E+00  0.44833272060E+03  0.44833272060E+03  0.00000000000E+00 0. -1.
         22   -1    0    0    0    0 -0.00000000000E+00 -0.00000000000E+00 -0.27649776510E+03  0.27649776510E+03  0.00000000000E+00 0.  1.
        -24    2    1    2    0    0  0.31200373340E+02  0.27854796462E+02 -0.24053293501E+03  0.25699796925E+03  0.80265250192E+02 0.  0.
         25    2    1    2    0    0  0.12928907733E+02 -0.14707281486E+02  0.23835217537E+03  0.26987855263E+03  0.12505683860E+03 0.  0.
         24    2    1    2    0    0 -0.44129281074E+02 -0.13147514976E+02  0.17401571514E+03  0.19795396382E+03  0.82365357269E+02 0.  0.
        -13    1    5    5    0    0 -0.56190964263E+02 -0.89788616654E+01  0.58051788836E+02  0.81289941621E+02  0.00000000000E+00 0.  1.
         14    1    5    5    0    0  0.12061683189E+02 -0.41686533110E+01  0.11596392631E+03  0.11666402220E+03  0.00000000000E+00 0. -1.
         13    1    3    3    0    0  0.91719342585E+01 -0.19356495394E+02 -0.15767032782E+03  0.15911860534E+03  0.00000000000E+00 0. -1.
        -14    1    3    3    0    0  0.22028439082E+02  0.47211291856E+02 -0.82862607194E+02  0.97879363903E+02  0.00000000000E+00 0.  1.
          5    1    4    4  501    0 -0.52469012895E+02  0.12670975484E+02  0.12344378036E+03  0.13479388058E+03  0.41800000000E+01 0. -1.
         -5    1    4    4    0  501  0.65397920628E+02 -0.27378256969E+02  0.11490839502E+03  0.13508467205E+03  0.41800000000E+01 0. -1.
</event>
<event>
11    1  0.8453735E-009  0.1348234E+03  0.7561462E-02  0.1113481E+00
         22   -1    0    0    0    0  0.00000000000E+00  0.00000000000E+00  0.24106933250E+03  0.24106933250E+03  0.00000000000E+00 0.  1.
         22   -1    0    0    0    0 -0.00000000000E+00 -0.00000000000E+00 -0.26387525884E+04  0.26387525884E+04  0.00000000000E+00 0. -1.
         24    2    1    2    0    0 -0.19636489267E+02  0.42972679332E+02 -0.20752510854E+04  0.20772579119E+04  0.78109681149E+02 0.  0.
         25    2    1    2    0    0  0.13184372762E+02  0.76316199917E+01 -0.54580107617E+03  0.56016338660E+03  0.12510849542E+03 0.  0.
        -24    2    1    2    0    0  0.64521165048E+01 -0.50604299324E+02  0.22336890570E+03  0.24240062235E+03  0.79132602392E+02 0.  0.
        -13    1    3    3    0    0  0.24403872097E+02  0.12858903394E+02 -0.12388054355E+04  0.12391125080E+04  0.00000000000E+00 0.  1.
         14    1    3    3    0    0 -0.44040361365E+02  0.30113775938E+02 -0.83644564991E+03  0.83814540396E+03  0.00000000000E+00 0. -1.
         13    1    5    5    0    0 -0.89399879644E+01 -0.22698424526E+01 -0.35484138869E+01  0.98826520062E+01  0.00000000000E+00 0. -1.
        -14    1    5    5    0    0  0.15392104469E+02 -0.48334456871E+02  0.22691731959E+03  0.23251797034E+03  0.00000000000E+00 0.  1.
          5    1    4    4  501    0  0.18088157092E+01  0.68634405336E+01  0.47298453723E+01  0.94985508091E+01  0.41800000000E+01 0. -1.
         -5    1    4    4    0  501  0.11375557053E+02  0.76817945810E+00 -0.55053092154E+03  0.55066483579E+03  0.41800000000E+01 0.  1.
</event>
<event>
11    1  0.8453735E-009  0.2248285E+03  0.7561462E-02  0.1038234E+00
         22   -1    0    0    0    0  0.00000000000E+00  0.00000000000E+00  0.32019595806E+03  0.32019595806E+03  0.00000000000E+00 0.  1.
         22   -1    0    0    0    0 -0.00000000000E+00 -0.00000000000E+00 -0.16850940795E+04  0.16850940795E+04  0.00000000000E+00 0. -1.
         24    2    1    2    0    0  0.54357527593E+02  0.14951770737E+02 -0.14044893452E+04  0.14078672832E+04  0.79508931567E+02 0.  0.
         25    2    1    2    0    0 -0.20526484789E+03 -0.11158182770E+03 -0.16618095207E+03  0.31280496656E+03  0.12508667484E+03 0.  0.
        -24    2    1    2    0    0  0.15090732030E+03  0.96630056958E+02  0.20577217587E+03  0.28461778773E+03  0.80961160445E+02 0.  0.
        -13    1    3    3    0    0  0.39732971879E+02 -0.29255160296E+02 -0.59642497828E+03  0.59846247015E+03  0.00000000000E+00 0.  1.
         14    1    3    3    0    0  0.14624555714E+02  0.44206931033E+02 -0.80806436692E+03  0.80940481310E+03  0.00000000000E+00 0. -1.
         13    1    5    5    0    0  0.32269866284E+02  0.81358827384E+01  0.27780610812E+01  0.33395426053E+02  0.00000000000E+00 0. -1.
        -14    1    5    5    0    0  0.11863745402E+03  0.88494174220E+02  0.20299411479E+03  0.25122236167E+03  0.00000000000E+00 0.  1.
          5    1    4    4  501    0 -0.69467147563E+02 -0.15134235566E+02 -0.12061392057E+03  0.14007112447E+03  0.41800000000E+01 0.  1.
         -5    1    4    4    0  501 -0.13579770033E+03 -0.96447592130E+02 -0.45567031506E+02  0.17273384209E+03  0.41800000000E+01 0.  1.
</event>
<event>
11    1  0.8453735E-009  0.1288004E+03  0.7561462E-02  0.1120752E+00
         22   -1    0    0    0    0  0.00000000000E+00  0.00000000000E+00  0.41536090019E+03  0.41536090019E+03  0.00000000000E+00 0.  1.
         22   -1    0    0    0    0 -0.00000000000E+00 -0.00000000000E+00 -0.88816231440E+02  0.88816231440E+02  0.00000000000E+00 0.  1.
         24    2    1    2    0    0  0.13388285822E+02 -0.25361726641E+02 -0.25134477942E+02  0.89439057143E+02  0.80902036970E+02 0.  0.
         25    2    1    2    0    0 -0.60506470080E+01  0.48311654820E+02  0.22697716707E+03  0.26369761290E+03  0.12508865000E+03 0.  0.
        -24    2    1    2    0    0 -0.73376388137E+01 -0.22949928179E+02  0.12470197963E+03  0.15104046159E+03  0.81744095608E+02 0.  0.
        -13    1    3    3    0    0  0.40690576518E+02 -0.37191671343E+00  0.59250285145E+01  0.41121372816E+02  0.00000000000E+00 0.  1.
         14    1    3    3    0    0 -0.27302290696E+02 -0.24989809928E+02 -0.31059506456E+02  0.48317684327E+02  0.00000000000E+00 0. -1.
         13    1    5    5    0    0 -0.27366625654E+02  0.19523269616E+02  0.28831456297E+02  0.44287053734E+02  0.00000000000E+00 0. -1.
        -14    1    5    5    0    0  0.20028986841E+02 -0.42473197795E+02  0.95870523329E+02  0.10675340785E+03  0.00000000000E+00 0.  1.
          5    1    4    4  501    0  0.27842622489E+02  0.20883145419E+02  0.26719785512E+01  0.35155785569E+02  0.41800000000E+01 0. -1.
         -5    1    4    4    0  501 -0.33893269497E+02  0.27428509401E+02  0.22430518852E+03  0.22854182733E+03  0.41800000000E+01 0. -1.
</event>
<event>
11    1  0.8453735E-009  0.1736991E+03  0.7561462E-02  0.1074857E+00
         22   -1    0    0    0    0  0.00000000000E+00  0.00000000000E+00  0.17547487873E+04  0.17547487873E+04  0.00000000000E+00 0.  1.
         22   -1    0    0    0    0 -0.00000000000E+00 -0.00000000000E+00 -0.56442823909E+03  0.56442823909E+03  0.00000000000E+00 0. -1.
         24    2    1    2    0    0  0.11149686106E+03 -0.55918741136E+02 -0.51585923792E+03  0.53687260306E+03  0.81012239422E+02 0.  0.
         25    2    1    2    0    0 -0.62418484333E+02  0.21705878110E+02  0.10042743707E+03  0.17349350263E+03  0.12508842075E+03 0.  0.
        -24    2    1    2    0    0 -0.49078376727E+02  0.34212863026E+02  0.16057523490E+04  0.16088109207E+04  0.79074427001E+02 0.  0.
        -13    1    3    3    0    0  0.24785687045E+02 -0.50879736098E+02 -0.27671688695E+03  0.28244523956E+03  0.00000000000E+00 0.  1.
         14    1    3    3    0    0  0.86711174016E+02 -0.50390050383E+01 -0.23914235096E+03  0.25442736350E+03  0.00000000000E+00 0. -1.
         13    1    5    5    0    0 -0.13820615683E+02 -0.25511457023E+02  0.38644033078E+03  0.38752802880E+03  0.00000000000E+00 0. -1.
        -14    1    5    5    0    0 -0.35257761044E+02  0.59724320049E+02  0.12193120182E+04  0.12212828919E+04  0.00000000000E+00 0.  1.
          5    1    4    4  501    0 -0.13413094855E+02  0.64803163970E+02  0.18840181103E+02  0.68933199535E+02  0.41800000000E+01 0.  1.
         -5    1    4    4    0  501 -0.49005389478E+02 -0.43097285860E+02  0.81587255970E+02  0.10456030309E+03  0.41800000000E+01 0.  1.
</event>
<event>
11    1  0.8453735E-009  0.1560286E+03  0.7561462E-02  0.1090873E+00
         22   -1    0    0    0    0  0.00000000000E+00  0.00000000000E+00  0.26166364455E+03  0.26166364455E+03  0.00000000000E+00 0. -1.
         22   -1    0    0    0    0 -0.00000000000E+00 -0.00000000000E+00 -0.15708867912E+04  0.15708867912E+04  0.00000000000E+00 0. -1.
        -24    2    1    2    0    0 -0.15359728065E+02  0.24792138634E+02 -0.12523327470E+04  0.12552710362E+04  0.80730996029E+02 0.  0.
         25    2    1    2    0    0 -0.27118577193E+02  0.59861521948E+02 -0.28460359653E+03  0.31775181296E+03  0.12509271936E+03 0.  0.
         24    2    1    2    0    0  0.42478305258E+02 -0.84653660582E+02  0.22771319687E+03  0.25952758661E+03  0.80812248568E+02 0.  0.
        -13    1    5    5    0    0 -0.22162719699E+02 -0.18758258773E+02  0.32440939409E+02  0.43537029830E+02  0.00000000000E+00 0.  1.
         14    1    5    5    0    0  0.64641024958E+02 -0.65895401809E+02  0.19527225746E+03  0.21599055678E+03  0.00000000000E+00 0. -1.
         13    1    3    3    0    0 -0.20124971446E+02 -0.13508100025E+02 -0.97108198173E+03  0.97138442364E+03  0.00000000000E+00 0. -1.
        -14    1    3    3    0    0  0.47652433809E+01  0.38300238659E+02 -0.28125076526E+03  0.28388661255E+03  0.00000000000E+00 0.  1.
          5    1    4    4  501    0  0.47578429058E+02  0.40393874546E+01 -0.93593783709E+02  0.10515366048E+03  0.41800000000E+01 0. -1.
         -5    1    4    4    0  501 -0.74697006252E+02  0.55822134493E+02 -0.19100981283E+03  0.21259815248E+03  0.41800000000E+01 0. -1.
</event>
<event>
11    1  0.8453735E-009  0.1581327E+03  0.7561462E-02  0.1088847E+00
         22   -1    0    0    0    0  0.00000000000E+00  0.00000000000E+00  0.10284086336E+04  0.10284086336E+04  0.00000000000E+00 0.  1.
         22   -1    0    0    0    0 -0.00000000000E+00 -0.00000000000E+00 -0.10815473938E+04  0.10815473938E+04  0.00000000000E+00 0.  1.
         24    2    1    2    0    0 -0.73409099831E+02 -0.62965274188E+02 -0.10068826113E+04  0.10146194346E+04  0.79287340586E+02 0.  0.
         25    2    1    2    0    0  0.10361070930E+03  0.28170292950E+02  0.30705460812E+02  0.16768734034E+03  0.12508986490E+03 0.  0.
        -24    2    1    2    0    0 -0.30201609467E+02  0.34794981238E+02  0.92303839026E+03  0.92764925259E+03  0.80065210985E+02 0.  0.
        -13    1    3    3    0    0 -0.85808939134E+02 -0.34612790942E+02 -0.81833070640E+03  0.82354499839E+03  0.00000000000E+00 0.  1.
         14    1    3    3    0    0  0.12399839303E+02 -0.28352483246E+02 -0.18855190488E+03  0.19107443616E+03  0.00000000000E+00 0. -1.
         13    1    5    5    0    0  0.75159435710E+01  0.48858570766E+02  0.39551320043E+03  0.39859044276E+03  0.00000000000E+00 0. -1.
        -14    1    5    5    0    0 -0.37717553038E+02 -0.14063589528E+02  0.52752518983E+03  0.52905880983E+03  0.00000000000E+00 0.  1.
          5    1    4    4  501    0  0.86233270357E+02  0.34889851285E+02  0.74926715013E+02  0.11951972081E+03  0.41800000000E+01 0. -1.
         -5    1    4    4    0  501  0.17377438940E+02 -0.67195583353E+01 -0.44221254201E+02  0.48167619533E+02  0.41800000000E+01 0. -1.
</event>
<event>
11    1  0.8453735E-009  0.1372016E+04  0.7561462E-02  0.8388429E-01
         22   -1    0    0    0    0  0.00000000000E+00  0.00000000000E+00  0.21320781397E+04  0.21320781397E+04  0.00000000000E+00 0. -1.
         22   -1    0    0    0    0 -0.00000000000E+00 -0.00000000000E+00 -0.22602648920E+04  0.22602648920E+04  0.00000000000E+00 0. -1.
        -24    2    1    2    0    0 -0.51683982023E+03  0.18104239470E+02 -0.12657795930E+04  0.13697228353E+04  0.80569871298E+02 0.  0.
         25    2    1    2    0    0  0.14957203839E+04 -0.53511233194E+03  0.10519540256E+04  0.19093924800E+04  0.12509075133E+03 0.  0.
         24    2    1    2    0    0 -0.97888056364E+03  0.51700809247E+03  0.85638815127E+02  0.11132277165E+04  0.80233512259E+02 0.  0.
        -13    1    5    5    0    0 -0.32091224583E+03  0.16365936015E+03  0.65302176965E+02  0.36610576341E+03  0.00000000000E+00 0.  1.
         14    1    5    5    0    0 -0.65796831782E+03  0.35334873232E+03  0.20336638162E+02  0.74712195305E+03  0.00000000000E+00 0. -1.
         13    1    3    3    0    0 -0.46760708114E+03  0.40393672811E+02 -0.11365933433E+04  0.12296879519E+04  0.00000000000E+00 0. -1.
        -14    1    3    3    0    0 -0.49232739090E+02 -0.22289433341E+02 -0.12918624969E+03  0.14003488332E+03  0.00000000000E+00 0.  1.
          5    1    4    4  501    0  0.81681180833E+02 -0.54096335866E+02  0.43961716926E+02  0.10746317421E+03  0.41800000000E+01 0.  1.
         -5    1    4    4    0  501  0.14140392030E+04 -0.48101599607E+03  0.10079923087E+04  0.18019293058E+04  0.41800000000E+01 0.  1.
</event>
<event>
11    1  0.8453735E-009  0.1651006E+03  0.7561462E-02  0.1082376E+00
         22   -1    0    0    0    0  0.00000000000E+00  0.00000000000E+00  0.19667405952E+04  0.19667405952E+04  0.00000000000E+00 0. -1.
         22   -1    0    0    0    0 -0.00000000000E+00 -0.00000000000E+00 -0.29220560429E+03  0.29220560429E+03  0.00000000000E+00 0. -1.
         24    2    1    2    0    0  0.96754025591E+02 -0.42071600481E+02 -0.22534106416E+03  0.26157194870E+03  0.80684125540E+02 0.  0.
         25    2    1    2    0    0 -0.11450068849E+03  0.59390480739E+02  0.12110398754E+03  0.21668196602E+03  0.12508901524E+03 0.  0.
        -24    2    1    2    0    0  0.17746662897E+02 -0.17318880259E+02  0.17787720676E+04  0.17806922848E+04  0.78867339221E+02 0.  0.
        -11    1    3    3    0    0 -0.58122114772E+01 -0.13077820292E+02 -0.24664283056E+01  0.14522205564E+02  0.00000000000E+00 0.  1.
         12    1    3    3    0    0  0.10256623707E+03 -0.28993780189E+02 -0.22287463585E+03  0.24704974313E+03  0.00000000000E+00 0. -1.
         13    1    5    5    0    0  0.17902379494E+02 -0.46250785137E+02  0.13701194403E+04  0.13710167435E+04  0.00000000000E+00 0. -1.
        -14    1    5    5    0    0 -0.15571659669E+00  0.28931904878E+02  0.40865262731E+03  0.40967554134E+03  0.00000000000E+00 0.  1.
          5    1    4    4  501    0 -0.60323962574E+02 -0.76352578555E+01  0.11503552651E+03  0.13018418637E+03  0.41800000000E+01 0. -1.
         -5    1    4    4    0  501 -0.54176725914E+02  0.67025738595E+02  0.60684610364E+01  0.86497779650E+02  0.41800000000E+01 0. -1.
</event>
<event>
11    1  0.8453735E-009  0.2079915E+03  0.7561462E-02  0.1049012E+00
         22   -1    0    0    0    0  0.00000000000E+00  0.00000000000E+00  0.11369657589E+04  0.11369657589E+04  0.00000000000E+00 0.  1.
         22   -1    0    0    0    0 -0.00000000000E+00 -0.00000000000E+00 -0.36276171723E+03  0.36276171723E+03  0.00000000000E+00 0.  1.
         24    2    1    2    0    0 -0.37889948313E+02 -0.84197587681E+02 -0.29402600040E+03  0.31878912453E+03  0.81549586463E+02 0.  0.
         25    2    1    2    0    0  0.14491318174E+03  0.19054901529E+03  0.34642490833E+03  0.43928030733E+03  0.12509282087E+03 0.  0.
        -24    2    1    2    0    0 -0.10702323343E+03 -0.10635142760E+03  0.72180513373E+03  0.74165804424E+03  0.79305768126E+02 0.  0.
        -13    1    3    3    0    0 -0.57368971402E+02 -0.65504656690E+02 -0.26593715068E+03  0.27982963932E+03  0.00000000000E+00 0.  1.
         14    1    3    3    0    0  0.19479023089E+02 -0.18692930991E+02 -0.28088849722E+02  0.38959485215E+02  0.00000000000E+00 0. -1.
         11    1    5    5    0    0 -0.37833547935E+01  0.84746149747E+01  0.11576309245E+02  0.14837243956E+02  0.00000000000E+00 0. -1.
        -12    1    5    5    0    0 -0.10323987864E+03 -0.11482604258E+03  0.71022882448E+03  0.72682080028E+03  0.00000000000E+00 0.  1.
          5    1    4    4  501    0  0.24666476567E+02  0.71540785059E+02  0.20558037272E+03  0.21910563899E+03  0.41800000000E+01 0.  1.
         -5    1    4    4    0  501  0.12024670518E+03  0.11900823023E+03  0.14084453561E+03  0.22017466834E+03  0.41800000000E+01 0.  1.
</event>
<event>
11    1  0.8453735E-009  0.1326414E+03  0.7561462E-02  0.1116065E+00
         22   -1    0    0    0    0  0.00000000000E+00  0.00000000000E+00  0.96058126977E+03  0.96058126977E+03  0.00000000000E+00 0. -1.
         22   -1    0    0    0    0 -0.00000000000E+00 -0.00000000000E+00 -0.17369853494E+03  0.17369853494E+03  0.00000000000E+00 0.  1.
         24    2    1    2    0    0 -0.18776339165E+02  0.35268077365E+02 -0.11554274652E+03  0.15156908214E+03  0.89591697130E+02 0.  0.
         25    2    1    2    0    0  0.63089808362E+02 -0.54460061508E+02  0.11427412452E+03  0.18882597142E+03  0.12510175749E+03 0.  0.
        -24    2    1    2    0    0 -0.44313469196E+02  0.19191984143E+02  0.78815135683E+03  0.79388475116E+03  0.82087886132E+02 0.  0.
        -13    1    3    3    0    0 -0.29830522166E+02 -0.21039602753E+02 -0.24540850207E+02  0.43986114463E+02  0.00000000000E+00 0.  1.
         14    1    3    3    0    0  0.11054183001E+02  0.56307680118E+02 -0.91001896311E+02  0.10758296768E+03  0.00000000000E+00 0. -1.
         11    1    5    5    0    0  0.86361884586E+01  0.16829811498E+02  0.53055492560E+03  0.53089203741E+03  0.00000000000E+00 0. -1.
        -12    1    5    5    0    0 -0.52949657655E+02  0.23621726448E+01  0.25759643122E+03  0.26299271375E+03  0.00000000000E+00 0.  1.
          5    1    4    4  501    0 -0.37997257357E+02 -0.12826892828E+02  0.38442596402E+02  0.55710199823E+02  0.41800000000E+01 0. -1.
         -5    1    4    4    0  501  0.10108706572E+03 -0.41633168680E+02  0.75831528119E+02  0.13311577159E+03  0.41800000000E+01 0. -1.
</event>
<event>
11    1  0.8453735E-009  0.1260897E+03  0.7561462E-02  0.1124169E+00
         22   -1    0    0    0    0  0.00000000000E+00  0.00000000000E+00  0.72545976805E+03  0.72545976805E+03  0.00000000000E+00 0. -1.
         22   -1    0    0    0    0 -0.00000000000E+00 -0.00000000000E+00 -0.41466802547E+03  0.41466802547E+03  0.00000000000E+00 0.  1.
        -24    2    1    2    0    0  0.11849991059E+02  0.11143332501E+02 -0.29886847882E+03  0.31004180175E+03  0.80863805599E+02 0.  0.
         25    2    1    2    0    0 -0.17464970084E+02 -0.71864730046E+00 -0.70802979643E+02  0.14478685481E+03  0.12507849441E+03 0.  0.
         24    2    1    2    0    0  0.56149790249E+01 -0.10424685200E+02  0.68046320104E+03  0.68529913696E+03  0.80402345142E+02 0.  0.
        -11    1    5    5    0    0  0.29120133428E+02  0.61508998137E+01  0.10552254197E+03  0.10963951206E+03  0.00000000000E+00 0.  1.
         12    1    5    5    0    0 -0.23505154403E+02 -0.16575585014E+02  0.57494065906E+03  0.57565962491E+03  0.00000000000E+00 0. -1.
         11    1    3    3    0    0 -0.44768716210E+01 -0.21348701395E+02 -0.22670912814E+02  0.31460764749E+02  0.00000000000E+00 0. -1.
        -12    1    3    3    0    0  0.16326862680E+02  0.32492033896E+02 -0.27619756600E+03  0.27858103700E+03  0.00000000000E+00 0.  1.
          5    1    4    4  501    0  0.49720852679E+02  0.11251876376E+02 -0.54003217995E+02  0.74381367741E+02  0.41800000000E+01 0.  1.
         -5    1    4    4    0  501 -0.67185822763E+02 -0.11970523677E+02 -0.16799761648E+02  0.70405487065E+02  0.41800000000E+01 0.  1.
</event>
<event>
11    1  0.8453735E-009  0.1469981E+03  0.7561462E-02  0.1099986E+00
         22   -1    0    0    0    0  0.00000000000E+00  0.00000000000E+00  0.23187857943E+03  0.23187857943E+03  0.00000000000E+00 0. -1.
         22   -1    0    0    0    0 -0.00000000000E+00 -0.00000000000E+00 -0.67878254156E+03  0.67878254156E+03  0.00000000000E+00 0.  1.
         24    2    1    2    0    0  0.75536562759E+02  0.49000428047E+01 -0.55913287877E+03  0.57001123992E+03  0.80953411193E+02 0.  0.
         25    2    1    2    0    0 -0.91688249004E+02 -0.39766049784E+02 -0.39318132984E+02  0.16486798906E+03  0.12508982579E+03 0.  0.
        -24    2    1    2    0    0  0.16151686244E+02  0.34866006980E+02  0.15154704962E+03  0.17578189200E+03  0.80350792737E+02 0.  0.
        -11    1    3    3    0    0  0.75358612743E+02 -0.20143902756E+02 -0.49593016815E+03  0.50202731899E+03  0.00000000000E+00 0.  1.
         12    1    3    3    0    0  0.17795001648E+00  0.25043945561E+02 -0.63202710621E+02  0.67983920933E+02  0.00000000000E+00 0. -1.
         13    1    5    5    0    0  0.23039769133E+02  0.33377116857E+02  0.15983653131E+03  0.16490172719E+03  0.00000000000E+00 0. -1.
        -14    1    5    5    0    0 -0.68880828889E+01  0.14888901229E+01 -0.82894816803E+01  0.10880164806E+02  0.00000000000E+00 0.  1.
          5    1    4    4  501    0 -0.34421597709E+02 -0.81661851360E+02 -0.16694697402E+02  0.90275631694E+02  0.41800000000E+01 0.  1.
         -5    1    4    4    0  501 -0.57266651295E+02  0.41895801576E+02 -0.22623435582E+02  0.74592357368E+02  0.41800000000E+01 0.  1.
</event>
<event>
11    1  0.8453735E-009  0.4861200E+03  0.7561462E-02  0.9425083E-01
         22   -1    0    0    0    0  0.00000000000E+00  0.00000000000E+00  0.10144204233E+04  0.10144204233E+04  0.00000000000E+00 0.  1.
         22   -1    0    0    0    0 -0.00000000000E+00 -0.00000000000E+00 -0.40670593347E+03  0.40670593347E+03  0.00000000000E+00 0.  1.
         24    2    1    2    0    0 -0.60955581920E+02 -0.16709757788E+03  0.15311588542E+02  0.19621162632E+03  0.81408685388E+02 0.  0.
         25    2    1    2    0    0 -0.41633056129E+03  0.21559987716E+03  0.36933642099E+02  0.48664750904E+03  0.12508901167E+03 0.  0.
        -24    2    1    2    0    0  0.47728614321E+03 -0.48502299276E+02  0.55546925923E+03  0.73826722146E+03  0.79610657557E+02 0.  0.
        -11    1    3    3    0    0  0.17493422228E+02 -0.38312988163E+02  0.16963697501E+02  0.45405637492E+02  0.00000000000E+00 0.  1.
         12    1    3    3    0    0 -0.78449004148E+02 -0.12878458972E+03 -0.16521089591E+01  0.15080598883E+03  0.00000000000E+00 0. -1.
         11    1    5    5    0    0  0.12116414064E+03  0.22333371414E+02  0.14139098986E+03  0.18753917049E+03  0.00000000000E+00 0. -1.
        -12    1    5    5    0    0  0.35612200257E+03 -0.70835670689E+02  0.41407826937E+03  0.55072805097E+03  0.00000000000E+00 0.  1.
          5    1    4    4  501    0 -0.25507726131E+03  0.13598287450E+03  0.83356461746E+02  0.30086795028E+03  0.41800000000E+01 0.  1.
         -5    1    4    4    0  501 -0.16125329998E+03  0.79617002663E+02 -0.46422819648E+02  0.18577955876E+03  0.41800000000E+01 0.  1.
</event>
<event>
11    1  0.8453735E-009  0.1942277E+03  0.7561462E-02  0.1058682E+00
         22   -1    0    0    0    0  0.00000000000E+00  0.00000000000E+00  0.11008039083E+03  0.11008039083E+03  0.00000000000E+00 0. -1.
         22   -1    0    0    0    0 -0.00000000000E+00 -0.00000000000E+00 -0.33941720447E+04  0.33941720447E+04  0.00000000000E+00 0.  1.
         24    2    1    2    0    0 -0.10322511006E+01  0.34031269594E+02 -0.30099877219E+04  0.30114077518E+04  0.85973071647E+02 0.  0.
         25    2    1    2    0    0 -0.10282977796E+03 -0.13225680284E+03 -0.25260895426E+03  0.32790922484E+03  0.12508937138E+03 0.  0.
        -24    2    1    2    0    0  0.10386202906E+03  0.98225533243E+02 -0.21494977703E+02  0.16493545884E+03  0.79410925298E+02 0.  0.
        -11    1    3    3    0    0 -0.20456579986E+02  0.10446300043E+02 -0.26572310967E+04  0.26573303705E+04  0.00000000000E+00 0.  1.
         12    1    3    3    0    0  0.19424328885E+02  0.23584969551E+02 -0.35275662517E+03  0.35407738130E+03  0.00000000000E+00 0. -1.
         13    1    5    5    0    0  0.12585552859E+02  0.59615088220E+02  0.81931896559E+01  0.61477501909E+02  0.00000000000E+00 0. -1.
        -14    1    5    5    0    0  0.91276476197E+02  0.38610445024E+02 -0.29688167358E+02  0.10345795693E+03  0.00000000000E+00 0.  1.
          5    1    4    4  501    0 -0.71788158461E+02 -0.51178112107E+02 -0.21647915564E+03  0.23378074360E+03  0.41800000000E+01 0.  1.
         -5    1    4    4    0  501 -0.31041619495E+02 -0.81078690731E+02 -0.36129798620E+02  0.94128481236E+02  0.41800000000E+01 0.  1.
</event>
<event>
11    1  0.8453735E-009  0.1358428E+03  0.7561462E-02  0.1112292E+00
         22   -1    0    0    0    0  0.00000000000E+00  0.00000000000E+00  0.63906834395E+02  0.63906834395E+02  0.00000000000E+00 0.  1.
         22   -1    0    0    0    0 -0.00000000000E+00 -0.00000000000E+00 -0.93255797724E+03  0.93255797724E+03  0.00000000000E+00 0. -1.
        -24    2    1    2    0    0 -0.17780402110E+02  0.22364298385E+02 -0.56766948746E+03  0.57408892798E+03  0.80704062457E+02 0.  0.
         25    2    1    2    0    0  0.67669656399E+02 -0.11378913037E+02 -0.29463688710E+03  0.32736437091E+03  0.12509146272E+03 0.  0.
         24    2    1    2    0    0 -0.49889254289E+02 -0.10985385348E+02 -0.63447682937E+01  0.95011512746E+02  0.79858093421E+02 0.  0.
        -13    1    5    5    0    0 -0.57116631414E+02  0.88417885008E+01 -0.28476240205E+02  0.64431227399E+02  0.00000000000E+00 0.  1.
         14    1    5    5    0    0  0.72273771246E+01 -0.19827173849E+02  0.22131471912E+02  0.30580285347E+02  0.00000000000E+00 0. -1.
         11    1    3    3    0    0  0.13043851661E+02  0.16970908005E+02 -0.48836536961E+03  0.48883421323E+03  0.00000000000E+00 0. -1.
        -12    1    3    3    0    0 -0.30824253770E+02  0.53933903798E+01 -0.79304117841E+02  0.85254714748E+02  0.00000000000E+00 0.  1.
          5    1    4    4  501    0 -0.50577301118E+01 -0.25720048520E+01 -0.22841244480E+03  0.22852114384E+03  0.41800000000E+01 0.  1.
         -5    1    4    4    0  501  0.72727386510E+02 -0.88069081847E+01 -0.66224442300E+02  0.98843227074E+02  0.41800000000E+01 0.  1.
</event>
<event>
11    1  0.8453735E-009  0.2190861E+03  0.7561462E-02  0.1041791E+00
         22   -1    0    0    0    0  0.00000000000E+00  0.00000000000E+00  0.55020985641E+03  0.55020985641E+03  0.00000000000E+00 0. -1.
         22   -1    0    0    0    0 -0.00000000000E+00 -0.00000000000E+00 -0.90468280905E+03  0.90468280905E+03  0.00000000000E+00 0. -1.
        -24    2    1    2    0    0  0.67424210366E+02 -0.65824315604E+01 -0.77594950017E+03  0.78295632447E+03  0.79584085496E+02 0.  0.
         25    2    1    2    0    0 -0.12199392307E+03  0.17224092124E+03  0.45615264512E+02  0.24955597337E+03  0.12509188331E+03 0.  0.
         24    2    1    2    0    0  0.54569712703E+02 -0.16565848968E+03  0.37586128302E+03  0.42238036762E+03  0.81932180067E+02 0.  0.
        -13    1    5    5    0    0  0.23693321781E+00  0.15212689432E+01  0.66851530811E+02  0.66869257274E+02  0.00000000000E+00 0.  1.
         14    1    5    5    0    0  0.54332779485E+02 -0.16717975863E+03  0.30900975221E+03  0.35551111035E+03  0.00000000000E+00 0. -1.
         11    1    3    3    0    0  0.66687588053E+01 -0.68646362202E+01 -0.51259862532E+03  0.51268796188E+03  0.00000000000E+00 0. -1.
        -12    1    3    3    0    0  0.60755451560E+02  0.28220465979E+00 -0.26335087485E+03  0.27026836259E+03  0.00000000000E+00 0.  1.
          5    1    4    4  501    0 -0.31078692835E+02  0.24941757023E+02  0.63923508752E+02  0.75443116073E+02  0.41800000000E+01 0. -1.
         -5    1    4    4    0  501 -0.90915230234E+02  0.14729916422E+03 -0.18308244240E+02  0.17411285730E+03  0.41800000000E+01 0. -1.
</event>
<event>
11    1  0.1378318E-008  0.1403199E+03  0.7561462E-02  0.1107202E+00
         22   -1    0    0    0    0  0.00000000000E+00  0.00000000000E+00  0.20262370482E+04  0.20262370482E+04  0.00000000000E+00 0. -1.
         22   -1    0    0    0    0 -0.00000000000E+00 -0.00000000000E+00 -0.67356299832E+03  0.67356299832E+03  0.00000000000E+00 0.  1.
         24    2    1    2    0    0 -0.30249324500E+02 -0.67003324575E+02 -0.56271281648E+03  0.57402341726E+03  0.86329036816E+02 0.  0.
         25    2    1    2    0    0 -0.36112173105E+01 -0.13222403676E+01 -0.65884809374E+02  0.14142606943E+03  0.12508291570E+03 0.  0.
        -24    2    1    2    0    0  0.33860541811E+02  0.68325564943E+02  0.19812716757E+04  0.19843505598E+04  0.79967319219E+02 0.  0.
        -11    1    3    3    0    0 -0.38432828548E+02 -0.65489149587E+02 -0.56021004710E+03  0.56533282931E+03  0.00000000000E+00 0.  1.
         12    1    3    3    0    0  0.81835040480E+01 -0.15141749878E+01 -0.25027693809E+01  0.86905879531E+01  0.00000000000E+00 0. -1.
         13    1    5    5    0    0  0.22888749291E+02  0.77025593429E+02  0.19114714054E+04  0.19131596302E+04  0.00000000000E+00 0. -1.
        -14    1    5    5    0    0  0.10971792520E+02 -0.87000284862E+01  0.69800270327E+02  0.71190929651E+02  0.00000000000E+00 0.  1.
          5    1    4    4  501    0  0.22863279834E+02 -0.15760345608E+02  0.29840555225E+02  0.40976202784E+02  0.41800000000E+01 0.  1.
         -5    1    4    4    0  501 -0.26474497144E+02  0.14438105241E+02 -0.95725364599E+02  0.10044986665E+03  0.41800000000E+01 0.  1.
</event>
<event>
11    1  0.8453735E-009  0.1723863E+03  0.7561462E-02  0.1075973E+00
         22   -1    0    0    0    0  0.00000000000E+00  0.00000000000E+00  0.11816280281E+04  0.11816280281E+04  0.00000000000E+00 0.  1.
         22   -1    0    0    0    0 -0.00000000000E+00 -0.00000000000E+00 -0.60400294834E+03  0.60400294834E+03  0.00000000000E+00 0. -1.
        -24    2    1    2    0    0 -0.18296772862E+02 -0.60009787925E+02 -0.57364501389E+03  0.58271827950E+03  0.80969406328E+02 0.  0.
         25    2    1    2    0    0  0.12988617662E+03  0.21493433818E+02  0.41590915708E+03  0.45382759855E+03  0.12508667270E+03 0.  0.
         24    2    1    2    0    0 -0.11158940376E+03  0.38516354107E+02  0.73536093653E+03  0.74908509835E+03  0.80231371944E+02 0.  0.
        -13    1    5    5    0    0 -0.80619217128E+02  0.61709466314E+01  0.27749977597E+03  0.28903920913E+03  0.00000000000E+00 0.  1.
         14    1    5    5    0    0 -0.30970186634E+02  0.32345407476E+02  0.45786116056E+03  0.46004588923E+03  0.00000000000E+00 0. -1.
         13    1    3    3    0    0 -0.43429735904E+02 -0.63598353241E+02 -0.42521947606E+03  0.43213712559E+03  0.00000000000E+00 0. -1.
        -14    1    3    3    0    0  0.25132963042E+02  0.35885653157E+01 -0.14842553783E+03  0.15058115391E+03  0.00000000000E+00 0.  1.
          5    1    4    4  501    0  0.11422553535E+03  0.30937769488E+02  0.16984462260E+03  0.20704899597E+03  0.41800000000E+01 0.  1.
         -5    1    4    4    0  501  0.15660641276E+02 -0.94443356707E+01  0.24606453449E+03  0.24677860259E+03  0.41800000000E+01 0.  1.
</event>
<event>
11    1  0.8453735E-009  0.1376845E+03  0.7561462E-02  0.1110172E+00
         22   -1    0    0    0    0  0.00000000000E+00  0.00000000000E+00  0.10891039615E+03  0.10891039615E+03  0.00000000000E+00 0. -1.
         22   -1    0    0    0    0 -0.00000000000E+00 -0.00000000000E+00 -0.21974609885E+04  0.21974609885E+04  0.00000000000E+00 0. -1.
         24    2    1    2    0    0  0.24867719340E+02  0.18109243929E+02 -0.14823566248E+04  0.14848828145E+04  0.80928744227E+02 0.  0.
         25    2    1    2    0    0  0.14014415332E+02 -0.60637090592E+02 -0.68265600376E+03  0.69680791160E+03  0.12509510623E+03 0.  0.
        -24    2    1    2    0    0 -0.38882134672E+02  0.42527846664E+02  0.76462036169E+02  0.12468065856E+03  0.79864795152E+02 0.  0.
        -13    1    3    3    0    0 -0.18591455850E+02  0.23436878415E+02 -0.25553722993E+03  0.25728234565E+03  0.00000000000E+00 0.  1.
         14    1    3    3    0    0  0.43459175190E+02 -0.53276344864E+01 -0.12268193949E+04  0.12276004689E+04  0.00000000000E+00 0. -1.
         13    1    5    5    0    0 -0.45837851921E+02 -0.72091398745E+01  0.48826797344E+02  0.67358269762E+02  0.00000000000E+00 0. -1.
        -14    1    5    5    0    0  0.69557172483E+01  0.49736986538E+02  0.27635238825E+02  0.57322388796E+02  0.00000000000E+00 0.  1.
          5    1    4    4  501    0  0.61083006959E+02 -0.45913986977E+02 -0.25329456474E+03  0.26460316866E+03  0.41800000000E+01 0. -1.
         -5    1    4    4    0  501 -0.47068591627E+02 -0.14723103616E+02 -0.42936143903E+03  0.43220474294E+03  0.41800000000E+01 0. -1.
</event>
<event>
11    1  0.8453735E-009  0.3055402E+03  0.7561462E-02  0.9978734E-01
         22   -1    0    0    0    0  0.00000000000E+00  0.00000000000E+00  0.73286173348E+03  0.73286173348E+03  0.00000000000E+00 0.  1.
         22   -1    0    0    0    0 -0.00000000000E+00 -0.00000000000E+00 -0.84773731584E+03  0.84773731584E+03  0.00000000000E+00 0.  1.
        -24    2    1    2    0    0 -0.15646815299E+03 -0.22947672604E+03 -0.71670799617E+03  0.77604578846E+03  0.10693392032E+03 0.  0.
         25    2    1    2    0    0  0.26255570482E+03  0.16911272071E+03  0.23730125529E+03  0.41169729876E+03  0.12509264410E+03 0.  0.
         24    2    1    2    0    0 -0.10608755182E+03  0.60364005325E+02  0.36453115851E+03  0.39285596210E+03  0.80959617314E+02 0.  0.
        -11    1    5    5    0    0 -0.77294272460E+02  0.17923707173E+02  0.12621202734E+03  0.14908098363E+03  0.00000000000E+00 0.  1.
         12    1    5    5    0    0 -0.28793279364E+02  0.42440298152E+02  0.23831913117E+03  0.24377497847E+03  0.00000000000E+00 0. -1.
         11    1    3    3    0    0 -0.13111905552E+03 -0.11609100751E+03 -0.34993529172E+03  0.39131066576E+03  0.00000000000E+00 0. -1.
        -12    1    3    3    0    0 -0.25349097472E+02 -0.11338571852E+03 -0.36677270446E+03  0.38473512271E+03  0.00000000000E+00 0.  1.
          5    1    4    4  501    0  0.26065772127E+03  0.12160175016E+03  0.21432573112E+03  0.35872332614E+03  0.41800000000E+01 0. -1.
         -5    1    4    4    0  501  0.18979835501E+01  0.47510970553E+02  0.22975524172E+02  0.52973972623E+02  0.41800000000E+01 0. -1.
</event>
<event>
11    1  0.8453735E-009  0.1633927E+03  0.7561462E-02  0.1083929E+00
         22   -1    0    0    0    0  0.00000000000E+00  0.00000000000E+00  0.64296446053E+02  0.64296446053E+02  0.00000000000E+00 0.  1.
         22   -1    0    0    0    0 -0.00000000000E+00 -0.00000000000E+00 -0.15834788492E+04  0.15834788492E+04  0.00000000000E+00 0.  1.
         24    2    1    2    0    0 -0.53265816111E+02 -0.95601557755E+02 -0.11002405441E+04  0.11087287604E+04  0.82300086180E+02 0.  0.
         25    2    1    2    0    0  0.31008200005E+02  0.86845795239E+02 -0.42794629593E+03  0.45528913903E+03  0.12508583974E+03 0.  0.
        -24    2    1    2    0    0  0.22257616107E+02  0.87557625162E+01  0.90044369284E+01  0.83757395803E+02  0.79763128169E+02 0.  0.
        -13    1    3    3    0    0 -0.12937413424E+02 -0.89909887127E+02 -0.60050769034E+03  0.60733899153E+03  0.00000000000E+00 0.  1.
         14    1    3    3    0    0 -0.40328402687E+02 -0.56916706283E+01 -0.49973285380E+03  0.50138976889E+03  0.00000000000E+00 0. -1.
         11    1    5    5    0    0 -0.18427315637E+02  0.63155987345E+01 -0.24285042964E+02  0.31132235074E+02  0.00000000000E+00 0. -1.
        -12    1    5    5    0    0  0.40684931744E+02  0.24401637817E+01  0.33289479892E+02  0.52625160729E+02  0.00000000000E+00 0.  1.
          5    1    4    4  501    0  0.15218035060E+02 -0.30725664742E+02 -0.67903787153E+02  0.76184327618E+02  0.41800000000E+01 0.  1.
         -5    1    4    4    0  501  0.15790164945E+02  0.11757145998E+03 -0.36004250878E+03  0.37910481142E+03  0.41800000000E+01 0.  1.
</event>
<event>
11    1  0.8453735E-009  0.1990712E+03  0.7561462E-02  0.1055182E+00
         22   -1    0    0    0    0  0.00000000000E+00  0.00000000000E+00  0.14051385175E+04  0.14051385175E+04  0.00000000000E+00 0.  1.
         22   -1    0    0    0    0 -0.00000000000E+00 -0.00000000000E+00 -0.52710242821E+03  0.52710242821E+03  0.00000000000E+00 0. -1.
         24    2    1    2    0    0 -0.33537689872E+02 -0.64914946401E+02 -0.48648708076E+03  0.49831258962E+03  0.79416813822E+02 0.  0.
         25    2    1    2    0    0 -0.64080588374E+02  0.17641420973E+03  0.44354063545E+03  0.49760569841E+03  0.12511930546E+03 0.  0.
        -24    2    1    2    0    0  0.97618278246E+02 -0.11149926333E+03  0.92098253463E+03  0.93632265771E+03  0.80807649817E+02 0.  0.
        -13    1    3    3    0    0 -0.41988765090E+02 -0.19149530812E+01 -0.14541350720E+03  0.15136648082E+03  0.00000000000E+00 0.  1.
         14    1    3    3    0    0  0.84510752182E+01 -0.62999993320E+02 -0.34107357356E+03  0.34694610880E+03  0.00000000000E+00 0. -1.
         11    1    5    5    0    0  0.62504879249E+02 -0.28917442798E+02  0.24805221737E+03  0.25743539183E+03  0.00000000000E+00 0. -1.
        -12    1    5    5    0    0  0.35113398996E+02 -0.82581820531E+02  0.67293031727E+03  0.67888726588E+03  0.00000000000E+00 0.  1.
          5    1    4    4  501    0  0.37362776492E+02  0.34724840376E+02  0.95077948558E+02  0.10797722125E+03  0.41800000000E+01 0. -1.
         -5    1    4    4    0  501 -0.10144336487E+03  0.14168936935E+03  0.34846268689E+03  0.38962847717E+03  0.41800000000E+01 0. -1.
</event>
<event>
11    1  0.8453735E-009  0.1442345E+03  0.7561462E-02  0.1102920E+00
         22   -1    0    0    0    0  0.00000000000E+00  0.00000000000E+00  0.10904737647E+03  0.10904737647E+03  0.00000000000E+00 0. -1.
         22   -1    0    0    0    0 -0.00000000000E+00 -0.00000000000E+00 -0.10676203133E+04  0.10676203133E+04  0.00000000000E+00 0. -1.
         24    2    1    2    0    0  0.16147333660E+02 -0.39337664969E+02 -0.89751890306E+03  0.90213048598E+03  0.80567016252E+02 0.  0.
         25    2    1    2    0    0  0.44575973994E+02  0.72896698887E+02 -0.71767368644E+02  0.16762544960E+03  0.12508712958E+03 0.  0.
        -24    2    1    2    0    0 -0.60723307653E+02 -0.33559033918E+02  0.10713334865E+02  0.10691175419E+03  0.80633856358E+02 0.  0.
        -11    1    3    3    0    0  0.92152689670E+01  0.23698009373E+02 -0.17555592651E+03  0.17738771142E+03  0.00000000000E+00 0.  1.
         12    1    3    3    0    0  0.69320646927E+01 -0.63035674342E+02 -0.72196297655E+03  0.72474277456E+03  0.00000000000E+00 0. -1.
         11    1    5    5    0    0 -0.74571948972E+02 -0.51283240841E+01  0.77737360080E+01  0.75151222564E+02  0.00000000000E+00 0. -1.
        -12    1    5    5    0    0  0.13848641318E+02 -0.28430709834E+02  0.29395988570E+01  0.31760531631E+02  0.00000000000E+00 0.  1.
          5    1    4    4  501    0 -0.36223527967E+02  0.27737730840E+02 -0.58060936423E+02  0.73959924478E+02  0.41800000000E+01 0. -1.
         -5    1    4    4    0  501  0.80799501960E+02  0.45158968047E+02 -0.13706432221E+02  0.93665525122E+02  0.41800000000E+01 0. -1.
</event>
<event>
11    1  0.8850381E-009  0.2385736E+03  0.7561462E-02  0.1030169E+00
         22   -1    0    0    0    0  0.00000000000E+00  0.00000000000E+00  0.74954728419E+03  0.74954728419E+03  0.00000000000E+00 0.  1.
         22   -1    0    0    0    0 -0.00000000000E+00 -0.00000000000E+00 -0.12910146013E+04  0.12910146013E+04  0.00000000000E+00 0. -1.
        -24    2    1    2    0    0 -0.38740166966E+02  0.35875382122E+02 -0.86100870313E+03  0.86650372808E+03  0.81883333657E+02 0.  0.
         25    2    1    2    0    0 -0.84166489102E+02  0.12845499716E+03 -0.38657749478E+03  0.43435813982E+03  0.12506058522E+03 0.  0.
         24    2    1    2    0    0  0.12290665607E+03 -0.16433037928E+03  0.70611888082E+03  0.73970001757E+03  0.80260341942E+02 0.  0.
        -13    1    5    5    0    0  0.59870418346E+02 -0.11138579864E+03  0.53593198555E+03  0.55064903184E+03  0.00000000000E+00 0.  1.
         14    1    5    5    0    0  0.63036237722E+02 -0.52944580634E+02  0.17018689527E+03  0.18905098573E+03  0.00000000000E+00 0. -1.
         11    1    3    3    0    0 -0.77560904296E+01 -0.20741824070E+02 -0.44191319537E+03  0.44246768520E+03  0.00000000000E+00 0. -1.
        -12    1    3    3    0    0 -0.30984076537E+02  0.56617206192E+02 -0.41909550777E+03  0.42403604289E+03  0.00000000000E+00 0.  1.
          5    1    4    4  501    0  0.30334672156E+01  0.81114655747E+02 -0.26604399827E+03  0.27818280090E+03  0.41800000000E+01 0. -1.
         -5    1    4    4    0  501 -0.87199956318E+02  0.47340341409E+02 -0.12053349651E+03  0.15617533892E+03  0.41800000000E+01 0. -1.
</event>
<event>
11    1  0.8453735E-009  0.1450304E+03  0.7561462E-02  0.1102068E+00
         22   -1    0    0    0    0  0.00000000000E+00  0.00000000000E+00  0.79297570930E+03  0.79297570930E+03  0.00000000000E+00 0.  1.
         22   -1    0    0    0    0 -0.00000000000E+00 -0.00000000000E+00 -0.14711892112E+04  0.14711892112E+04  0.00000000000E+00 0.  1.
        -24    2    1    2    0    0 -0.25546420684E+02 -0.68860142149E+02 -0.14143009149E+04  0.14181436542E+04  0.74094583614E+02 0.  0.
         25    2    1    2    0    0  0.30142936584E+02  0.64277007524E+02  0.46144420063E+02  0.15105121662E+03  0.12508809782E+03 0.  0.
         24    2    1    2    0    0 -0.45965159001E+01  0.45831346253E+01  0.68994299299E+03  0.69497004962E+03  0.83185955557E+02 0.  0.
        -11    1    5    5    0    0  0.28679946164E+02 -0.18893963571E+02  0.47248358608E+03  0.47373015556E+03  0.00000000000E+00 0.  1.
         12    1    5    5    0    0 -0.33276462064E+02  0.23477098196E+02  0.21745940691E+03  0.22123989405E+03  0.00000000000E+00 0. -1.
         11    1    3    3    0    0 -0.37734132628E+01 -0.52853809897E+02 -0.40140452699E+03  0.40488684612E+03  0.00000000000E+00 0. -1.
        -12    1    3    3    0    0 -0.21773007421E+02 -0.16006332252E+02 -0.10128963879E+04  0.10132568081E+04  0.00000000000E+00 0.  1.
          5    1    4    4  501    0  0.27471874625E+02  0.45497742406E+02 -0.37500595261E+02  0.65180637496E+02  0.41800000000E+01 0. -1.
         -5    1    4    4    0  501  0.26710619594E+01  0.18779265118E+02  0.83645015324E+02  0.85870579123E+02  0.41800000000E+01 0. -1.
</event>
<event>
11    1  0.8453735E-009  0.1366707E+03  0.7561462E-02  0.1111334E+00
         22   -1    0    0    0    0  0.00000000000E+00  0.00000000000E+00  0.45937885043E+03  0.45937885043E+03  0.00000000000E+00 0.  1.
         22   -1    0    0    0    0 -0.00000000000E+00 -0.00000000000E+00 -0.18422827818E+03  0.18422827818E+03  0.00000000000E+00 0. -1.
         24    2    1    2    0    0  0.31710668182E+02 -0.43996384340E+02 -0.10948440213E+03  0.14645805697E+03  0.80758156419E+02 0.  0.
         25    2    1    2    0    0 -0.10271593068E+02  0.64398765800E+02  0.46855814275E+02  0.14864175096E+03  0.12508475581E+03 0.  0.
        -24    2    1    2    0    0 -0.21439075114E+02 -0.20402381460E+02  0.33777916011E+03  0.34850732068E+03  0.80540054947E+02 0.  0.
        -13    1    3    3    0    0 -0.51740133768E+01  0.17245968938E+02 -0.30802005713E+01  0.18266950883E+02  0.00000000000E+00 0.  1.
         14    1    3    3    0    0  0.36884681559E+02 -0.61242353277E+02 -0.10640420156E+03  0.12819110608E+03  0.00000000000E+00 0. -1.
         11    1    5    5    0    0  0.20165828861E+02 -0.20438982384E+02  0.49366277467E+02  0.57109036111E+02  0.00000000000E+00 0. -1.
        -12    1    5    5    0    0 -0.41604903975E+02  0.36600924211E-01  0.28841288265E+03  0.29139828457E+03  0.00000000000E+00 0.  1.
          5    1    4    4  501    0  0.31459974213E+02  0.20209193430E+02 -0.31721754803E+02  0.49212636633E+02  0.41800000000E+01 0. -1.
         -5    1    4    4    0  501 -0.41731567281E+02  0.44189572370E+02  0.78577569077E+02  0.99429114328E+02  0.41800000000E+01 0. -1.
</event>
<event>
11    1  0.8453735E-009  0.1454634E+03  0.7561462E-02  0.1101607E+00
         22   -1    0    0    0    0  0.00000000000E+00  0.00000000000E+00  0.51636717656E+03  0.51636717656E+03  0.00000000000E+00 0. -1.
         22   -1    0    0    0    0 -0.00000000000E+00 -0.00000000000E+00 -0.79938327934E+03  0.79938327934E+03  0.00000000000E+00 0. -1.
         24    2    1    2    0    0 -0.47222482709E+02 -0.57284903513E+02 -0.75277864543E+03  0.76071246918E+03  0.80599309649E+02 0.  0.
         25    2    1    2    0    0  0.89047456800E+02  0.22650005096E+02  0.13251303352E+03  0.20408109439E+03  0.12508763625E+03 0.  0.
        -24    2    1    2    0    0 -0.41824974091E+02  0.34634898417E+02  0.33724950913E+03  0.35095689233E+03  0.80527040302E+02 0.  0.
        -11    1    3    3    0    0 -0.17357660003E+02 -0.23534531226E+02 -0.62923099564E+02  0.69386446656E+02  0.00000000000E+00 0.  1.
         12    1    3    3    0    0 -0.29864822705E+02 -0.33750372287E+02 -0.68985554586E+03  0.69132602253E+03  0.00000000000E+00 0. -1.
         11    1    5    5    0    0 -0.64697503589E+02  0.20434640200E+02  0.20311365828E+03  0.21414597748E+03  0.00000000000E+00 0. -1.
        -12    1    5    5    0    0  0.22872529498E+02  0.14200258217E+02  0.13413585086E+03  0.13681091486E+03  0.00000000000E+00 0.  1.
          5    1    4    4  501    0 -0.18293800289E+02 -0.29880423824E+02  0.24645142599E+02  0.43039032408E+02  0.41800000000E+01 0.  1.
         -5    1    4    4    0  501  0.10734125709E+03  0.52530428920E+02  0.10786789092E+03  0.16104206198E+03  0.41800000000E+01 0.  1.
</event>
<event>
11    1  0.8453735E-009  0.1953422E+03  0.7561462E-02  0.1057867E+00
         22   -1    0    0    0    0  0.00000000000E+00  0.00000000000E+00  0.20066356534E+04  0.20066356534E+04  0.00000000000E+00 0.  1.
         22   -1    0    0    0    0 -0.00000000000E+00 -0.00000000000E+00 -0.59484025316E+03  0.59484025316E+03  0.00000000000E+00 0. -1.
         24    2    1    2    0    0  0.14889062476E+03 -0.13852461469E+02 -0.52545938254E+03  0.55225457145E+03  0.80729425626E+02 0.  0.
         25    2    1    2    0    0 -0.16014082470E+03 -0.28456443890E+02  0.13712381753E+03  0.24679102471E+03  0.12509202855E+03 0.  0.
        -24    2    1    2    0    0  0.11250199945E+02  0.42308905359E+02  0.18001309653E+04  0.18024303104E+04  0.79792990298E+02 0.  0.
        -13    1    3    3    0    0  0.97257959284E+02 -0.39166536568E+02 -0.25433214283E+03  0.27509628697E+03  0.00000000000E+00 0.  1.
         14    1    3    3    0    0  0.51632665475E+02  0.25314075099E+02 -0.27112723971E+03  0.27715828448E+03  0.00000000000E+00 0. -1.
         11    1    5    5    0    0  0.13777765483E+02 -0.21179156973E+02  0.70983304978E+03  0.71028257903E+03  0.00000000000E+00 0. -1.
        -12    1    5    5    0    0 -0.25275655375E+01  0.63488062333E+02  0.10902979155E+04  0.10921477314E+04  0.00000000000E+00 0.  1.
          5    1    4    4  501    0 -0.79289870948E+02  0.48546968027E+02  0.69940653467E+02  0.11641674771E+03  0.41800000000E+01 0.  1.
         -5    1    4    4    0  501 -0.80850953756E+02 -0.77003411917E+02  0.67183164061E+02  0.13037427700E+03  0.41800000000E+01 0.  1.
</event>
<event>
11    1  0.8453735E-009  0.1552388E+03  0.7561462E-02  0.1091643E+00
         22   -1    0    0    0    0  0.00000000000E+00  0.00000000000E+00  0.24288539937E+04  0.24288539937E+04  0.00000000000E+00 0. -1.
         22   -1    0    0    0    0 -0.00000000000E+00 -0.00000000000E+00 -0.84845759363E+03  0.84845759363E+03  0.00000000000E+00 0.  1.
        -24    2    1    2    0    0 -0.87579741223E+02  0.27320057074E+02 -0.81929356939E+03  0.82843647686E+03  0.81538008104E+02 0.  0.
         25    2    1    2    0    0  0.10131103706E+03 -0.22564917022E+02  0.25349829222E+03  0.30113470792E+03  0.12509047302E+03 0.  0.
         24    2    1    2    0    0 -0.13731295837E+02 -0.47551400515E+01  0.21461916772E+04  0.21477404025E+04  0.80243139748E+02 0.  0.
        -11    1    5    5    0    0 -0.45955437185E+02  0.59321038683E+01  0.10476045428E+04  0.10486288047E+04  0.00000000000E+00 0.  1.
         12    1    5    5    0    0  0.32224141348E+02 -0.10687243920E+02  0.10985871344E+04  0.10991115978E+04  0.00000000000E+00 0. -1.
         13    1    3    3    0    0 -0.34622567861E+02  0.96797369644E+01 -0.88624967055E+02  0.95638926690E+02  0.00000000000E+00 0. -1.
        -14    1    3    3    0    0 -0.52957173362E+02  0.17640320109E+02 -0.73066860233E+03  0.73279755017E+03  0.00000000000E+00 0.  1.
          5    1    4    4  501    0  0.23422849952E+02 -0.20446852126E+02 -0.44110309738E+01  0.31680171337E+02  0.41800000000E+01 0. -1.
         -5    1    4    4    0  501  0.77888187108E+02 -0.21180648964E+01  0.25790932320E+03  0.26945453658E+03  0.41800000000E+01 0. -1.
</event>
<event>
11    1  0.8453735E-009  0.1406561E+03  0.7561462E-02  0.1106828E+00
         22   -1    0    0    0    0  0.00000000000E+00  0.00000000000E+00  0.17860912695E+03  0.17860912695E+03  0.00000000000E+00 0. -1.
         22   -1    0    0    0    0 -0.00000000000E+00 -0.00000000000E+00 -0.11684874903E+04  0.11684874903E+04  0.00000000000E+00 0.  1.
         24    2    1    2    0    0 -0.17111529927E+02  0.68793215615E+02 -0.97161301380E+03  0.97764552241E+03  0.82058564074E+02 0.  0.
         25    2    1    2    0    0  0.62316288609E+02 -0.16476034285E+02 -0.13959503649E+03  0.19821521165E+03  0.12509083253E+03 0.  0.
        -24    2    1    2    0    0 -0.45204758682E+02 -0.52317181330E+02  0.12132968697E+03  0.17123588316E+03  0.99097311113E+02 0.  0.
        -11    1    3    3    0    0 -0.20572493101E+02  0.27543538106E+02 -0.81278990618E+03  0.81351662893E+03  0.00000000000E+00 0.  1.
         12    1    3    3    0    0  0.34609631741E+01  0.41249677508E+02 -0.15882310762E+03  0.16412889348E+03  0.00000000000E+00 0. -1.
         13    1    5    5    0    0 -0.69136326729E+02 -0.62387074174E+02  0.81837174627E+02  0.12397298838E+03  0.00000000000E+00 0. -1.
        -14    1    5    5    0    0  0.23931568047E+02  0.10069892844E+02  0.39492512347E+02  0.47262894775E+02  0.00000000000E+00 0.  1.
          5    1    4    4  501    0  0.42727574129E+02 -0.62615295812E+02 -0.38107794935E+02  0.84947026406E+02  0.41800000000E+01 0.  1.
         -5    1    4    4    0  501  0.19588714480E+02  0.46139261526E+02 -0.10148724155E+03  0.11326818524E+03  0.41800000000E+01 0.  1.
</event>
<event>
11    1  0.8453735E-009  0.1456095E+03  0.7561462E-02  0.1101451E+00
         22   -1    0    0    0    0  0.00000000000E+00  0.00000000000E+00  0.47216583618E+03  0.47216583618E+03  0.00000000000E+00 0. -1.
         22   -1    0    0    0    0 -0.00000000000E+00 -0.00000000000E+00 -0.50825179201E+03  0.50825179201E+03  0.00000000000E+00 0. -1.
        -24    2    1    2    0    0 -0.12356739526E+02 -0.29946361966E+02 -0.40632725505E+03  0.41663646930E+03  0.86224333851E+02 0.  0.
         25    2    1    2    0    0 -0.12267575639E+02  0.98304345331E+02 -0.17881167769E+02  0.16055701540E+03  0.12507830071E+03 0.  0.
         24    2    1    2    0    0  0.24624315165E+02 -0.68357983364E+02  0.38812246699E+03  0.40322414349E+03  0.81679187823E+02 0.  0.
        -11    1    5    5    0    0  0.65316062297E+01 -0.68490022269E+02  0.15723256828E+03  0.17162641276E+03  0.00000000000E+00 0.  1.
         12    1    5    5    0    0  0.18092708935E+02  0.13203890446E+00  0.23088989871E+03  0.23159773072E+03  0.00000000000E+00 0. -1.
         11    1    3    3    0    0 -0.31945995734E+02 -0.21146465400E+01 -0.34513046184E+03  0.34661225319E+03  0.00000000000E+00 0. -1.
        -12    1    3    3    0    0  0.19589256208E+02 -0.27831715426E+02 -0.61196793212E+02  0.70024216110E+02  0.00000000000E+00 0.  1.
          5    1    4    4  501    0  0.51097692262E+02  0.43494011238E+02  0.17566468488E+02  0.69489253725E+02  0.41800000000E+01 0. -1.
         -5    1    4    4    0  501 -0.63365267901E+02  0.54810334093E+02 -0.35447636258E+02  0.91067761671E+02  0.41800000000E+01 0. -1.
</event>
<event>
11    1  0.8453735E-009  0.3010462E+03  0.7561462E-02  0.9997494E-01
         22   -1    0    0    0    0  0.00000000000E+00  0.00000000000E+00  0.80987340499E+03  0.80987340499E+03  0.00000000000E+00 0. -1.
         22   -1    0    0    0    0 -0.00000000000E+00 -0.00000000000E+00 -0.25239994750E+03  0.25239994750E+03  0.00000000000E+00 0.  1.
         24    2    1    2    0    0 -0.14495359811E+03  0.23270490442E+03 -0.43228249078E+02  0.28895830875E+03  0.80405873736E+02 0.  0.
         25    2    1    2    0    0  0.42585600733E+02 -0.28740795876E+03  0.27512893325E+03  0.41923810242E+03  0.12509112065E+03 0.  0.
        -24    2    1    2    0    0  0.10236799737E+03  0.54703054346E+02  0.32557277332E+03  0.35407694132E+03  0.76819389512E+02 0.  0.
        -13    1    3    3    0    0 -0.97367095474E+02  0.14653767752E+03 -0.66027663803E+02  0.18791831896E+03  0.00000000000E+00 0.  1.
         14    1    3    3    0    0 -0.47586502632E+02  0.86167226893E+02  0.22799414725E+02  0.10103998978E+03  0.00000000000E+00 0. -1.
         11    1    5    5    0    0  0.11514035544E+03  0.49512126871E+02  0.28995335044E+03  0.31588241102E+03  0.00000000000E+00 0. -1.
        -12    1    5    5    0    0 -0.12772358068E+02  0.51909274752E+01  0.35619422876E+02  0.38194530298E+02  0.00000000000E+00 0.  1.
          5    1    4    4  501    0  0.83581013314E+02 -0.15967802791E+03  0.13515224892E+03  0.22531413887E+03  0.41800000000E+01 0. -1.
         -5    1    4    4    0  501 -0.40995412581E+02 -0.12772993086E+03  0.13997668432E+03  0.19392396356E+03  0.41800000000E+01 0. -1.
</event>
<event>
11    1  0.8453735E-009  0.2499738E+03  0.7561462E-02  0.1023913E+00
         22   -1    0    0    0    0  0.00000000000E+00  0.00000000000E+00  0.44162973454E+03  0.44162973454E+03  0.00000000000E+00 0.  1.
         22   -1    0    0    0    0 -0.00000000000E+00 -0.00000000000E+00 -0.72323500820E+03  0.72323500820E+03  0.00000000000E+00 0. -1.
        -24    2    1    2    0    0  0.17399909925E+03 -0.13954340603E+03 -0.58036108780E+03  0.62735907481E+03  0.83739881834E+02 0.  0.
         25    2    1    2    0    0 -0.17598868035E+03  0.71939082778E+02  0.66430766049E+01  0.22768155984E+03  0.12509002751E+03 0.  0.
         24    2    1    2    0    0  0.19895811001E+01  0.67604323249E+02  0.29211273753E+03  0.30982410808E+03  0.78018097686E+02 0.  0.
        -11    1    5    5    0    0  0.14116225292E+00  0.50924271921E+02  0.28810372413E+03  0.29256974768E+03  0.00000000000E+00 0.  1.
         12    1    5    5    0    0  0.18484188472E+01  0.16680051327E+02  0.40090133975E+01  0.17254360404E+02  0.00000000000E+00 0. -1.
         11    1    3    3    0    0  0.17533336662E+03 -0.11000440521E+03 -0.47984378578E+03  0.52258283302E+03  0.00000000000E+00 0. -1.
        -12    1    3    3    0    0 -0.13342673647E+01 -0.29539000821E+02 -0.10051730202E+03  0.10477624179E+03  0.00000000000E+00 0.  1.
          5    1    4    4  501    0 -0.62862154434E+02 -0.34490149103E+02  0.82430279727E+01  0.72295509925E+02  0.41800000000E+01 0.  1.
         -5    1    4    4    0  501 -0.11312652592E+03  0.10642923188E+03 -0.15999513677E+01  0.15538604992E+03  0.41800000000E+01 0.  1.
</event>
<event>
11    1  0.8453735E-009  0.1724691E+03  0.7561462E-02  0.1075903E+00
         22   -1    0    0    0    0  0.00000000000E+00  0.00000000000E+00  0.30243693090E+03  0.30243693090E+03  0.00000000000E+00 0.  1.
         22   -1    0    0    0    0 -0.00000000000E+00 -0.00000000000E+00 -0.34507702700E+03  0.34507702700E+03  0.00000000000E+00 0.  1.
         24    2    1    2    0    0 -0.64858947514E+02  0.58676452257E+02 -0.94331510439E+02  0.15285143191E+03  0.82556146072E+02 0.  0.
         25    2    1    2    0    0  0.16744969248E+03 -0.99161184245E+02 -0.13143107344E+03  0.26607132940E+03  0.12508990883E+03 0.  0.
        -24    2    1    2    0    0 -0.10259074497E+03  0.40484731988E+02  0.18312248778E+03  0.22859119659E+03  0.80970458517E+02 0.  0.
        -13    1    3    3    0    0 -0.36266504275E+02  0.77160794724E+02 -0.58344045878E+02  0.10331057673E+03  0.00000000000E+00 0.  1.
         14    1    3    3    0    0 -0.28592443239E+02 -0.18484342468E+02 -0.35987464561E+02  0.49540855184E+02  0.00000000000E+00 0. -1.
         13    1    5    5    0    0 -0.22513560379E+02  0.10005126562E+02 -0.18824329195E+01  0.24708429982E+02  0.00000000000E+00 0. -1.
        -14    1    5    5    0    0 -0.80077184590E+02  0.30479605426E+02  0.18500492070E+03  0.20388276661E+03  0.00000000000E+00 0.  1.
          5    1    4    4  501    0  0.16504372513E+03 -0.49324450982E+02 -0.67951690787E+02  0.18522212976E+03  0.41800000000E+01 0. -1.
         -5    1    4    4    0  501  0.24059673488E+01 -0.49836733264E+02 -0.63479382653E+02  0.80849199645E+02  0.41800000000E+01 0. -1.
</event>
<event>
11    1  0.8453735E-009  0.1404219E+03  0.7561462E-02  0.1107088E+00
         22   -1    0    0    0    0  0.00000000000E+00  0.00000000000E+00  0.91213382314E+03  0.91213382314E+03  0.00000000000E+00 0.  1.
         22   -1    0    0    0    0 -0.00000000000E+00 -0.00000000000E+00 -0.13323151743E+04  0.13323151743E+04  0.00000000000E+00 0.  1.
        -24    2    1    2    0    0  0.63596291805E+02 -0.62565033740E+01 -0.12562234910E+04  0.12604906863E+04  0.81582343865E+02 0.  0.
         25    2    1    2    0    0 -0.57149038912E+02  0.31619310199E+02 -0.25749250970E+01  0.14114353760E+03  0.12509626110E+03 0.  0.
         24    2    1    2    0    0 -0.64472528930E+01 -0.25362806825E+02  0.83861706493E+03  0.84281477351E+03  0.79833087269E+02 0.  0.
        -13    1    5    5    0    0 -0.24462157335E+02  0.87707782588E+01  0.63740255526E+03  0.63793208192E+03  0.00000000000E+00 0.  1.
         14    1    5    5    0    0  0.18014904442E+02 -0.34133585083E+02  0.20121450967E+03  0.20488269159E+03  0.00000000000E+00 0. -1.
         13    1    3    3    0    0  0.42920114144E+02  0.17256053430E+02 -0.28237867542E+03  0.28614266356E+03  0.00000000000E+00 0. -1.
        -14    1    3    3    0    0  0.20676177661E+02 -0.23512556804E+02 -0.97384481554E+03  0.97434802273E+03  0.00000000000E+00 0.  1.
          5    1    4    4  501    0 -0.54670372943E+02  0.24879539627E+02  0.55853350780E+02  0.82127403241E+02  0.41800000000E+01 0.  1.
         -5    1    4    4    0  501 -0.24786659681E+01  0.67397705720E+01 -0.58428275877E+02  0.59016134356E+02  0.41800000000E+01 0.  1.
</event>
<event>
11    1  0.8453735E-009  0.1387573E+03  0.7561462E-02  0.1108954E+00
         22   -1    0    0    0    0  0.00000000000E+00  0.00000000000E+00  0.33935778544E+03  0.33935778544E+03  0.00000000000E+00 0.  1.
         22   -1    0    0    0    0 -0.00000000000E+00 -0.00000000000E+00 -0.44303290972E+03  0.44303290972E+03  0.00000000000E+00 0. -1.
        -24    2    1    2    0    0 -0.24475881562E+02 -0.37730174719E+02 -0.36295169384E+03  0.37575324284E+03  0.86220256182E+02 0.  0.
         25    2    1    2    0    0  0.80335982662E+02  0.22486331312E+02  0.25163503709E+02  0.15244733590E+03  0.12508990006E+03 0.  0.
         24    2    1    2    0    0 -0.55860101100E+02  0.15243843407E+02  0.23411306586E+03  0.25419011642E+03  0.80317881108E+02 0.  0.
        -13    1    5    5    0    0 -0.47490835051E+02  0.46561651343E+02  0.16236463966E+03  0.17545837968E+03  0.00000000000E+00 0.  1.
         14    1    5    5    0    0 -0.83692660495E+01 -0.31317807937E+02  0.71748426200E+02  0.78731736742E+02  0.00000000000E+00 0. -1.
         13    1    3    3    0    0 -0.45662068794E+02 -0.53479166606E+02 -0.24560124936E+03  0.25547019292E+03  0.00000000000E+00 0. -1.
        -14    1    3    3    0    0  0.21186187232E+02  0.15748991887E+02 -0.11735044449E+03  0.12028304991E+03  0.00000000000E+00 0.  1.
          5    1    4    4  501    0 -0.92953311532E+00 -0.31118773809E+02 -0.27442844931E+02  0.41711200572E+02  0.41800000000E+01 0.  1.
         -5    1    4    4    0  501  0.81265515778E+02  0.53605105121E+02  0.52606348640E+02  0.11073613533E+03  0.41800000000E+01 0.  1.
</event>
<event>
11    1  0.8453735E-009  0.1494530E+03  0.7561462E-02  0.1097439E+00
         22   -1    0    0    0    0  0.00000000000E+00  0.00000000000E+00  0.18216781874E+04  0.18216781874E+04  0.00000000000E+00 0.  1.
         22   -1    0    0    0    0 -0.00000000000E+00 -0.00000000000E+00 -0.18061333570E+04  0.18061333570E+04  0.00000000000E+00 0. -1.
         24    2    1    2    0    0  0.81847374490E+02 -0.19089732286E+01 -0.17879950286E+04  0.17916450872E+04  0.79770039532E+02 0.  0.
         25    2    1    2    0    0 -0.67136347095E+02 -0.11909824355E+02  0.31009824907E+03  0.34125842237E+03  0.12508898331E+03 0.  0.
        -24    2    1    2    0    0 -0.14711027395E+02  0.13818797584E+02  0.14934416099E+04  0.14949080349E+04  0.63046149341E+02 0.  0.
        -13    1    3    3    0    0  0.44909172162E+02 -0.24006542503E+02 -0.43578767316E+03  0.43875282780E+03  0.00000000000E+00 0.  1.
         14    1    3    3    0    0  0.36938202328E+02  0.22097569274E+02 -0.13522073555E+04  0.13528922594E+04  0.00000000000E+00 0. -1.
         13    1    5    5    0    0 -0.77077531242E+00  0.12650517991E+02  0.56737478967E+02  0.58135799810E+02  0.00000000000E+00 0. -1.
        -14    1    5    5    0    0 -0.13940252083E+02  0.11682795932E+01  0.14367041310E+04  0.14367722350E+04  0.00000000000E+00 0.  1.
          5    1    4    4  501    0 -0.28232244940E+02 -0.50219108211E+02  0.26226081214E+03  0.26854650336E+03  0.41800000000E+01 0. -1.
         -5    1    4    4    0  501 -0.38904102155E+02  0.38309283856E+02  0.47837436928E+02  0.72711919008E+02  0.41800000000E+01 0. -1.
</event>
<event>
11    1  0.8453735E-009  0.2397381E+03  0.7561462E-02  0.1029512E+00
         22   -1    0    0    0    0  0.00000000000E+00  0.00000000000E+00  0.31510923268E+03  0.31510923268E+03  0.00000000000E+00 0.  1.
         22   -1    0    0    0    0 -0.00000000000E+00 -0.00000000000E+00 -0.37342657798E+03  0.37342657798E+03  0.00000000000E+00 0.  1.
         24    2    1    2    0    0 -0.42023665676E+02  0.10531756284E+03 -0.10109571074E+03  0.17338758661E+03  0.83577119718E+02 0.  0.
         25    2    1    2    0    0  0.19276427218E+03 -0.20011794914E+03 -0.33862877607E+02  0.30659312082E+03  0.12508952417E+03 0.  0.
        -24    2    1    2    0    0 -0.15074060651E+03  0.94800386294E+02  0.76641243040E+02  0.20855510323E+03  0.76886326864E+02 0.  0.
        -13    1    3    3    0    0 -0.54003840824E+02  0.95672260191E+02 -0.51258979147E+02  0.12123151050E+03  0.00000000000E+00 0.  1.
         14    1    3    3    0    0  0.11980175148E+02  0.96453026512E+01 -0.49836731592E+02  0.52156076113E+02  0.00000000000E+00 0. -1.
         11    1    5    5    0    0  0.29507037779E+01 -0.73418244551E+01 -0.16733400994E+01  0.80875896411E+01  0.00000000000E+00 0. -1.
        -12    1    5    5    0    0 -0.15369131028E+03  0.10214221075E+03  0.78314583139E+02  0.20046751359E+03  0.00000000000E+00 0.  1.
          5    1    4    4  501    0  0.19700304025E+03 -0.17861063398E+03  0.10553981935E+00  0.26595007046E+03  0.41800000000E+01 0. -1.
         -5    1    4    4    0  501 -0.42387680695E+01 -0.21507315157E+02 -0.33968417426E+02  0.40643050358E+02  0.41800000000E+01 0. -1.
</event>
<event>
11    1  0.8453735E-009  0.2413251E+03  0.7561462E-02  0.1028625E+00
         22   -1    0    0    0    0  0.00000000000E+00  0.00000000000E+00  0.16505292912E+04  0.16505292912E+04  0.00000000000E+00 0.  1.
         22   -1    0    0    0    0 -0.00000000000E+00 -0.00000000000E+00 -0.64794754082E+03  0.64794754082E+03  0.00000000000E+00 0. -1.
         24    2    1    2    0    0  0.15998067283E+02  0.10912346885E+02 -0.54593620317E+03  0.55227137040E+03  0.81131443733E+02 0.  0.
         25    2    1    2    0    0  0.13110824624E+03 -0.15608913138E+03  0.67257947555E+02  0.24844289458E+03  0.12508817367E+03 0.  0.
        -24    2    1    2    0    0 -0.14710631352E+03  0.14517678449E+03  0.14812600060E+04  0.14977625671E+04  0.80280356313E+02 0.  0.
        -11    1    3    3    0    0 -0.21127936965E+02  0.90257130229E+01 -0.50942245586E+02  0.55883500260E+02  0.00000000000E+00 0.  1.
         12    1    3    3    0    0  0.37126004249E+02  0.18866338620E+01 -0.49499395759E+03  0.49638787014E+03  0.00000000000E+00 0. -1.
         13    1    5    5    0    0 -0.10415682728E+03  0.11079566561E+03  0.80278150747E+03  0.81705720297E+03  0.00000000000E+00 0. -1.
        -14    1    5    5    0    0 -0.42949486247E+02  0.34381118877E+02  0.67847849856E+03  0.68070536410E+03  0.00000000000E+00 0.  1.
          5    1    4    4  501    0 -0.17024939309E+02  0.55061250717E+00 -0.90135966165E+01  0.19719763096E+02  0.41800000000E+01 0.  1.
         -5    1    4    4    0  501  0.14813318555E+03 -0.15663974388E+03  0.76271544172E+02  0.22872313148E+03  0.41800000000E+01 0.  1.
</event>
<event>
11    1  0.8453735E-009  0.1346142E+03  0.7561462E-02  0.1113726E+00
         22   -1    0    0    0    0  0.00000000000E+00  0.00000000000E+00  0.58321544445E+03  0.58321544445E+03  0.00000000000E+00 0. -1.
         22   -1    0    0    0    0 -0.00000000000E+00 -0.00000000000E+00 -0.16337443283E+03  0.16337443283E+03  0.00000000000E+00 0.  1.
         24    2    1    2    0    0 -0.15274393331E+01  0.51329442273E+02 -0.25841480889E+02  0.10013902813E+03  0.81993890658E+02 0.  0.
         25    2    1    2    0    0  0.46572379338E+02 -0.69800675974E+02 -0.36229156196E+02  0.15492237263E+03  0.12508904388E+03 0.  0.
        -24    2    1    2    0    0 -0.45044940005E+02  0.18471233701E+02  0.48191164871E+03  0.49152847653E+03  0.83613234507E+02 0.  0.
        -13    1    3    3    0    0 -0.19832879251E+02 -0.75949945031E+01 -0.31702925026E+02  0.38158911097E+02  0.00000000000E+00 0.  1.
         14    1    3    3    0    0  0.18305439918E+02  0.58924436776E+02  0.58614441371E+01  0.61980117032E+02  0.00000000000E+00 0. -1.
         11    1    5    5    0    0 -0.19910089045E+01  0.17779468447E+02  0.38576947137E+03  0.38618409943E+03  0.00000000000E+00 0. -1.
        -12    1    5    5    0    0 -0.43053931101E+02  0.69176525428E+00  0.96142177338E+02  0.10534437710E+03  0.00000000000E+00 0.  1.
          5    1    4    4  501    0  0.18530371440E+01 -0.96470103141E+02 -0.34833506021E+02  0.10266820388E+03  0.41800000000E+01 0.  1.
         -5    1    4    4    0  501  0.44719342194E+02  0.26669427167E+02 -0.13956501751E+01  0.52254168744E+02  0.41800000000E+01 0.  1.
</event>
<event>
11    1  0.8453735E-009  0.1474410E+03  0.7561462E-02  0.1099523E+00
         22   -1    0    0    0    0  0.00000000000E+00  0.00000000000E+00  0.14736445841E+04  0.14736445841E+04  0.00000000000E+00 0.  1.
         22   -1    0    0    0    0 -0.00000000000E+00 -0.00000000000E+00 -0.29646509490E+03  0.29646509490E+03  0.00000000000E+00 0. -1.
        -24    2    1    2    0    0 -0.31397474026E+02 -0.71983672106E+02 -0.25878377717E+03  0.28336631099E+03  0.84616620430E+02 0.  0.
         25    2    1    2    0    0  0.54753414075E+01  0.72871823484E+02  0.19460432281E+03  0.24261177512E+03  0.12509735788E+03 0.  0.
         24    2    1    2    0    0  0.25922132618E+02 -0.88815137778E+00  0.12413589435E+04  0.12441315928E+04  0.78858404055E+02 0.  0.
        -11    1    5    5    0    0  0.34303109103E+02 -0.19502729617E+02  0.30398482526E+03  0.30653520800E+03  0.00000000000E+00 0.  1.
         12    1    5    5    0    0 -0.83809764851E+01  0.18614578239E+02  0.93737411825E+03  0.93759638483E+03  0.00000000000E+00 0. -1.
         11    1    3    3    0    0 -0.46923151985E+02 -0.40558156033E+02 -0.22937288268E+03  0.23761032284E+03  0.00000000000E+00 0. -1.
        -12    1    3    3    0    0  0.15525677959E+02 -0.31425516073E+02 -0.29410894489E+02  0.45755988146E+02  0.00000000000E+00 0.  1.
          5    1    4    4  501    0 -0.19291137842E+02  0.43526015792E+02  0.38073003617E+01  0.47944029722E+02  0.41800000000E+01 0.  1.
         -5    1    4    4    0  501  0.24766479249E+02  0.29345807692E+02  0.19079702245E+03  0.19466774540E+03  0.41800000000E+01 0.  1.
</event>
<event>
11    1  0.8453735E-009  0.1492467E+03  0.7561462E-02  0.1097651E+00
         22   -1    0    0    0    0  0.00000000000E+00  0.00000000000E+00  0.23855494720E+04  0.23855494720E+04  0.00000000000E+00 0.  1.
         22   -1    0    0    0    0 -0.00000000000E+00 -0.00000000000E+00 -0.23939208940E+03  0.23939208940E+03  0.00000000000E+00 0.  1.
        -24    2    1    2    0    0  0.81624077755E+02  0.16359440258E+02 -0.20699714103E+03  0.23742683376E+03  0.81200761340E+02 0.  0.
         25    2    1    2    0    0  0.78628939433E+01 -0.15700388442E+02  0.24223293321E+03  0.27318956884E+03  0.12508964503E+03 0.  0.
         24    2    1    2    0    0 -0.89486971698E+02 -0.65905181582E+00  0.21109215905E+04  0.21143251588E+04  0.79828339317E+02 0.  0.
        -11    1    5    5    0    0 -0.96491210944E+02 -0.20703631361E+02  0.17370039733E+04  0.17398051607E+04  0.00000000000E+00 0.  1.
         12    1    5    5    0    0  0.70042392462E+01  0.20044579545E+02  0.37391761722E+03  0.37451999813E+03  0.00000000000E+00 0. -1.
         13    1    3    3    0    0  0.43460885834E+02  0.41243974067E+02 -0.16470063266E+03  0.17526041308E+03  0.00000000000E+00 0. -1.
        -14    1    3    3    0    0  0.38163191921E+02 -0.24884533809E+02 -0.42296508368E+02  0.62166420684E+02  0.00000000000E+00 0.  1.
          5    1    4    4  501    0  0.23514613866E+02 -0.14774912740E+02 -0.22451826620E+01  0.28173540014E+02  0.41800000000E+01 0. -1.
         -5    1    4    4    0  501 -0.15651719923E+02 -0.92547570182E+00  0.24447811587E+03  0.24501602882E+03  0.41800000000E+01 0. -1.
</event>
<event>
11    1  0.8453735E-009  0.1362470E+03  0.7561462E-02  0.1111823E+00
         22   -1    0    0    0    0  0.00000000000E+00  0.00000000000E+00  0.93997176099E+03  0.93997176099E+03  0.00000000000E+00 0. -1.
         22   -1    0    0    0    0 -0.00000000000E+00 -0.00000000000E+00 -0.79523828554E+03  0.79523828554E+03  0.00000000000E+00 0.  1.
         24    2    1    2    0    0 -0.35094964492E+02 -0.41328995762E+02 -0.72808200212E+03  0.73692661379E+03  0.10008841029E+03 0.  0.
         25    2    1    2    0    0  0.25486147371E+02  0.43553420337E+02  0.13981565211E+02  0.13561899860E+03  0.12510229608E+03 0.  0.
        -24    2    1    2    0    0  0.96088171207E+01 -0.22244245750E+01  0.85883391237E+03  0.86266443414E+03  0.80603718659E+02 0.  0.
        -11    1    3    3    0    0 -0.40180493227E+01  0.31145578922E+02 -0.30026997946E+03  0.30190768849E+03  0.00000000000E+00 0.  1.
         12    1    3    3    0    0 -0.31076915169E+02 -0.72474574683E+02 -0.42781202266E+03  0.43501892530E+03  0.00000000000E+00 0. -1.
         13    1    5    5    0    0  0.44434298071E+02 -0.51322560947E+01  0.56286493938E+03  0.56463943086E+03  0.00000000000E+00 0. -1.
        -14    1    5    5    0    0 -0.34825480951E+02  0.29078315196E+01  0.29596897299E+03  0.29802500328E+03  0.00000000000E+00 0.  1.
          5    1    4    4  501    0  0.10598302924E+02  0.86756896119E+02 -0.49173633168E+00  0.87503127108E+02  0.41800000000E+01 0.  1.
         -5    1    4    4    0  501  0.14887844447E+02 -0.43203475782E+02  0.14473301543E+02  0.48115871493E+02  0.41800000000E+01 0.  1.
</event>
<event>
11    1  0.8453735E-009  0.1766174E+03  0.7561462E-02  0.1072412E+00
         22   -1    0    0    0    0  0.00000000000E+00  0.00000000000E+00  0.11707868148E+04  0.11707868148E+04  0.00000000000E+00 0. -1.
         22   -1    0    0    0    0 -0.00000000000E+00 -0.00000000000E+00 -0.76344233764E+03  0.76344233764E+03  0.00000000000E+00 0. -1.
        -24    2    1    2    0    0  0.86933463012E+02 -0.37749011567E+02 -0.72536209851E+03  0.73594250188E+03  0.80490851987E+02 0.  0.
         25    2    1    2    0    0 -0.10898668279E+03  0.14539327928E+03  0.46681439724E+03  0.51631386377E+03  0.12508805607E+03 0.  0.
         24    2    1    2    0    0  0.22053219778E+02 -0.10764426771E+03  0.66589217848E+03  0.68197278684E+03  0.97983956627E+02 0.  0.
        -13    1    5    5    0    0  0.40530224200E+02 -0.36668562320E+01  0.15289714631E+03  0.15822035981E+03  0.00000000000E+00 0.  1.
         14    1    5    5    0    0 -0.18477004422E+02 -0.10397741148E+03  0.51299503217E+03  0.52375242703E+03  0.00000000000E+00 0. -1.
         11    1    3    3    0    0  0.91384986502E+02 -0.54714095335E+02 -0.60399690593E+03  0.61331648466E+03  0.00000000000E+00 0. -1.
        -12    1    3    3    0    0 -0.44515234901E+01  0.16965083768E+02 -0.12136519258E+03  0.12262601722E+03  0.00000000000E+00 0.  1.
          5    1    4    4  501    0 -0.11149994388E+03  0.45666510213E+02  0.24458065417E+03  0.27268083254E+03  0.41800000000E+01 0. -1.
         -5    1    4    4    0  501  0.25132610947E+01  0.99726769063E+02  0.22223374307E+03  0.24363303123E+03  0.41800000000E+01 0. -1.
</event>
<event>
11    1  0.8453735E-009  0.3466281E+03  0.7561462E-02  0.9821850E-01
         22   -1    0    0    0    0  0.00000000000E+00  0.00000000000E+00  0.21195423468E+04  0.21195423468E+04  0.00000000000E+00 0. -1.
         22   -1    0    0    0    0 -0.00000000000E+00 -0.00000000000E+00 -0.86220520944E+03  0.86220520944E+03  0.00000000000E+00 0.  1.
        -24    2    1    2    0    0 -0.46660945460E+02 -0.31787482405E+03 -0.78567197940E+03  0.85250872132E+03  0.79177099707E+02 0.  0.
         25    2    1    2    0    0 -0.35468129837E+02  0.42379853058E+03  0.14991528351E+04  0.15633198711E+04  0.12508642440E+03 0.  0.
         24    2    1    2    0    0  0.82129075296E+02 -0.10592370653E+03  0.54385628167E+03  0.56591896385E+03  0.80744051927E+02 0.  0.
        -11    1    5    5    0    0  0.14298452601E+02 -0.33550943131E+02  0.30661661209E+03  0.30877800819E+03  0.00000000000E+00 0.  1.
         12    1    5    5    0    0  0.67830622696E+02 -0.72372763395E+02  0.23723966959E+03  0.25714095567E+03  0.00000000000E+00 0. -1.
         13    1    3    3    0    0 -0.16176898063E+02 -0.13762163539E+03 -0.24126323147E+03  0.27822536444E+03  0.00000000000E+00 0. -1.
        -14    1    3    3    0    0 -0.30484047396E+02 -0.18025318866E+03 -0.54440874793E+03  0.57428335688E+03  0.00000000000E+00 0.  1.
          5    1    4    4  501    0  0.63582264258E+01  0.28399094845E+03  0.11561211723E+04  0.11905145624E+04  0.41800000000E+01 0.  1.
         -5    1    4    4    0  501 -0.41826356263E+02  0.13980758213E+03  0.34303166285E+03  0.37280530873E+03  0.41800000000E+01 0.  1.
</event>
<event>
11    1  0.8453735E-009  0.2894282E+03  0.7561462E-02  0.1004767E+00
         22   -1    0    0    0    0  0.00000000000E+00  0.00000000000E+00  0.13082279251E+04  0.13082279251E+04  0.00000000000E+00 0. -1.
         22   -1    0    0    0    0 -0.00000000000E+00 -0.00000000000E+00 -0.24827458986E+03  0.24827458986E+03  0.00000000000E+00 0.  1.
         24    2    1    2    0    0 -0.19613495626E+01 -0.91609686370E+02 -0.11730910009E+03  0.16784345914E+03  0.77548825152E+02 0.  0.
         25    2    1    2    0    0 -0.10812049062E+03  0.31263233386E+03  0.26994631059E+03  0.44491096321E+03  0.12508292417E+03 0.  0.
        -24    2    1    2    0    0  0.11008184018E+03 -0.22102264749E+03  0.90731612471E+03  0.94374809258E+03  0.80429409120E+02 0.  0.
        -11    1    3    3    0    0  0.13303113117E+02 -0.10115879668E+03 -0.99078101571E+02  0.14222005898E+03  0.00000000000E+00 0.  1.
         12    1    3    3    0    0 -0.15264462680E+02  0.95491103137E+01 -0.18230998519E+02  0.25623400158E+02  0.00000000000E+00 0. -1.
         11    1    5    5    0    0  0.56812277888E+02 -0.18284413720E+03  0.73054277925E+03  0.75521676739E+03  0.00000000000E+00 0. -1.
        -12    1    5    5    0    0  0.53269562291E+02 -0.38178510294E+02  0.17677334545E+03  0.18853132519E+03  0.00000000000E+00 0.  1.
          5    1    4    4  501    0  0.26137630363E+02  0.25956752763E+02  0.28745701177E+02  0.46911794584E+02  0.41800000000E+01 0.  1.
         -5    1    4    4    0  501 -0.13425812098E+03  0.28667558110E+03  0.24120060942E+03  0.39799916863E+03  0.41800000000E+01 0.  1.
</event>
<event>
11    1  0.8453735E-009  0.1460607E+03  0.7561462E-02  0.1100973E+00
         22   -1    0    0    0    0  0.00000000000E+00  0.00000000000E+00  0.54514270075E+03  0.54514270075E+03  0.00000000000E+00 0.  1.
         22   -1    0    0    0    0 -0.00000000000E+00 -0.00000000000E+00 -0.11271344878E+04  0.11271344878E+04  0.00000000000E+00 0. -1.
        -24    2    1    2    0    0 -0.75054261857E+02  0.64098889253E+01 -0.10742046012E+04  0.10798646108E+04  0.80733038541E+02 0.  0.
         25    2    1    2    0    0  0.82833528121E+02  0.41761512699E+02  0.91574620331E+02  0.18066162175E+03  0.12508914085E+03 0.  0.
         24    2    1    2    0    0 -0.77792662636E+01 -0.48171401624E+02  0.40063819381E+03  0.41175095601E+03  0.81528439886E+02 0.  0.
        -11    1    5    5    0    0  0.67890214270E+01 -0.43343578234E+02  0.39137172413E+03  0.39382303517E+03  0.00000000000E+00 0.  1.
         12    1    5    5    0    0 -0.14568287691E+02 -0.48278233909E+01  0.92664696873E+01  0.17927920833E+02  0.00000000000E+00 0. -1.
         11    1    3    3    0    0 -0.92225641182E+02  0.99466675039E+01 -0.92144536796E+03  0.92610262456E+03  0.00000000000E+00 0. -1.
        -12    1    3    3    0    0  0.17171379325E+02 -0.35367785786E+01 -0.15275923324E+03  0.15376198623E+03  0.00000000000E+00 0.  1.
          5    1    4    4  501    0  0.26356984487E+02  0.33450405569E+02  0.11199414782E+03  0.11989070777E+03  0.41800000000E+01 0. -1.
         -5    1    4    4    0  501  0.56476543633E+02  0.83111071296E+01 -0.20419527488E+02  0.60770913975E+02  0.41800000000E+01 0. -1.
</event>
<event>
11    1  0.8453735E-009  0.5907296E+03  0.7561462E-02  0.9210904E-01
         22   -1    0    0    0    0  0.00000000000E+00  0.00000000000E+00  0.12640452606E+04  0.12640452606E+04  0.00000000000E+00 0. -1.
         22   -1    0    0    0    0 -0.00000000000E+00 -0.00000000000E+00 -0.87594432364E+03  0.87594432364E+03  0.00000000000E+00 0. -1.
        -24    2    1    2    0    0  0.12076805443E+03 -0.57191200907E+03 -0.62106342493E+03  0.85663262716E+03  0.80196078590E+02 0.  0.
         25    2    1    2    0    0 -0.15638764583E+03  0.52000302333E+03  0.45618193486E+03  0.72014999058E+03  0.12511519170E+03 0.  0.
         24    2    1    2    0    0  0.35619591396E+02  0.51908985743E+02  0.55298242699E+03  0.56320696647E+03  0.86308889581E+02 0.  0.
        -11    1    5    5    0    0 -0.19643647666E+02 -0.78070873286E+01  0.19246256675E+03  0.19361989336E+03  0.00000000000E+00 0.  1.
         12    1    5    5    0    0  0.55263239062E+02  0.59716073072E+02  0.36051986024E+03  0.36958707310E+03  0.00000000000E+00 0. -1.
         13    1    3    3    0    0  0.27584787889E+02 -0.31106095633E+03 -0.35023748886E+03  0.46923995747E+03  0.00000000000E+00 0. -1.
        -14    1    3    3    0    0  0.93183266545E+02 -0.26085105274E+03 -0.27082593607E+03  0.38739266969E+03  0.00000000000E+00 0.  1.
          5    1    4    4  501    0  0.10814390567E+01  0.78324396948E+02  0.11921004599E+03  0.14270384764E+03  0.41800000000E+01 0. -1.
         -5    1    4    4    0  501 -0.15746908489E+03  0.44167862638E+03  0.33697188887E+03  0.57744614293E+03  0.41800000000E+01 0. -1.
</event>
<event>
11    1  0.8453735E-009  0.1350644E+03  0.7561462E-02  0.1113198E+00
         22   -1    0    0    0    0  0.00000000000E+00  0.00000000000E+00  0.88753097786E+03  0.88753097786E+03  0.00000000000E+00 0. -1.
         22   -1    0    0    0    0 -0.00000000000E+00 -0.00000000000E+00 -0.31112701712E+03  0.31112701712E+03  0.00000000000E+00 0.  1.
        -24    2    1    2    0    0 -0.30222149518E+02 -0.30627411968E+02 -0.24795112492E+03  0.26443716357E+03  0.81214755092E+02 0.  0.
         25    2    1    2    0    0  0.77666670127E+02  0.14986380365E+02  0.52766889458E+02  0.15712217872E+03  0.12508529561E+03 0.  0.
         24    2    1    2    0    0 -0.47444520609E+02  0.15641031603E+02  0.77158819620E+03  0.77709865269E+03  0.77706802126E+02 0.  0.
        -13    1    5    5    0    0 -0.11048255265E+02 -0.81329103105E+01  0.19992864845E+02  0.24247119813E+02  0.00000000000E+00 0.  1.
         14    1    5    5    0    0 -0.36396265344E+02  0.23773941914E+02  0.75159533136E+03  0.75285153288E+03  0.00000000000E+00 0. -1.
         13    1    3    3    0    0  0.65628167101E-01  0.20140071723E+02 -0.18009139444E+02  0.27017696045E+02  0.00000000000E+00 0. -1.
        -14    1    3    3    0    0 -0.30287777685E+02 -0.50767483691E+02 -0.22994198547E+03  0.23741946753E+03  0.00000000000E+00 0.  1.
          5    1    4    4  501    0 -0.23149764717E+02  0.13364537324E+02 -0.19197950465E+02  0.33174631367E+02  0.41800000000E+01 0.  1.
         -5    1    4    4    0  501  0.10081643484E+03  0.16218430414E+01  0.71964839923E+02  0.12394754735E+03  0.41800000000E+01 0.  1.
</event>
<event>
11    1  0.8453735E-009  0.1389841E+03  0.7561462E-02  0.1108698E+00
         22   -1    0    0    0    0  0.00000000000E+00  0.00000000000E+00  0.34654936060E+03  0.34654936060E+03  0.00000000000E+00 0. -1.
         22   -1    0    0    0    0 -0.00000000000E+00 -0.00000000000E+00 -0.56661573360E+03  0.56661573360E+03  0.00000000000E+00 0. -1.
        -24    2    1    2    0    0 -0.45698117420E+01 -0.15862740362E+02 -0.47911394042E+03  0.48612751861E+03  0.80605748759E+02 0.  0.
         25    2    1    2    0    0 -0.23395788256E+02 -0.39887007749E+02 -0.15157949251E+02  0.13422175115E+03  0.12508948301E+03 0.  0.
         24    2    1    2    0    0  0.27965599998E+02  0.55749748111E+02  0.27420551667E+03  0.29281582444E+03  0.81623112361E+02 0.  0.
        -13    1    5    5    0    0 -0.82085909119E+01 -0.17343905083E+02  0.78209901662E+02  0.80529378032E+02  0.00000000000E+00 0.  1.
         14    1    5    5    0    0  0.36174190910E+02  0.73093653195E+02  0.19599561501E+03  0.21228644641E+03  0.00000000000E+00 0. -1.
         11    1    3    3    0    0  0.16241374245E+01 -0.93570114614E+01 -0.47674242537E+03  0.47683700741E+03  0.00000000000E+00 0. -1.
        -12    1    3    3    0    0 -0.61939491665E+01 -0.65057289009E+01 -0.23715150544E+01  0.92905112057E+01  0.00000000000E+00 0.  1.
          5    1    4    4  501    0  0.47427927475E+02  0.27762719229E+00 -0.21917259680E+02  0.52414922048E+02  0.41800000000E+01 0. -1.
         -5    1    4    4    0  501 -0.70823715731E+02 -0.40164634941E+02  0.67593104288E+01  0.81806829100E+02  0.41800000000E+01 0. -1.
</event>
<event>
11    1  0.8453735E-009  0.2389309E+03  0.7561462E-02  0.1029967E+00
         22   -1    0    0    0    0  0.00000000000E+00  0.00000000000E+00  0.31280456214E+03  0.31280456214E+03  0.00000000000E+00 0. -1.
         22   -1    0    0    0    0 -0.00000000000E+00 -0.00000000000E+00 -0.10445068659E+04  0.10445068659E+04  0.00000000000E+00 0.  1.
        -24    2    1    2    0    0 -0.10465252738E+03 -0.73868454884E+02 -0.55238357054E+03  0.57259510106E+03  0.79554010860E+02 0.  0.
         25    2    1    2    0    0  0.26549674659E+03  0.17820402647E+03 -0.37002405918E+03  0.50478830699E+03  0.12509289750E+03 0.  0.
         24    2    1    2    0    0 -0.16084421921E+03 -0.10433557159E+03  0.19070532597E+03  0.27992801997E+03  0.72349157988E+02 0.  0.
        -13    1    5    5    0    0 -0.70927227066E+02 -0.86451709970E+02  0.88319392943E+02  0.14249520998E+03  0.00000000000E+00 0.  1.
         14    1    5    5    0    0 -0.89916992140E+02 -0.17883861617E+02  0.10238593302E+03  0.13743280999E+03  0.00000000000E+00 0. -1.
         11    1    3    3    0    0 -0.37769108797E+02 -0.34506600175E+01 -0.61946891353E+02  0.72634908840E+02  0.00000000000E+00 0. -1.
        -12    1    3    3    0    0 -0.66883418585E+02 -0.70417794866E+02 -0.49043667919E+03  0.49996019222E+03  0.00000000000E+00 0.  1.
          5    1    4    4  501    0  0.51104523475E+02  0.14518862036E+02 -0.14162380923E+03  0.15131835782E+03  0.41800000000E+01 0.  1.
         -5    1    4    4    0  501  0.21439222311E+03  0.16368516443E+03 -0.22840024996E+03  0.35346994917E+03  0.41800000000E+01 0.  1.
</event>
<event>
11    1  0.8453735E-009  0.2104241E+03  0.7561462E-02  0.1047388E+00
         22   -1    0    0    0    0  0.00000000000E+00  0.00000000000E+00  0.52037495606E+03  0.52037495606E+03  0.00000000000E+00 0. -1.
         22   -1    0    0    0    0 -0.00000000000E+00 -0.00000000000E+00 -0.45661123094E+03  0.45661123094E+03  0.00000000000E+00 0.  1.
         24    2    1    2    0    0 -0.48152200449E+02  0.26455423933E+02 -0.35146623487E+03  0.36701959078E+03  0.90312468133E+02 0.  0.
         25    2    1    2    0    0  0.32502463761E+02 -0.18885509322E+03  0.10882049689E+03  0.25337297948E+03  0.12503323480E+03 0.  0.
        -24    2    1    2    0    0  0.15649736688E+02  0.16239966928E+03  0.30640946310E+03  0.35659361674E+03  0.81570102261E+02 0.  0.
        -13    1    3    3    0    0 -0.52875045049E+02 -0.41369378895E+01 -0.31387146838E+03  0.31832088104E+03  0.00000000000E+00 0.  1.
         14    1    3    3    0    0  0.47228446001E+01  0.30592361823E+02 -0.37594766495E+02  0.48698709744E+02  0.00000000000E+00 0. -1.
         13    1    5    5    0    0  0.34897663888E+02  0.14702619684E+03  0.22114970402E+03  0.26784648791E+03  0.00000000000E+00 0. -1.
        -14    1    5    5    0    0 -0.19247927200E+02  0.15373472447E+02  0.85259759079E+02  0.88747128825E+02  0.00000000000E+00 0.  1.
          5    1    4    4  501    0  0.19541255453E+02 -0.20206256453E+03  0.11508431176E+03  0.23339454120E+03  0.41800000000E+01 0.  1.
         -5    1    4    4    0  501  0.12961208308E+02  0.13207471313E+02 -0.62638148758E+01  0.19978438279E+02  0.41800000000E+01 0.  1.
</event>
<event>
11    1  0.8453735E-009  0.2373632E+03  0.7561462E-02  0.1030855E+00
         22   -1    0    0    0    0  0.00000000000E+00  0.00000000000E+00  0.48081089988E+03  0.48081089988E+03  0.00000000000E+00 0. -1.
         22   -1    0    0    0    0 -0.00000000000E+00 -0.00000000000E+00 -0.64250837548E+03  0.64250837548E+03  0.00000000000E+00 0.  1.
         24    2    1    2    0    0  0.84899853604E+02 -0.26333314008E+02 -0.21298358078E+03  0.24660606918E+03  0.86897175478E+02 0.  0.
         25    2    1    2    0    0 -0.17978410296E+03 -0.15028916449E+03 -0.33897584334E+03  0.43065081393E+03  0.12508534900E+03 0.  0.
        -24    2    1    2    0    0  0.94884249357E+02  0.17662247849E+03  0.39026194852E+03  0.44606239225E+03  0.80428531227E+02 0.  0.
        -11    1    3    3    0    0  0.33568271012E+02  0.30683240727E+02 -0.10208275964E+03  0.11175499942E+03  0.00000000000E+00 0.  1.
         12    1    3    3    0    0  0.51331582591E+02 -0.57016554735E+02 -0.11090082114E+03  0.13485106976E+03  0.00000000000E+00 0. -1.
         11    1    5    5    0    0  0.10135042965E+03  0.11697589167E+03  0.25867175642E+03  0.30144045247E+03  0.00000000000E+00 0. -1.
        -12    1    5    5    0    0 -0.64661802891E+01  0.59646586825E+02  0.13159019210E+03  0.14462193978E+03  0.00000000000E+00 0.  1.
          5    1    4    4  501    0 -0.91681240067E+02 -0.32458324256E+02 -0.57620398310E+02  0.11312194878E+03  0.41800000000E+01 0. -1.
         -5    1    4    4    0  501 -0.88102862893E+02 -0.11783084023E+03 -0.28135544503E+03  0.31752886515E+03  0.41800000000E+01 0. -1.
</event>
<event>
11    1  0.8453735E-009  0.5150362E+03  0.7561462E-02  0.9360536E-01
         22   -1    0    0    0    0  0.00000000000E+00  0.00000000000E+00  0.91780885083E+03  0.91780885083E+03  0.00000000000E+00 0. -1.
         22   -1    0    0    0    0 -0.00000000000E+00 -0.00000000000E+00 -0.38667427553E+03  0.38667427553E+03  0.00000000000E+00 0. -1.
        -24    2    1    2    0    0  0.10256945257E+03 -0.48824242183E+03  0.99905045478E+02  0.51204237330E+03  0.57491032942E+02 0.  0.
         25    2    1    2    0    0 -0.12150726911E+03  0.48575080324E+03  0.21225158699E+03  0.55804611749E+03  0.12508746452E+03 0.  0.
         24    2    1    2    0    0  0.18937816537E+02  0.24916185952E+01  0.21897794284E+03  0.23439463555E+03  0.81391993885E+02 0.  0.
        -13    1    5    5    0    0  0.22602714456E+02  0.39631144213E+02  0.10565574914E+03  0.11508539273E+03  0.00000000000E+00 0.  1.
         14    1    5    5    0    0 -0.36648979192E+01 -0.37139525618E+02  0.11332219369E+03  0.11930924283E+03  0.00000000000E+00 0. -1.
         11    1    3    3    0    0  0.99335005850E+02 -0.43001626292E+03  0.71208350430E+02  0.44704816177E+03  0.00000000000E+00 0. -1.
        -12    1    3    3    0    0  0.32344467198E+01 -0.58226158909E+02  0.28696695048E+02  0.64994211539E+02  0.00000000000E+00 0.  1.
          5    1    4    4  501    0 -0.23057877951E+02  0.90033658036E+02  0.96707287882E+02  0.13419201632E+03  0.41800000000E+01 0.  1.
         -5    1    4    4    0  501 -0.98449391156E+02  0.39571714520E+03  0.11554429910E+03  0.42385410117E+03  0.41800000000E+01 0.  1.
</event>
<event>
11    1  0.8453735E-009  0.1660220E+03  0.7561462E-02  0.1081546E+00
         22   -1    0    0    0    0  0.00000000000E+00  0.00000000000E+00  0.30999648384E+03  0.30999648384E+03  0.00000000000E+00 0. -1.
         22   -1    0    0    0    0 -0.00000000000E+00 -0.00000000000E+00 -0.13361685096E+03  0.13361685096E+03  0.00000000000E+00 0. -1.
         24    2    1    2    0    0  0.87841448608E+02  0.80941640558E+02  0.49495619034E+01  0.14414138590E+03  0.80526838364E+02 0.  0.
         25    2    1    2    0    0 -0.81422719911E+02 -0.45280814878E+02  0.81672624484E+02  0.17606417596E+03  0.12509262549E+03 0.  0.
        -24    2    1    2    0    0 -0.64187286965E+01 -0.35660825680E+02  0.89757446493E+02  0.12340777295E+03  0.76551842932E+02 0.  0.
        -13    1    3    3    0    0 -0.11819431599E+02  0.21724192263E+02 -0.11101583336E+02  0.27108755881E+02  0.00000000000E+00 0.  1.
         14    1    3    3    0    0  0.99660880207E+02  0.59217448294E+02  0.16051145239E+02  0.11703263002E+03  0.00000000000E+00 0. -1.
         13    1    5    5    0    0  0.15142270278E+02  0.24853568632E+01  0.75922465939E+02  0.77457641213E+02  0.00000000000E+00 0. -1.
        -14    1    5    5    0    0 -0.21560998975E+02 -0.38146182543E+02  0.13834980554E+02  0.45950131733E+02  0.00000000000E+00 0.  1.
          5    1    4    4  501    0 -0.97856547943E+02 -0.72678585364E+02  0.53190262873E+02  0.13305922445E+03  0.41800000000E+01 0. -1.
         -5    1    4    4    0  501  0.16433828032E+02  0.27397770486E+02  0.28482361611E+02  0.43004951510E+02  0.41800000000E+01 0. -1.
</event>
<event>
11    1  0.8453735E-009  0.2757933E+03  0.7561462E-02  0.1010991E+00
         22   -1    0    0    0    0  0.00000000000E+00  0.00000000000E+00  0.15334196628E+04  0.15334196628E+04  0.00000000000E+00 0.  1.
         22   -1    0    0    0    0 -0.00000000000E+00 -0.00000000000E+00 -0.13061313872E+04  0.13061313872E+04  0.00000000000E+00 0.  1.
        -24    2    1    2    0    0  0.22119173372E+03 -0.10830382609E+03 -0.12323434404E+04  0.12593436167E+04  0.81366381328E+02 0.  0.
         25    2    1    2    0    0 -0.24668257497E+03  0.26056959185E+02  0.27882882206E+03  0.39360457262E+03  0.12509112541E+03 0.  0.
         24    2    1    2    0    0  0.25490841250E+02  0.82246866901E+02  0.11808028940E+04  0.11866028606E+04  0.79476690433E+02 0.  0.
        -11    1    5    5    0    0  0.10259446507E+02  0.74099244854E+02  0.11378556201E+04  0.11403119602E+04  0.00000000000E+00 0.  1.
         12    1    5    5    0    0  0.15231394743E+02  0.81476220478E+01  0.42947273852E+02  0.46290900425E+02  0.00000000000E+00 0. -1.
         11    1    3    3    0    0  0.42976854585E+02 -0.61183510120E+02 -0.33021138450E+03  0.33857051023E+03  0.00000000000E+00 0. -1.
        -12    1    3    3    0    0  0.17821487913E+03 -0.47120315967E+02 -0.90213205593E+03  0.92077310650E+03  0.00000000000E+00 0.  1.
          5    1    4    4  501    0 -0.69804808281E+02  0.49127313158E+02  0.15307888205E+03  0.17531919658E+03  0.41800000000E+01 0.  1.
         -5    1    4    4    0  501 -0.17687776669E+03 -0.23070353972E+02  0.12574994001E+03  0.21828537604E+03  0.41800000000E+01 0.  1.
</event>
<event>
11    1  0.9688254E-009  0.1546795E+03  0.7561462E-02  0.1092191E+00
         22   -1    0    0    0    0  0.00000000000E+00  0.00000000000E+00  0.67975251377E+03  0.67975251377E+03  0.00000000000E+00 0. -1.
         22   -1    0    0    0    0 -0.00000000000E+00 -0.00000000000E+00 -0.45874609616E+03  0.45874609616E+03  0.00000000000E+00 0. -1.
        -24    2    1    2    0    0  0.34404352688E+02  0.84851927310E+02 -0.33475075272E+03  0.35483971317E+03  0.73957058776E+02 0.  0.
         25    2    1    2    0    0 -0.12088713417E+03 -0.58441847368E+02 -0.29743898705E+02  0.18590207765E+03  0.12508290944E+03 0.  0.
         24    2    1    2    0    0  0.86482781481E+02 -0.26410079942E+02  0.58550106904E+03  0.59775681911E+03  0.79529548767E+02 0.  0.
        -11    1    5    5    0    0  0.42268523546E+02  0.26997629560E+02  0.20981319117E+03  0.21572453563E+03  0.00000000000E+00 0.  1.
         12    1    5    5    0    0  0.44214257934E+02 -0.53407709502E+02  0.37568787787E+03  0.38203228348E+03  0.00000000000E+00 0. -1.
         11    1    3    3    0    0  0.66800870369E+01  0.88062893877E+02 -0.22817812618E+03  0.24467315772E+03  0.00000000000E+00 0. -1.
        -12    1    3    3    0    0  0.27724265651E+02 -0.32109665667E+01 -0.10657262654E+03  0.11016655545E+03  0.00000000000E+00 0.  1.
          5    1    4    4  501    0  0.38893100810E+01 -0.27173243496E+02  0.32660467438E+02  0.42868291641E+02  0.41800000000E+01 0. -1.
         -5    1    4    4    0  501 -0.12477644425E+03 -0.31268603872E+02 -0.62404366143E+02  0.14303378601E+03  0.41800000000E+01 0. -1.
</event>
<event>
11    1  0.8453735E-009  0.1775830E+03  0.7561462E-02  0.1071615E+00
         22   -1    0    0    0    0  0.00000000000E+00  0.00000000000E+00  0.38944352965E+03  0.38944352965E+03  0.00000000000E+00 0. -1.
         22   -1    0    0    0    0 -0.00000000000E+00 -0.00000000000E+00 -0.11615976234E+04  0.11615976234E+04  0.00000000000E+00 0.  1.
        -24    2    1    2    0    0  0.40786862155E+02  0.65657893969E+01 -0.62421636182E+03  0.63076908615E+03  0.80727293829E+02 0.  0.
         25    2    1    2    0    0 -0.74663116229E+02  0.11469869276E+03 -0.50222003642E+03  0.53535353750E+03  0.12509226230E+03 0.  0.
         24    2    1    2    0    0  0.33876254074E+02 -0.12126448216E+03  0.35428230446E+03  0.38491852942E+03  0.82423587753E+02 0.  0.
        -13    1    5    5    0    0 -0.61175277718E+01 -0.53782512647E+01 -0.17841176163E+01  0.83386334836E+01  0.00000000000E+00 0.  1.
         14    1    5    5    0    0  0.39993781845E+02 -0.11588623089E+03  0.35606642208E+03  0.37657989594E+03  0.00000000000E+00 0. -1.
         11    1    3    3    0    0  0.17346673925E+02  0.14077548575E+02 -0.38325028767E+02  0.44360932138E+02  0.00000000000E+00 0. -1.
        -12    1    3    3    0    0  0.23440188230E+02 -0.75117591776E+01 -0.58589133305E+03  0.58640815401E+03  0.00000000000E+00 0.  1.
          5    1    4    4  501    0 -0.82827528931E+02  0.38166707189E+02 -0.38035561543E+03  0.39115848921E+03  0.41800000000E+01 0. -1.
         -5    1    4    4    0  501  0.81644127019E+01  0.76531985572E+02 -0.12186442098E+03  0.14419504829E+03  0.41800000000E+01 0. -1.
</event>
<event>
11    1  0.8453735E-009  0.2534629E+03  0.7561462E-02  0.1022070E+00
         22   -1    0    0    0    0  0.00000000000E+00  0.00000000000E+00  0.17107500269E+04  0.17107500269E+04  0.00000000000E+00 0. -1.
         22   -1    0    0    0    0 -0.00000000000E+00 -0.00000000000E+00 -0.50030114353E+03  0.50030114353E+03  0.00000000000E+00 0.  1.
         24    2    1    2    0    0  0.36297744450E+02  0.20522657501E+03 -0.35746181052E+03  0.42083799751E+03  0.76747643746E+02 0.  0.
         25    2    1    2    0    0  0.20914006808E+01 -0.34774382624E+03  0.21647133052E+03  0.42829622413E+03  0.12509067122E+03 0.  0.
        -24    2    1    2    0    0 -0.38389145130E+02  0.14251725123E+03  0.13514393634E+04  0.13619169488E+04  0.81513981392E+02 0.  0.
        -11    1    3    3    0    0  0.33740589876E+02  0.20015083054E+03 -0.29479868019E+03  0.35791765004E+03  0.00000000000E+00 0.  1.
         12    1    3    3    0    0  0.25571545734E+01  0.50757444672E+01 -0.62663130339E+02  0.62920347466E+02  0.00000000000E+00 0. -1.
         11    1    5    5    0    0 -0.26674548318E+01  0.78541317617E+02  0.99065061175E+03  0.99376279285E+03  0.00000000000E+00 0. -1.
        -12    1    5    5    0    0 -0.35721690299E+02  0.63975933609E+02  0.36078875166E+03  0.36815415598E+03  0.00000000000E+00 0.  1.
          5    1    4    4  501    0  0.30403741093E+01  0.10253259183E+02  0.54275003416E+01  0.12700525916E+02  0.41800000000E+01 0.  1.
         -5    1    4    4    0  501 -0.94897342858E+00 -0.35799708542E+03  0.21104383017E+03  0.41559569821E+03  0.41800000000E+01 0.  1.
</event>
<event>
11    1  0.8453735E-009  0.1292552E+03  0.7561462E-02  0.1120187E+00
         22   -1    0    0    0    0  0.00000000000E+00  0.00000000000E+00  0.59710387138E+03  0.59710387138E+03  0.00000000000E+00 0. -1.
         22   -1    0    0    0    0 -0.00000000000E+00 -0.00000000000E+00 -0.91253809610E+03  0.91253809610E+03  0.00000000000E+00 0. -1.
        -24    2    1    2    0    0  0.60102301937E+01  0.31281622191E+02 -0.85263282864E+03  0.85709131682E+03  0.81290357041E+02 0.  0.
         25    2    1    2    0    0 -0.49450100774E+01 -0.60798734784E+02  0.35734390402E+02  0.14368424321E+03  0.12508907151E+03 0.  0.
         24    2    1    2    0    0 -0.10652201163E+01  0.29517112593E+02  0.50146421351E+03  0.50886640745E+03  0.81278955316E+02 0.  0.
        -13    1    5    5    0    0 -0.95629828773E+01 -0.13494607511E+02  0.36828343065E+03  0.36865463562E+03  0.00000000000E+00 0.  1.
         14    1    5    5    0    0  0.84977627610E+01  0.43011720103E+02  0.13318078286E+03  0.14021177183E+03  0.00000000000E+00 0. -1.
         11    1    3    3    0    0  0.36509254955E+02  0.38458301155E+02 -0.63564433340E+03  0.63785240080E+03  0.00000000000E+00 0. -1.
        -12    1    3    3    0    0 -0.30499024762E+02 -0.71766789638E+01 -0.21698849523E+03  0.21923891602E+03  0.00000000000E+00 0.  1.
          5    1    4    4  501    0 -0.59611403965E+01  0.13567773549E+02 -0.36689489747E+02  0.39789580694E+02  0.41800000000E+01 0.  1.
         -5    1    4    4    0  501  0.10161303191E+01 -0.74366508334E+02  0.72423880149E+02  0.10389466251E+03  0.41800000000E+01 0.  1.
</event>
<event>
11    1  0.1010960E-008  0.1710136E+03  0.7561462E-02  0.1077153E+00
         22   -1    0    0    0    0  0.00000000000E+00  0.00000000000E+00  0.22473745735E+04  0.22473745735E+04  0.00000000000E+00 0. -1.
         22   -1    0    0    0    0 -0.00000000000E+00 -0.00000000000E+00 -0.37270686802E+03  0.37270686802E+03  0.00000000000E+00 0.  1.
        -24    2    1    2    0    0 -0.25024610540E+02 -0.41504466340E+02 -0.19510397174E+03  0.21635424789E+03  0.79967174110E+02 0.  0.
         25    2    1    2    0    0 -0.83508207619E+02 -0.25763521857E+01 -0.13033553991E+03  0.19903546778E+03  0.12508999217E+03 0.  0.
         24    2    1    2    0    0  0.10853281816E+03  0.44080818526E+02  0.22001072172E+04  0.22046917259E+04  0.80444689009E+02 0.  0.
        -11    1    5    5    0    0  0.36843166172E+02 -0.23191363085E+02  0.61530294380E+03  0.61684112287E+03  0.00000000000E+00 0.  1.
         12    1    5    5    0    0  0.71689651987E+02  0.67272181611E+02  0.15848042734E+04  0.15878506030E+04  0.00000000000E+00 0. -1.
         11    1    3    3    0    0 -0.30132328259E+01 -0.61510653105E+02 -0.10816982496E+03  0.12447229029E+03  0.00000000000E+00 0. -1.
        -12    1    3    3    0    0 -0.22011377715E+02  0.20006186765E+02 -0.86934146772E+02  0.91881957602E+02  0.00000000000E+00 0.  1.
          5    1    4    4  501    0 -0.14232137549E+02 -0.58265066763E+02 -0.39868240684E+02  0.72140978364E+02  0.41800000000E+01 0.  1.
         -5    1    4    4    0  501 -0.69276070070E+02  0.55688714577E+02 -0.90467299227E+02  0.12689448942E+03  0.41800000000E+01 0.  1.
</event>
<event>
11    1  0.8453735E-009  0.1450024E+03  0.7561462E-02  0.1102098E+00
         22   -1    0    0    0    0  0.00000000000E+00  0.00000000000E+00  0.33130714138E+04  0.33130714138E+04  0.00000000000E+00 0.  1.
         22   -1    0    0    0    0 -0.00000000000E+00 -0.00000000000E+00 -0.55910768827E+03  0.55910768827E+03  0.00000000000E+00 0. -1.
         24    2    1    2    0    0 -0.58522407212E+02  0.45434926797E+02 -0.52975938872E+03  0.54136218744E+03  0.83299479814E+02 0.  0.
         25    2    1    2    0    0  0.70990494228E+02  0.22536130077E+02  0.21191001121E+03  0.25710106874E+03  0.12509028447E+03 0.  0.
        -24    2    1    2    0    0 -0.12468087016E+02 -0.67971056875E+02  0.30718131030E+04  0.30737158459E+04  0.83173574629E+02 0.  0.
        -13    1    3    3    0    0  0.98114107599E+01  0.27880703783E+02 -0.28816557530E+03  0.28967740025E+03  0.00000000000E+00 0.  1.
         14    1    3    3    0    0 -0.68333817972E+02  0.17554223014E+02 -0.24159381342E+03  0.25168478719E+03  0.00000000000E+00 0. -1.
         11    1    5    5    0    0  0.24176828384E+02 -0.50590863659E+02  0.10500533330E+04  0.10515493125E+04  0.00000000000E+00 0. -1.
        -12    1    5    5    0    0 -0.36644915400E+02 -0.17380193215E+02  0.20217597700E+04  0.20221665334E+04  0.00000000000E+00 0.  1.
          5    1    4    4  501    0  0.72633265530E+02  0.57182606456E+01  0.37918493036E+02  0.82240952575E+02  0.41800000000E+01 0. -1.
         -5    1    4    4    0  501 -0.16427713019E+01  0.16817869432E+02  0.17399151817E+03  0.17486011617E+03  0.41800000000E+01 0. -1.
</event>
<event>
11    1  0.8453735E-009  0.1299259E+03  0.7561462E-02  0.1119360E+00
         22   -1    0    0    0    0  0.00000000000E+00  0.00000000000E+00  0.84592079658E+03  0.84592079658E+03  0.00000000000E+00 0. -1.
         22   -1    0    0    0    0 -0.00000000000E+00 -0.00000000000E+00 -0.41729511945E+03  0.41729511945E+03  0.00000000000E+00 0. -1.
        -24    2    1    2    0    0  0.24155898579E+02  0.25000960223E+02 -0.37870973347E+03  0.38900972609E+03  0.81847109412E+02 0.  0.
         25    2    1    2    0    0 -0.33477917538E+02 -0.30138552175E+02  0.11119406793E+03  0.17332210775E+03  0.12508928412E+03 0.  0.
         24    2    1    2    0    0  0.93220189585E+01  0.51375919515E+01  0.69614134267E+03  0.70088408219E+03  0.80699645650E+02 0.  0.
        -11    1    5    5    0    0 -0.39530755730E+01  0.40793500818E+02  0.27642537814E+03  0.27944717962E+03  0.00000000000E+00 0.  1.
         12    1    5    5    0    0  0.13275094532E+02 -0.35655908867E+02  0.41971596453E+03  0.42143690257E+03  0.00000000000E+00 0. -1.
         11    1    3    3    0    0  0.10325987477E+02  0.39041723307E+02 -0.35854996503E+03  0.36081707221E+03  0.00000000000E+00 0. -1.
        -12    1    3    3    0    0  0.13829911102E+02 -0.14040763083E+02 -0.20159768434E+02  0.28192653873E+02  0.00000000000E+00 0.  1.
          5    1    4    4  501    0 -0.56564315914E+02  0.15641143731E+02  0.10649436704E+03  0.12166630521E+03  0.41800000000E+01 0.  1.
         -5    1    4    4    0  501  0.23086398376E+02 -0.45779695906E+02  0.46997008877E+01  0.51655802537E+02  0.41800000000E+01 0.  1.
</event>
<event>
11    1  0.8453735E-009  0.1393403E+03  0.7561462E-02  0.1108297E+00
         22   -1    0    0    0    0  0.00000000000E+00  0.00000000000E+00  0.38523981481E+03  0.38523981481E+03  0.00000000000E+00 0. -1.
         22   -1    0    0    0    0 -0.00000000000E+00 -0.00000000000E+00 -0.16706358604E+04  0.16706358604E+04  0.00000000000E+00 0. -1.
         24    2    1    2    0    0 -0.18085104741E+02  0.18555643541E+02 -0.15590582984E+04  0.15613821827E+04  0.81118183764E+02 0.  0.
         25    2    1    2    0    0 -0.37866955126E+02 -0.45082454101E+02 -0.56680823927E+02  0.14942156745E+03  0.12509098713E+03 0.  0.
        -24    2    1    2    0    0  0.55952059867E+02  0.26526810559E+02  0.33034307669E+03  0.34507192509E+03  0.78190667536E+02 0.  0.
        -11    1    3    3    0    0 -0.77492553552E+01 -0.20314237512E+02 -0.13368195732E+03  0.13543849127E+03  0.00000000000E+00 0.  1.
         12    1    3    3    0    0 -0.10335849386E+02  0.38869881053E+02 -0.14253763411E+04  0.14259436914E+04  0.00000000000E+00 0. -1.
         11    1    5    5    0    0  0.70650837576E+02  0.34665077682E+02  0.22427645912E+03  0.23768285293E+03  0.00000000000E+00 0. -1.
        -12    1    5    5    0    0 -0.14698777709E+02 -0.81382671230E+01  0.10606661757E+03  0.10738907217E+03  0.00000000000E+00 0.  1.
          5    1    4    4  501    0 -0.61020825090E+02  0.23448991210E+02 -0.22077863873E+02  0.69125254116E+02  0.41800000000E+01 0.  1.
         -5    1    4    4    0  501  0.23153869964E+02 -0.68531445310E+02 -0.34602960054E+02  0.80296313335E+02  0.41800000000E+01 0.  1.
</event>
<event>
11    1  0.8453735E-009  0.1441054E+03  0.7561462E-02  0.1103059E+00
         22   -1    0    0    0    0  0.00000000000E+00  0.00000000000E+00  0.20168871865E+04  0.20168871865E+04  0.00000000000E+00 0.  1.
         22   -1    0    0    0    0 -0.00000000000E+00 -0.00000000000E+00 -0.11380296020E+03  0.11380296020E+03  0.00000000000E+00 0. -1.
        -24    2    1    2    0    0 -0.14426744489E+02 -0.20441754581E+02 -0.84829599138E+02  0.12145609916E+03  0.83243779622E+02 0.  0.
         25    2    1    2    0    0 -0.45955887514E+02 -0.25693866073E+02  0.52272865929E+03  0.54006106010E+03  0.12509428062E+03 0.  0.
         24    2    1    2    0    0  0.60382632003E+02  0.46135620654E+02  0.14651851662E+04  0.14691729875E+04  0.76987909264E+02 0.  0.
        -11    1    5    5    0    0  0.26667757422E+02  0.48042738135E+02  0.12624076865E+04  0.12636029602E+04  0.00000000000E+00 0.  1.
         12    1    5    5    0    0  0.33714874581E+02 -0.19071174801E+01  0.20277747967E+03  0.20557002731E+03  0.00000000000E+00 0. -1.
         13    1    3    3    0    0 -0.36200287843E+02 -0.86240891825E+01 -0.88877460745E+02  0.96353717015E+02  0.00000000000E+00 0. -1.
        -14    1    3    3    0    0  0.21773543354E+02 -0.11817665399E+02  0.40478616069E+01  0.25102382143E+02  0.00000000000E+00 0.  1.
          5    1    4    4  501    0  0.48864086387E+01  0.36262260681E+02  0.59826099136E+02  0.70252851023E+02  0.41800000000E+01 0. -1.
         -5    1    4    4    0  501 -0.50842296153E+02 -0.61956126754E+02  0.46290256015E+03  0.46980820908E+03  0.41800000000E+01 0. -1.
</event>
<event>
11    1  0.8453735E-009  0.1375139E+03  0.7561462E-02  0.1110367E+00
         22   -1    0    0    0    0  0.00000000000E+00  0.00000000000E+00  0.65257526199E+03  0.65257526199E+03  0.00000000000E+00 0.  1.
         22   -1    0    0    0    0 -0.00000000000E+00 -0.00000000000E+00 -0.19499161778E+03  0.19499161778E+03  0.00000000000E+00 0. -1.
        -24    2    1    2    0    0 -0.25380433466E+02 -0.49321436486E+02 -0.14767908116E+03  0.17690364979E+03  0.80056353866E+02 0.  0.
         25    2    1    2    0    0  0.43582128948E+01  0.88481402018E+02  0.18448633034E+03  0.23985020837E+03  0.12507982991E+03 0.  0.
         24    2    1    2    0    0  0.21022220571E+02 -0.39159965533E+02  0.42077639502E+03  0.43081302161E+03  0.81065703729E+02 0.  0.
        -11    1    5    5    0    0  0.59821202355E+01 -0.62584389876E+02  0.32714027420E+03  0.33312662851E+03  0.00000000000E+00 0.  1.
         12    1    5    5    0    0  0.15040100335E+02  0.23424424344E+02  0.93636120823E+02  0.97686393099E+02  0.00000000000E+00 0. -1.
         11    1    3    3    0    0 -0.15185273537E+02  0.11935007962E+02 -0.31117439441E+01  0.19563228206E+02  0.00000000000E+00 0. -1.
        -12    1    3    3    0    0 -0.10195159928E+02 -0.61256444448E+02 -0.14456733722E+03  0.15734042158E+03  0.00000000000E+00 0.  1.
          5    1    4    4  501    0  0.49130544009E+02 -0.44075633496E+01  0.50381426678E+02  0.70632836014E+02  0.41800000000E+01 0.  1.
         -5    1    4    4    0  501 -0.44772331114E+02  0.92888965368E+02  0.13410490367E+03  0.16921737236E+03  0.41800000000E+01 0.  1.
</event>
<event>
11    1  0.8453735E-009  0.1854017E+03  0.7561462E-02  0.1065355E+00
         22   -1    0    0    0    0  0.00000000000E+00  0.00000000000E+00  0.59716494419E+03  0.59716494419E+03  0.00000000000E+00 0. -1.
         22   -1    0    0    0    0 -0.00000000000E+00 -0.00000000000E+00 -0.23523521415E+03  0.23523521415E+03  0.00000000000E+00 0. -1.
         24    2    1    2    0    0 -0.14808424336E+02  0.33377545266E+02 -0.13247378065E+03  0.15948798433E+03  0.80955324869E+02 0.  0.
         25    2    1    2    0    0  0.42974586063E+02 -0.16175262961E+03  0.68361029055E+02  0.21984037566E+03  0.12508330122E+03 0.  0.
        -24    2    1    2    0    0 -0.28166161727E+02  0.12837508434E+03  0.42604248164E+03  0.45307179836E+03  0.80550377746E+02 0.  0.
        -13    1    3    3    0    0 -0.91600040623E+01  0.21844413167E+02  0.25779245944E+01  0.23827080313E+02  0.00000000000E+00 0.  1.
         14    1    3    3    0    0 -0.56484202734E+01  0.11533132099E+02 -0.13505170525E+03  0.13566090401E+03  0.00000000000E+00 0. -1.
         13    1    5    5    0    0  0.26358537981E+01  0.11349076666E+03  0.37352666382E+03  0.39039629920E+03  0.00000000000E+00 0. -1.
        -14    1    5    5    0    0 -0.30802015525E+02  0.14884317682E+02  0.52515817824E+02  0.62675499161E+02  0.00000000000E+00 0.  1.
          5    1    4    4  501    0  0.68633584351E+02 -0.41415794002E+02  0.27084049945E+01  0.80315905967E+02  0.41800000000E+01 0. -1.
         -5    1    4    4    0  501 -0.25658998289E+02 -0.12033683560E+03  0.65652624061E+02  0.13952446969E+03  0.41800000000E+01 0. -1.
</event>
<event>
11    1  0.8453735E-009  0.1919898E+03  0.7561462E-02  0.1060337E+00
         22   -1    0    0    0    0  0.00000000000E+00  0.00000000000E+00  0.63044948226E+03  0.63044948226E+03  0.00000000000E+00 0. -1.
         22   -1    0    0    0    0 -0.00000000000E+00 -0.00000000000E+00 -0.98113494484E+03  0.98113494484E+03  0.00000000000E+00 0. -1.
        -24    2    1    2    0    0  0.64286243483E+02 -0.12960996161E+03 -0.87423703339E+03  0.88968644213E+03  0.79499128914E+02 0.  0.
         25    2    1    2    0    0  0.86324958971E+01  0.18406143080E+03  0.43740450402E+02  0.22696904356E+03  0.12509432218E+03 0.  0.
         24    2    1    2    0    0 -0.72918739380E+02 -0.54451469183E+02  0.47981112042E+03  0.49492894141E+03  0.80335799730E+02 0.  0.
        -13    1    5    5    0    0 -0.40370234564E+02  0.57317907290E+01  0.29602201697E+03  0.29881707413E+03  0.00000000000E+00 0.  1.
         14    1    5    5    0    0 -0.32548504816E+02 -0.60183259912E+02  0.18378910345E+03  0.19611186728E+03  0.00000000000E+00 0. -1.
         11    1    3    3    0    0  0.13077172624E+01 -0.40932298646E+02 -0.44511390170E+03  0.44699390229E+03  0.00000000000E+00 0. -1.
        -12    1    3    3    0    0  0.62978526220E+02 -0.88677662967E+02 -0.42912313169E+03  0.44269253984E+03  0.00000000000E+00 0.  1.
          5    1    4    4  501    0 -0.14212888433E+02  0.53156988234E+02 -0.41495270371E+02  0.69043475136E+02  0.41800000000E+01 0.  1.
         -5    1    4    4    0  501  0.22845384330E+02  0.13090444256E+03  0.85235720773E+02  0.15792556843E+03  0.41800000000E+01 0.  1.
</event>
<event>
11    1  0.8453735E-009  0.1479588E+03  0.7561462E-02  0.1098983E+00
         22   -1    0    0    0    0  0.00000000000E+00  0.00000000000E+00  0.10473939293E+03  0.10473939293E+03  0.00000000000E+00 0. -1.
         22   -1    0    0    0    0 -0.00000000000E+00 -0.00000000000E+00 -0.12935283447E+04  0.12935283447E+04  0.00000000000E+00 0.  1.
         24    2    1    2    0    0  0.75353814721E+02  0.24393651339E+02 -0.10352990994E+04  0.10441709844E+04  0.11034297273E+03 0.  0.
         25    2    1    2    0    0 -0.39152564556E+02 -0.11152140397E+03 -0.15696146264E+03  0.23292501341E+03  0.12508882549E+03 0.  0.
        -24    2    1    2    0    0 -0.36201250165E+02  0.87127752632E+02  0.34716103645E+01  0.12117173983E+03  0.75952371011E+02 0.  0.
        -11    1    3    3    0    0  0.92975641513E+02  0.44577224660E+02 -0.92196137487E+03  0.92770920854E+03  0.00000000000E+00 0.  1.
         12    1    3    3    0    0 -0.17621826792E+02 -0.20183573321E+02 -0.11333772458E+03  0.11646177581E+03  0.00000000000E+00 0. -1.
         13    1    5    5    0    0 -0.37048989173E+02  0.75144994189E+02  0.32415436078E+02  0.89834059502E+02  0.00000000000E+00 0. -1.
        -14    1    5    5    0    0  0.84773900795E+00  0.11982758443E+02 -0.28943825713E+02  0.31337680327E+02  0.00000000000E+00 0.  1.
          5    1    4    4  501    0 -0.58137196062E+02 -0.10278014270E+03 -0.17067221108E+03  0.20758171243E+03  0.41800000000E+01 0.  1.
         -5    1    4    4    0  501  0.18984631506E+02 -0.87412612717E+01  0.13710748437E+02  0.25343300984E+02  0.41800000000E+01 0.  1.
</event>
<event>
11    1  0.8453735E-009  0.2348956E+03  0.7561462E-02  0.1032268E+00
         22   -1    0    0    0    0  0.00000000000E+00  0.00000000000E+00  0.98673209255E+03  0.98673209255E+03  0.00000000000E+00 0.  1.
         22   -1    0    0    0    0 -0.00000000000E+00 -0.00000000000E+00 -0.14064634375E+04  0.14064634375E+04  0.00000000000E+00 0.  1.
         24    2    1    2    0    0 -0.69159767685E+01  0.12950324213E+02 -0.13416983307E+04  0.13443412352E+04  0.82966284987E+02 0.  0.
         25    2    1    2    0    0  0.19111652895E+03 -0.79738839329E+02  0.26601691977E+03  0.35957721106E+03  0.12508780505E+03 0.  0.
        -24    2    1    2    0    0 -0.18420055218E+03  0.66788515115E+02  0.65595006598E+03  0.68927708378E+03  0.80261198616E+02 0.  0.
        -13    1    3    3    0    0 -0.20220958006E+02  0.21000834823E+02 -0.12905933550E+04  0.12909225888E+04  0.00000000000E+00 0.  1.
         14    1    3    3    0    0  0.13304981238E+02 -0.80505106099E+01 -0.51104975711E+02  0.53418646456E+02  0.00000000000E+00 0. -1.
         11    1    5    5    0    0 -0.30173320535E+02 -0.18381944728E+02  0.12627204985E+03  0.13112191174E+03  0.00000000000E+00 0. -1.
        -12    1    5    5    0    0 -0.15402723164E+03  0.85170459843E+02  0.52967801612E+03  0.55815517205E+03  0.00000000000E+00 0.  1.
          5    1    4    4  501    0  0.17202883402E+02 -0.64927085605E+02  0.71075383768E+02  0.97880785756E+02  0.41800000000E+01 0. -1.
         -5    1    4    4    0  501  0.17391364554E+03 -0.14811753724E+02  0.19494153601E+03  0.26169642530E+03  0.41800000000E+01 0. -1.
</event>
<event>
11    1  0.8453735E-009  0.2509334E+03  0.7561462E-02  0.1023403E+00
         22   -1    0    0    0    0  0.00000000000E+00  0.00000000000E+00  0.26420993365E+03  0.26420993365E+03  0.00000000000E+00 0.  1.
         22   -1    0    0    0    0 -0.00000000000E+00 -0.00000000000E+00 -0.92192674765E+03  0.92192674765E+03  0.00000000000E+00 0.  1.
         24    2    1    2    0    0 -0.10164585959E+02 -0.14654637009E+02 -0.15176897857E+03  0.17259512989E+03  0.80232031090E+02 0.  0.
         25    2    1    2    0    0  0.12791255278E+02 -0.20395147375E+03 -0.68219255911E+03  0.72304528895E+03  0.12509189544E+03 0.  0.
        -24    2    1    2    0    0 -0.26266693191E+01  0.21860611075E+03  0.17624472368E+03  0.29049626246E+03  0.74366288256E+02 0.  0.
        -11    1    3    3    0    0  0.32276559385E+02 -0.92612000481E+01 -0.36270841441E+02  0.49427927844E+02  0.00000000000E+00 0.  1.
         12    1    3    3    0    0 -0.42441145344E+02 -0.53934369605E+01 -0.11549813713E+03  0.12316720205E+03  0.00000000000E+00 0. -1.
         13    1    5    5    0    0 -0.26878319898E+01  0.14430781992E+02 -0.68966969121E+01  0.16218395050E+02  0.00000000000E+00 0. -1.
        -14    1    5    5    0    0  0.61162670746E-01  0.20417532876E+03  0.18314142059E+03  0.27427786741E+03  0.00000000000E+00 0.  1.
          5    1    4    4  501    0 -0.25851311616E+02 -0.19863993688E+03 -0.57307800578E+03  0.60709306366E+03  0.41800000000E+01 0. -1.
         -5    1    4    4    0  501  0.38642566895E+02 -0.53115368691E+01 -0.10911455333E+03  0.11595222529E+03  0.41800000000E+01 0. -1.
</event>
<event>
11    1  0.8453735E-009  0.1885144E+03  0.7561462E-02  0.1062956E+00
         22   -1    0    0    0    0  0.00000000000E+00  0.00000000000E+00  0.73522753728E+03  0.73522753728E+03  0.00000000000E+00 0.  1.
         22   -1    0    0    0    0 -0.00000000000E+00 -0.00000000000E+00 -0.18765262970E+03  0.18765262970E+03  0.00000000000E+00 0. -1.
        -24    2    1    2    0    0  0.31927826292E+02 -0.15074276040E+03 -0.98027368943E+02  0.19854312829E+03  0.77892508147E+02 0.  0.
         25    2    1    2    0    0  0.81653480734E+02  0.75492181970E+02  0.28328697139E+03  0.32903712975E+03  0.12509022402E+03 0.  0.
         24    2    1    2    0    0 -0.11358130703E+03  0.75250578427E+02  0.36231530514E+03  0.39529990894E+03  0.80164049354E+02 0.  0.
        -13    1    5    5    0    0 -0.94037586749E+02  0.23097674278E+02  0.17650369799E+03  0.20132095192E+03  0.00000000000E+00 0.  1.
         14    1    5    5    0    0 -0.19543720277E+02  0.52152904149E+02  0.18581160715E+03  0.19397895702E+03  0.00000000000E+00 0. -1.
         13    1    3    3    0    0  0.36164716125E+02 -0.15733934779E+03 -0.82848682390E+02  0.18145925501E+03  0.00000000000E+00 0. -1.
        -14    1    3    3    0    0 -0.42368898330E+01  0.65965873943E+01 -0.15178686553E+02  0.17083873278E+02  0.00000000000E+00 0.  1.
          5    1    4    4  501    0  0.69165560039E+02 -0.12967930304E+02  0.17453411922E+03  0.18823302867E+03  0.41800000000E+01 0. -1.
         -5    1    4    4    0  501  0.12487920695E+02  0.88460112274E+02  0.10875285217E+03  0.14080410108E+03  0.41800000000E+01 0. -1.
</event>
<event>
11    1  0.8453735E-009  0.1605282E+03  0.7561462E-02  0.1086582E+00
         22   -1    0    0    0    0  0.00000000000E+00  0.00000000000E+00  0.10257137603E+04  0.10257137603E+04  0.00000000000E+00 0. -1.
         22   -1    0    0    0    0 -0.00000000000E+00 -0.00000000000E+00 -0.28795995552E+03  0.28795995552E+03  0.00000000000E+00 0.  1.
        -24    2    1    2    0    0 -0.34576976441E+02 -0.46051606782E+02 -0.25064028017E+03  0.26907282212E+03  0.79141113034E+02 0.  0.
         25    2    1    2    0    0  0.86614437024E+02  0.11184537313E+03  0.42712035892E+03  0.46700189723E+03  0.12509005885E+03 0.  0.
         24    2    1    2    0    0 -0.52037460583E+02 -0.65793766350E+02  0.56127372602E+03  0.57759899646E+03  0.10749738688E+03 0.  0.
        -11    1    5    5    0    0  0.12530716687E+02 -0.23689371134E+02  0.27907819785E+02  0.38691750679E+02  0.00000000000E+00 0.  1.
         12    1    5    5    0    0 -0.64568177271E+02 -0.42104395216E+02  0.53336590624E+03  0.53890724578E+03  0.00000000000E+00 0. -1.
         13    1    3    3    0    0  0.21850727447E+02 -0.56505740130E+01 -0.10939445183E+03  0.11169838570E+03  0.00000000000E+00 0. -1.
        -14    1    3    3    0    0 -0.56427703888E+02 -0.40401032768E+02 -0.14124582834E+03  0.15737443642E+03  0.00000000000E+00 0.  1.
          5    1    4    4  501    0 -0.10213438315E+02  0.67218091594E+02  0.86741018405E+02  0.11029081029E+03  0.41800000000E+01 0.  1.
         -5    1    4    4    0  501  0.96827875339E+02  0.44627281538E+02  0.34037934052E+03  0.35671108695E+03  0.41800000000E+01 0.  1.
</event>
<event>
11    1  0.8453735E-009  0.2355645E+03  0.7561462E-02  0.1031883E+00
         22   -1    0    0    0    0  0.00000000000E+00  0.00000000000E+00  0.86978656210E+03  0.86978656210E+03  0.00000000000E+00 0.  1.
         22   -1    0    0    0    0 -0.00000000000E+00 -0.00000000000E+00 -0.86098463486E+03  0.86098463486E+03  0.00000000000E+00 0.  1.
         24    2    1    2    0    0  0.40200408668E+02 -0.32191123533E+02 -0.56294154065E+03  0.57086041313E+03  0.79536732399E+02 0.  0.
         25    2    1    2    0    0 -0.11482508169E+03  0.21496270040E+03 -0.21276091311E+03  0.34685533100E+03  0.12509057736E+03 0.  0.
        -24    2    1    2    0    0  0.74624673021E+02 -0.18277157687E+03  0.78450438100E+03  0.81305545283E+03  0.81472415117E+02 0.  0.
        -13    1    3    3    0    0 -0.40812508703E+01 -0.12451714552E+02 -0.41439957348E+03  0.41460669110E+03  0.00000000000E+00 0.  1.
         14    1    3    3    0    0  0.44281659538E+02 -0.19739408981E+02 -0.14854196717E+03  0.15625372203E+03  0.00000000000E+00 0. -1.
         11    1    5    5    0    0 -0.78429748042E+01  0.23796952404E+01  0.12977463947E+02  0.15348933960E+02  0.00000000000E+00 0. -1.
        -12    1    5    5    0    0  0.82467647825E+02 -0.18515127211E+03  0.77152691706E+03  0.79770651887E+03  0.00000000000E+00 0.  1.
          5    1    4    4  501    0 -0.83217670163E+01  0.14242245076E+03 -0.89384007458E+02  0.16840540216E+03  0.41800000000E+01 0. -1.
         -5    1    4    4    0  501 -0.10650331467E+03  0.72540249646E+02 -0.12337690565E+03  0.17844992884E+03  0.41800000000E+01 0. -1.
</event>
<event>
11    1  0.8453735E-009  0.2063397E+03  0.7561462E-02  0.1050129E+00
         22   -1    0    0    0    0  0.00000000000E+00  0.00000000000E+00  0.46361969882E+03  0.46361969882E+03  0.00000000000E+00 0.  1.
         22   -1    0    0    0    0 -0.00000000000E+00 -0.00000000000E+00 -0.21451082506E+03  0.21451082506E+03  0.00000000000E+00 0. -1.
        -24    2    1    2    0    0  0.24773603095E+02  0.16510916023E+02 -0.98126170061E+02  0.13031175758E+03  0.80411859543E+02 0.  0.
         25    2    1    2    0    0 -0.12453866513E+03 -0.13641869893E+03  0.10140301987E+03  0.24504921571E+03  0.12508639074E+03 0.  0.
         24    2    1    2    0    0  0.99765062038E+02  0.11990778291E+03  0.24583202395E+03  0.30276955059E+03  0.83096767437E+02 0.  0.
        -11    1    5    5    0    0  0.91873333489E+02  0.58500948800E+02  0.19192969243E+03  0.22068093994E+03  0.00000000000E+00 0.  1.
         12    1    5    5    0    0  0.78917285488E+01  0.61406834111E+02  0.53902331524E+02  0.82088610652E+02  0.00000000000E+00 0. -1.
         13    1    3    3    0    0  0.29755810594E+02 -0.65304329525E+00 -0.10649581525E+03  0.11057664037E+03  0.00000000000E+00 0. -1.
        -14    1    3    3    0    0 -0.49822074992E+01  0.17163959318E+02  0.83696451849E+01  0.19735117217E+02  0.00000000000E+00 0.  1.
          5    1    4    4  501    0 -0.61841995798E+02 -0.11212217155E+03  0.11960144041E+03  0.17526491590E+03  0.41800000000E+01 0.  1.
         -5    1    4    4    0  501 -0.62696669334E+02 -0.24296527382E+02 -0.18198420546E+02  0.69784299802E+02  0.41800000000E+01 0.  1.
</event>
<event>
11    1  0.8453735E-009  0.1327937E+03  0.7561462E-02  0.1115883E+00
         22   -1    0    0    0    0  0.00000000000E+00  0.00000000000E+00  0.56105957881E+03  0.56105957881E+03  0.00000000000E+00 0.  1.
         22   -1    0    0    0    0 -0.00000000000E+00 -0.00000000000E+00 -0.37803456824E+03  0.37803456824E+03  0.00000000000E+00 0. -1.
         24    2    1    2    0    0 -0.18010129173E+02  0.44731438077E+02 -0.22642412986E+03  0.24506967083E+03  0.80411383968E+02 0.  0.
         25    2    1    2    0    0 -0.10896906305E+02 -0.37702734212E+02 -0.10701544997E+03  0.16923201649E+03  0.12508768980E+03 0.  0.
        -24    2    1    2    0    0  0.28907035479E+02 -0.70287038648E+01  0.51646459040E+03  0.52479245972E+03  0.88240768730E+02 0.  0.
        -11    1    3    3    0    0 -0.18584459889E+02 -0.69906508108E+01 -0.94033231765E+01  0.21969839209E+02  0.00000000000E+00 0.  1.
         12    1    3    3    0    0  0.57433071523E+00  0.51722088888E+02 -0.21702080669E+03  0.22309983162E+03  0.00000000000E+00 0. -1.
         11    1    5    5    0    0 -0.30987368546E+02  0.65982935649E+01  0.18000079847E+03  0.18276772674E+03  0.00000000000E+00 0. -1.
        -12    1    5    5    0    0  0.59894404025E+02 -0.13626997430E+02  0.33646379193E+03  0.34202473298E+03  0.00000000000E+00 0.  1.
          5    1    4    4  501    0  0.88643056453E+01 -0.56311500576E+01 -0.12623186405E+03  0.12673689939E+03  0.41800000000E+01 0. -1.
         -5    1    4    4    0  501 -0.19761211951E+02 -0.32071584155E+02  0.19216414077E+02  0.42495117107E+02  0.41800000000E+01 0. -1.
</event>
<event>
11    1  0.8453735E-009  0.2804523E+03  0.7561462E-02  0.1008821E+00
         22   -1    0    0    0    0  0.00000000000E+00  0.00000000000E+00  0.10063152459E+04  0.10063152459E+04  0.00000000000E+00 0.  1.
         22   -1    0    0    0    0 -0.00000000000E+00 -0.00000000000E+00 -0.39319801169E+03  0.39319801169E+03  0.00000000000E+00 0.  1.
        -24    2    1    2    0    0  0.24325009118E+03  0.97535982518E+02 -0.27531853340E+03  0.38809107638E+03  0.78297598832E+02 0.  0.
         25    2    1    2    0    0 -0.17353809581E+03 -0.10826159624E+03  0.19322299056E+03  0.30792614381E+03  0.12508933623E+03 0.  0.
         24    2    1    2    0    0 -0.69711995375E+02  0.10725613726E+02  0.69521277710E+03  0.70349603746E+03  0.81308475528E+02 0.  0.
        -13    1    5    5    0    0 -0.29725795542E+02  0.20375198615E+02  0.58073975110E+03  0.58185688115E+03  0.00000000000E+00 0.  1.
         14    1    5    5    0    0 -0.39986199832E+02 -0.96495848885E+01  0.11447302600E+03  0.12163915630E+03  0.00000000000E+00 0. -1.
         11    1    3    3    0    0  0.25522637561E+01 -0.45425631005E+01 -0.27045776545E+02  0.27543110913E+02  0.00000000000E+00 0. -1.
        -12    1    3    3    0    0  0.24069782743E+03  0.10207854562E+03 -0.24827275686E+03  0.36054796547E+03  0.00000000000E+00 0.  1.
          5    1    4    4  501    0 -0.90456204834E+02 -0.54968474272E+02  0.18970570493E+02  0.10761604481E+03  0.41800000000E+01 0. -1.
         -5    1    4    4    0  501 -0.83081890976E+02 -0.53293121972E+02  0.17425242007E+03  0.20031009899E+03  0.41800000000E+01 0. -1.
</event>
<event>
11    1  0.8453735E-009  0.2161899E+03  0.7561462E-02  0.1043631E+00
         22   -1    0    0    0    0  0.00000000000E+00  0.00000000000E+00  0.11493296899E+04  0.11493296899E+04  0.00000000000E+00 0. -1.
         22   -1    0    0    0    0 -0.00000000000E+00 -0.00000000000E+00 -0.75068703608E+02  0.75068703608E+02  0.00000000000E+00 0. -1.
         24    2    1    2    0    0 -0.95502926880E+02  0.15794950578E+03  0.14796833191E+03  0.24643428462E+03  0.69038930806E+02 0.  0.
         25    2    1    2    0    0  0.13056493859E+03 -0.95717213718E+02  0.55630501347E+03  0.59273314517E+03  0.12509326590E+03 0.  0.
        -24    2    1    2    0    0 -0.35062011706E+02 -0.62232292066E+02  0.36998764091E+03  0.38523096372E+03  0.80061464796E+02 0.  0.
        -11    1    3    3    0    0 -0.50642412441E+02  0.10095568777E+03  0.47516422219E+02  0.12253373092E+03  0.00000000000E+00 0.  1.
         12    1    3    3    0    0 -0.44860514439E+02  0.56993818011E+02  0.10045190969E+03  0.12390055370E+03  0.00000000000E+00 0. -1.
         13    1    5    5    0    0 -0.29590089965E+02 -0.69456438692E+02  0.36836782819E+03  0.37602476933E+03  0.00000000000E+00 0. -1.
        -14    1    5    5    0    0 -0.54719217412E+01  0.72241466260E+01  0.16198127152E+01  0.92061943956E+01  0.00000000000E+00 0.  1.
          5    1    4    4  501    0  0.83037970990E+02 -0.12358183958E+03  0.38899126054E+03  0.41653265044E+03  0.41800000000E+01 0. -1.
         -5    1    4    4    0  501  0.47526967596E+02  0.27864625864E+02  0.16731375293E+03  0.17620049473E+03  0.41800000000E+01 0. -1.
</event>
<event>
11    1  0.8453735E-009  0.2122365E+03  0.7561462E-02  0.1046193E+00
         22   -1    0    0    0    0  0.00000000000E+00  0.00000000000E+00  0.71359548595E+03  0.71359548595E+03  0.00000000000E+00 0. -1.
         22   -1    0    0    0    0 -0.00000000000E+00 -0.00000000000E+00 -0.10223320871E+04  0.10223320871E+04  0.00000000000E+00 0.  1.
         24    2    1    2    0    0  0.36321987390E+02 -0.16521379885E+03 -0.75149200545E+03  0.77432811007E+03  0.78923391312E+02 0.  0.
         25    2    1    2    0    0 -0.11163150987E+03  0.15874529517E+03 -0.20238474965E+03  0.30703466516E+03  0.12509610700E+03 0.  0.
        -24    2    1    2    0    0  0.75309522484E+02  0.64685036779E+01  0.64514015391E+03  0.65456479784E+03  0.80844855517E+02 0.  0.
        -13    1    3    3    0    0  0.10904656996E+02 -0.15971569882E+03 -0.66589338351E+03  0.68486642069E+03  0.00000000000E+00 0.  1.
         14    1    3    3    0    0  0.25417330394E+02 -0.54981000286E+01 -0.85598621942E+02  0.89461689380E+02  0.00000000000E+00 0. -1.
         11    1    5    5    0    0  0.19860373362E+02 -0.29549921743E+02  0.36476816869E+03  0.36650163601E+03  0.00000000000E+00 0. -1.
        -12    1    5    5    0    0  0.55449149123E+02  0.36018425421E+02  0.28037198522E+03  0.28806316183E+03  0.00000000000E+00 0.  1.
          5    1    4    4  501    0 -0.12255671513E+03  0.72375483303E+02 -0.10922659274E+03  0.17946108204E+03  0.41800000000E+01 0.  1.
         -5    1    4    4    0  501  0.10925205252E+02  0.86369811870E+02 -0.93158156909E+02  0.12757358312E+03  0.41800000000E+01 0.  1.
</event>
<event>
11    1  0.8453735E-009  0.3020913E+03  0.7561462E-02  0.9993100E-01
         22   -1    0    0    0    0  0.00000000000E+00  0.00000000000E+00  0.37925333684E+03  0.37925333684E+03  0.00000000000E+00 0. -1.
         22   -1    0    0    0    0 -0.00000000000E+00 -0.00000000000E+00 -0.59256469383E+03  0.59256469383E+03  0.00000000000E+00 0. -1.
        -24    2    1    2    0    0 -0.18210852354E+03 -0.21188541813E+03 -0.40551112266E+03  0.49887853918E+03  0.79884801371E+02 0.  0.
         25    2    1    2    0    0  0.23866379306E+03  0.12299802485E+03  0.15563099959E+03  0.33459965937E+03  0.12508798417E+03 0.  0.
         24    2    1    2    0    0 -0.56555269521E+02  0.88887393272E+02  0.36568766085E+02  0.13833983212E+03  0.81860657851E+02 0.  0.
        -11    1    5    5    0    0  0.90761633912E+01  0.60782272996E+02  0.10576117811E+02  0.62359567994E+02  0.00000000000E+00 0.  1.
         12    1    5    5    0    0 -0.65631432912E+02  0.28105120276E+02  0.25992648274E+02  0.75980264122E+02  0.00000000000E+00 0. -1.
         11    1    3    3    0    0 -0.13840192697E+03 -0.15318451902E+03 -0.23194712644E+03  0.31051579625E+03  0.00000000000E+00 0. -1.
        -12    1    3    3    0    0 -0.43706596574E+02 -0.58700899103E+02 -0.17356399622E+03  0.18836274293E+03  0.00000000000E+00 0.  1.
          5    1    4    4  501    0  0.15111529394E+03  0.85328815060E+02  0.16402965854E+03  0.23883056760E+03  0.41800000000E+01 0.  1.
         -5    1    4    4    0  501  0.87548499128E+02  0.37669209793E+02 -0.83986589550E+01  0.95769091769E+02  0.41800000000E+01 0.  1.
</event>
<event>
11    1  0.8453735E-009  0.1936945E+03  0.7561462E-02  0.1059074E+00
         22   -1    0    0    0    0  0.00000000000E+00  0.00000000000E+00  0.37913949778E+03  0.37913949778E+03  0.00000000000E+00 0.  1.
         22   -1    0    0    0    0 -0.00000000000E+00 -0.00000000000E+00 -0.16476926514E+04  0.16476926514E+04  0.00000000000E+00 0. -1.
        -24    2    1    2    0    0  0.56779094149E+02  0.13356395778E+03 -0.14419043610E+04  0.14514031978E+04  0.80124028763E+02 0.  0.
         25    2    1    2    0    0 -0.14504788798E+03 -0.14615847003E+03 -0.11222225773E+03  0.26578661322E+03  0.12508996949E+03 0.  0.
         24    2    1    2    0    0  0.88268793832E+02  0.12594512255E+02  0.28557346509E+03  0.30964233816E+03  0.79850935563E+02 0.  0.
        -13    1    5    5    0    0  0.69322169489E+02 -0.27969562160E+02  0.18647092299E+03  0.20089615405E+03  0.00000000000E+00 0.  1.
         14    1    5    5    0    0  0.18946624343E+02  0.40564074415E+02  0.99102542102E+02  0.10874618411E+03  0.00000000000E+00 0. -1.
         13    1    3    3    0    0  0.38780721164E+02  0.12401950314E+03 -0.13826887069E+04  0.13887810633E+04  0.00000000000E+00 0. -1.
        -14    1    3    3    0    0  0.17998372986E+02  0.95444546359E+01 -0.59215654135E+02  0.62622134578E+02  0.00000000000E+00 0.  1.
          5    1    4    4  501    0 -0.17392871777E+02  0.42818705383E+01 -0.58406309880E+02  0.61234106818E+02  0.41800000000E+01 0.  1.
         -5    1    4    4    0  501 -0.12765501620E+03 -0.15044034057E+03 -0.53815947847E+02  0.20455250640E+03  0.41800000000E+01 0.  1.
</event>
<event>
11    1  0.8453735E-009  0.1546254E+03  0.7561462E-02  0.1092244E+00
         22   -1    0    0    0    0  0.00000000000E+00  0.00000000000E+00  0.23676331441E+04  0.23676331441E+04  0.00000000000E+00 0.  1.
         22   -1    0    0    0    0 -0.00000000000E+00 -0.00000000000E+00 -0.72016536409E+03  0.72016536409E+03  0.00000000000E+00 0.  1.
        -24    2    1    2    0    0  0.38954914337E+02 -0.21394047336E+02 -0.70196727919E+03  0.70813711587E+03  0.82005629154E+02 0.  0.
         25    2    1    2    0    0  0.19569023391E+02  0.92139055418E+02  0.45417002912E+03  0.48040606051E+03  0.12508803064E+03 0.  0.
         24    2    1    2    0    0 -0.58523937728E+02 -0.70745008082E+02  0.18952650301E+04  0.18992553318E+04  0.81922974459E+02 0.  0.
        -13    1    5    5    0    0 -0.44317624743E+02 -0.81482755648E+02  0.11356581167E+04  0.11394397085E+04  0.00000000000E+00 0.  1.
         14    1    5    5    0    0 -0.14206312985E+02  0.10737747566E+02  0.75960691341E+03  0.75981562333E+03  0.00000000000E+00 0. -1.
         11    1    3    3    0    0  0.15396072961E+02  0.49906142378E+01 -0.22322164040E+02  0.27572165322E+02  0.00000000000E+00 0. -1.
        -12    1    3    3    0    0  0.23558841375E+02 -0.26384661573E+02 -0.67964511515E+03  0.68056495055E+03  0.00000000000E+00 0.  1.
          5    1    4    4  501    0  0.32383115020E+02  0.73587124801E+02  0.11453684027E+03  0.13999961162E+03  0.41800000000E+01 0.  1.
         -5    1    4    4    0  501 -0.12814091629E+02  0.18551930617E+02  0.33963318885E+03  0.34040644889E+03  0.41800000000E+01 0.  1.
</event>
<event>
11    1  0.8453735E-009  0.2215318E+03  0.7561462E-02  0.1040262E+00
         22   -1    0    0    0    0  0.00000000000E+00  0.00000000000E+00  0.16655917593E+03  0.16655917593E+03  0.00000000000E+00 0. -1.
         22   -1    0    0    0    0 -0.00000000000E+00 -0.00000000000E+00 -0.26790660307E+04  0.26790660307E+04  0.00000000000E+00 0. -1.
         24    2    1    2    0    0 -0.13488407266E+03  0.83362704744E+02 -0.21705555599E+04  0.21778167690E+04  0.80195928789E+02 0.  0.
         25    2    1    2    0    0  0.44095543097E+02 -0.23922025124E+03 -0.37929996131E+03  0.46763966285E+03  0.12509055960E+03 0.  0.
        -24    2    1    2    0    0  0.90788529566E+02  0.15585754649E+03  0.37348666481E+02  0.20016877476E+03  0.78348475427E+02 0.  0.
        -11    1    3    3    0    0 -0.91967622065E+01 -0.14713056195E+02 -0.28836289317E+03  0.28888442778E+03  0.00000000000E+00 0.  1.
         12    1    3    3    0    0 -0.12568731046E+03  0.98075760939E+02 -0.18821926667E+04  0.18889323412E+04  0.00000000000E+00 0. -1.
         11    1    5    5    0    0  0.67044575606E+02  0.13539958252E+03 -0.41930032060E+00  0.15109003236E+03  0.00000000000E+00 0. -1.
        -12    1    5    5    0    0  0.23743953960E+02  0.20457963972E+02  0.37767966802E+02  0.49078742404E+02  0.00000000000E+00 0.  1.
          5    1    4    4  501    0  0.23352836616E+02  0.10396138723E+01 -0.78899465654E+02  0.82395593665E+02  0.41800000000E+01 0. -1.
         -5    1    4    4    0  501  0.20742706481E+02 -0.24025986511E+03 -0.30040049565E+03  0.38524406919E+03  0.41800000000E+01 0. -1.
</event>
<event>
11    1  0.8453735E-009  0.1334485E+03  0.7561462E-02  0.1115103E+00
         22   -1    0    0    0    0  0.00000000000E+00  0.00000000000E+00  0.95426268701E+03  0.95426268701E+03  0.00000000000E+00 0.  1.
         22   -1    0    0    0    0 -0.00000000000E+00 -0.00000000000E+00 -0.17868795216E+04  0.17868795216E+04  0.00000000000E+00 0. -1.
        -24    2    1    2    0    0  0.14412307137E+02 -0.44411890973E+02 -0.17614354820E+04  0.17638008515E+04  0.78475192462E+02 0.  0.
         25    2    1    2    0    0 -0.37468671780E+01  0.13321214758E+02  0.15984727695E+03  0.20344737816E+03  0.12509272544E+03 0.  0.
         24    2    1    2    0    0 -0.10665439959E+02  0.31090676215E+02  0.76897137043E+03  0.77389397898E+03  0.80712702913E+02 0.  0.
        -11    1    5    5    0    0 -0.37131698292E+02 -0.11613467126E+01  0.53060621148E+03  0.53190512632E+03  0.00000000000E+00 0.  1.
         12    1    5    5    0    0  0.26466258332E+02  0.32252022928E+02  0.23836515895E+03  0.24198885266E+03  0.00000000000E+00 0. -1.
         13    1    3    3    0    0 -0.12736550369E+02 -0.57619870936E+02 -0.13312353350E+04  0.13325426021E+04  0.00000000000E+00 0. -1.
        -14    1    3    3    0    0  0.27148857506E+02  0.13207979963E+02 -0.43020014700E+03  0.43125824940E+03  0.00000000000E+00 0.  1.
          5    1    4    4  501    0 -0.12807202008E+02 -0.42140518573E+02  0.13462497496E+03  0.14170816495E+03  0.41800000000E+01 0.  1.
         -5    1    4    4    0  501  0.90603348296E+01  0.55461733331E+02  0.25222301988E+02  0.61739213219E+02  0.41800000000E+01 0.  1.
</event>
<event>
11    1  0.8453735E-009  0.1270495E+03  0.7561462E-02  0.1122948E+00
         22   -1    0    0    0    0  0.00000000000E+00  0.00000000000E+00  0.21772580854E+03  0.21772580854E+03  0.00000000000E+00 0.  1.
         22   -1    0    0    0    0 -0.00000000000E+00 -0.00000000000E+00 -0.78720275886E+03  0.78720275886E+03  0.00000000000E+00 0. -1.
        -24    2    1    2    0    0  0.23251492763E+02 -0.12229246643E+02 -0.29220614882E+03  0.30497495711E+03  0.83277275807E+02 0.  0.
         25    2    1    2    0    0 -0.97724056799E+01  0.15938164962E+02 -0.47248165219E+03  0.48911735185E+03  0.12508935689E+03 0.  0.
         24    2    1    2    0    0 -0.13479087083E+02 -0.37089183192E+01  0.19521085069E+03  0.21083625845E+03  0.78416897340E+02 0.  0.
        -13    1    5    5    0    0 -0.24049562816E+02  0.22730095996E+02  0.16875526541E+03  0.17196912031E+03  0.00000000000E+00 0.  1.
         14    1    5    5    0    0  0.10570475733E+02 -0.26439014316E+02  0.26455585276E+02  0.38867138144E+02  0.00000000000E+00 0. -1.
         13    1    3    3    0    0 -0.30559832244E+02  0.16697773363E+01 -0.12840232062E+03  0.13199942214E+03  0.00000000000E+00 0. -1.
        -14    1    3    3    0    0  0.53811325007E+02 -0.13899023979E+02 -0.16380382819E+03  0.17297553497E+03  0.00000000000E+00 0.  1.
          5    1    4    4  501    0 -0.81201217513E+01 -0.29794468613E+02 -0.41190984126E+03  0.41308695993E+03  0.41800000000E+01 0. -1.
         -5    1    4    4    0  501 -0.16522839286E+01  0.45732633574E+02 -0.60571810923E+02  0.76030391912E+02  0.41800000000E+01 0. -1.
</event>
<event>
11    1  0.8453735E-009  0.1522258E+03  0.7561462E-02  0.1094626E+00
         22   -1    0    0    0    0  0.00000000000E+00  0.00000000000E+00  0.88783672895E+03  0.88783672895E+03  0.00000000000E+00 0. -1.
         22   -1    0    0    0    0 -0.00000000000E+00 -0.00000000000E+00 -0.35498443455E+03  0.35498443455E+03  0.00000000000E+00 0. -1.
        -24    2    1    2    0    0 -0.14914624160E+02 -0.28955912723E+02 -0.31881588047E+03  0.32851678458E+03  0.72241409244E+02 0.  0.
         25    2    1    2    0    0  0.91384773268E+02  0.59875527026E+02  0.23921839696E+03  0.29121945633E+03  0.12508826795E+03 0.  0.
         24    2    1    2    0    0 -0.76470149108E+02 -0.30919614303E+02  0.61244977792E+03  0.62308492260E+03  0.79601407310E+02 0.  0.
        -13    1    5    5    0    0  0.10354857994E+02 -0.18831635378E+02  0.60204293972E+02  0.63925038817E+02  0.00000000000E+00 0.  1.
         14    1    5    5    0    0 -0.86825007102E+02 -0.12087978925E+02  0.55224548395E+03  0.55915988378E+03  0.00000000000E+00 0. -1.
         11    1    3    3    0    0 -0.17353818570E+02 -0.51196522698E+02 -0.26063843488E+03  0.26618533523E+03  0.00000000000E+00 0. -1.
        -12    1    3    3    0    0  0.24391944102E+01  0.22240609976E+02 -0.58177445593E+02  0.62331449343E+02  0.00000000000E+00 0.  1.
          5    1    4    4  501    0  0.46142204962E+02  0.28373741706E+02  0.22854146607E+03  0.23491029439E+03  0.41800000000E+01 0.  1.
         -5    1    4    4    0  501  0.45242568306E+02  0.31501785319E+02  0.10676930890E+02  0.56309161941E+02  0.41800000000E+01 0.  1.
</event>
<event>
11    1  0.8453735E-009  0.1474766E+03  0.7561462E-02  0.1099485E+00
         22   -1    0    0    0    0  0.00000000000E+00  0.00000000000E+00  0.20068332578E+04  0.20068332578E+04  0.00000000000E+00 0. -1.
         22   -1    0    0    0    0 -0.00000000000E+00 -0.00000000000E+00 -0.10968402313E+03  0.10968402313E+03  0.00000000000E+00 0.  1.
         24    2    1    2    0    0  0.59109077066E+02 -0.49525504253E+02 -0.73091898104E+02  0.12725338470E+03  0.70030991614E+02 0.  0.
         25    2    1    2    0    0 -0.79183514134E+02  0.91006777039E+02  0.11016488785E+04  0.11152710100E+04  0.12508761617E+03 0.  0.
        -24    2    1    2    0    0  0.20074437068E+02 -0.41481272786E+02  0.86859225418E+03  0.87399288620E+03  0.85366164817E+02 0.  0.
        -11    1    3    3    0    0  0.63055518996E+02 -0.58814043578E+02 -0.77781241971E+02  0.11612498353E+03  0.00000000000E+00 0.  1.
         12    1    3    3    0    0 -0.39464419297E+01  0.92885393250E+01  0.46893438664E+01  0.11128401170E+02  0.00000000000E+00 0. -1.
         11    1    5    5    0    0  0.24162963329E+02 -0.66969172565E+02  0.63500536955E+03  0.63898398902E+03  0.00000000000E+00 0. -1.
        -12    1    5    5    0    0 -0.40885262614E+01  0.25487899780E+02  0.23358688463E+03  0.23500889718E+03  0.00000000000E+00 0.  1.
          5    1    4    4  501    0 -0.18427508306E+02  0.14670025680E+02  0.74813942781E+03  0.74852178228E+03  0.41800000000E+01 0. -1.
         -5    1    4    4    0  501 -0.60756005829E+02  0.76336751359E+02  0.35350945074E+03  0.36674922769E+03  0.41800000000E+01 0. -1.
</event>
<event>
11    1  0.8453735E-009  0.1340138E+03  0.7561462E-02  0.1114433E+00
         22   -1    0    0    0    0  0.00000000000E+00  0.00000000000E+00  0.21098191753E+04  0.21098191753E+04  0.00000000000E+00 0. -1.
         22   -1    0    0    0    0 -0.00000000000E+00 -0.00000000000E+00 -0.19094171028E+04  0.19094171028E+04  0.00000000000E+00 0. -1.
         24    2    1    2    0    0 -0.15234274107E+02  0.39733149453E+02 -0.11344654538E+04  0.11379211465E+04  0.77729425011E+02 0.  0.
         25    2    1    2    0    0  0.22775522146E+02 -0.65391901421E+02 -0.76574220672E+03  0.77897652720E+03  0.12509387518E+03 0.  0.
        -24    2    1    2    0    0 -0.75412480395E+01  0.25658751968E+02  0.21006097330E+04  0.21023386043E+04  0.80938957014E+02 0.  0.
        -13    1    3    3    0    0 -0.79428405313E+01  0.34877162410E+02 -0.18561458218E+03  0.18902983439E+03  0.00000000000E+00 0.  1.
         14    1    3    3    0    0 -0.72914335755E+01  0.48559870430E+01 -0.94885087165E+03  0.94889131214E+03  0.00000000000E+00 0. -1.
         11    1    5    5    0    0 -0.14785157857E+02  0.44106469015E+02  0.19332298075E+04  0.19337894069E+04  0.00000000000E+00 0. -1.
        -12    1    5    5    0    0  0.72439098179E+01 -0.18447717047E+02  0.16737992552E+03  0.16854919745E+03  0.00000000000E+00 0.  1.
          5    1    4    4  501    0  0.48734814963E+02 -0.78852749874E+02 -0.70861131383E+03  0.71466097196E+03  0.41800000000E+01 0.  1.
         -5    1    4    4    0  501 -0.25959292817E+02  0.13460848453E+02 -0.57130892890E+02  0.64315555249E+02  0.41800000000E+01 0.  1.
</event>
<event>
11    1  0.1156768E-008  0.1730550E+03  0.7561462E-02  0.1075403E+00
         22   -1    0    0    0    0  0.00000000000E+00  0.00000000000E+00  0.28862615464E+03  0.28862615464E+03  0.00000000000E+00 0. -1.
         22   -1    0    0    0    0 -0.00000000000E+00 -0.00000000000E+00 -0.99036504803E+03  0.99036504803E+03  0.00000000000E+00 0. -1.
         24    2    1    2    0    0 -0.93042569969E+02 -0.48976724497E+02 -0.53704104535E+03  0.55308961721E+03  0.80245877803E+02 0.  0.
         25    2    1    2    0    0  0.18160954540E+03  0.10204356260E+02 -0.40089721763E+03  0.45765398226E+03  0.12506971060E+03 0.  0.
        -24    2    1    2    0    0 -0.88566975428E+02  0.38772368238E+02  0.23619936958E+03  0.26824760320E+03  0.82578621674E+02 0.  0.
        -13    1    3    3    0    0 -0.22108492764E+01  0.14771138451E+02 -0.24665976891E+02  0.28835478176E+02  0.00000000000E+00 0.  1.
         14    1    3    3    0    0 -0.90831720692E+02 -0.63747862948E+02 -0.51237506846E+03  0.52425413903E+03  0.00000000000E+00 0. -1.
         13    1    5    5    0    0 -0.67555903464E+02 -0.36664459458E+00  0.19949550312E+03  0.21062381225E+03  0.00000000000E+00 0. -1.
        -14    1    5    5    0    0 -0.21011071964E+02  0.39139012832E+02  0.36703866462E+02  0.57623790953E+02  0.00000000000E+00 0.  1.
          5    1    4    4  501    0  0.10826955663E+03 -0.51808341486E+02 -0.26752128914E+03  0.29324309657E+03  0.41800000000E+01 0.  1.
         -5    1    4    4    0  501  0.73339988766E+02  0.62012697745E+02 -0.13337592849E+03  0.16441088569E+03  0.41800000000E+01 0.  1.
</event>
<event>
11    1  0.8453735E-009  0.1794349E+03  0.7561462E-02  0.1070101E+00
         22   -1    0    0    0    0  0.00000000000E+00  0.00000000000E+00  0.19384190623E+04  0.19384190623E+04  0.00000000000E+00 0. -1.
         22   -1    0    0    0    0 -0.00000000000E+00 -0.00000000000E+00 -0.38561743437E+03  0.38561743437E+03  0.00000000000E+00 0. -1.
         24    2    1    2    0    0 -0.35382210560E+02  0.56716416172E+02 -0.35140309792E+03  0.36705773395E+03  0.82332193847E+02 0.  0.
         25    2    1    2    0    0  0.12091440569E+03 -0.14000836024E+03  0.52818962734E+03  0.57345980842E+03  0.12509690246E+03 0.  0.
        -24    2    1    2    0    0 -0.85532195134E+02  0.83291944069E+02  0.13760150985E+04  0.13835189543E+04  0.80335803031E+02 0.  0.
        -11    1    3    3    0    0 -0.23696182338E+02  0.59729146615E+02 -0.12700486226E+03  0.14233522070E+03  0.00000000000E+00 0.  1.
         12    1    3    3    0    0 -0.11686028222E+02 -0.30127304426E+01 -0.22439823565E+03  0.22472251326E+03  0.00000000000E+00 0. -1.
         11    1    5    5    0    0 -0.69310219934E+02  0.72662091455E+02  0.13271817459E+04  0.13309752337E+04  0.00000000000E+00 0. -1.
        -12    1    5    5    0    0 -0.16221975200E+02  0.10629852613E+02  0.48833352580E+02  0.52543720559E+02  0.00000000000E+00 0.  1.
          5    1    4    4  501    0  0.91720819476E+02 -0.86381733315E+02  0.17893126292E+03  0.21887983422E+03  0.41800000000E+01 0.  1.
         -5    1    4    4    0  501  0.29193586218E+02 -0.53626626925E+02  0.34925836442E+03  0.35457997421E+03  0.41800000000E+01 0.  1.
</event>
<event>
11    1  0.8453735E-009  0.2609661E+03  0.7561462E-02  0.1018214E+00
         22   -1    0    0    0    0  0.00000000000E+00  0.00000000000E+00  0.24276751289E+04  0.24276751289E+04  0.00000000000E+00 0.  1.
         22   -1    0    0    0    0 -0.00000000000E+00 -0.00000000000E+00 -0.48343526223E+03  0.48343526223E+03  0.00000000000E+00 0.  1.
         24    2    1    2    0    0  0.23814041121E+02  0.17851521979E+02 -0.42006434805E+03  0.42860124767E+03  0.79744514591E+02 0.  0.
         25    2    1    2    0    0 -0.11921488599E+03 -0.22254419396E+03  0.33045054885E+03  0.43426039788E+03  0.12508565317E+03 0.  0.
        -24    2    1    2    0    0  0.95400844866E+02  0.20469267198E+03  0.20338536658E+04  0.20482487455E+04  0.88100955780E+02 0.  0.
        -13    1    3    3    0    0 -0.31733384332E+01  0.35984280087E+02 -0.34383847359E+03  0.34573086991E+03  0.00000000000E+00 0.  1.
         14    1    3    3    0    0  0.26987379555E+02 -0.18132758109E+02 -0.76225874462E+02  0.82870377755E+02  0.00000000000E+00 0. -1.
         13    1    5    5    0    0  0.26326244800E+02  0.56489472429E+01  0.12908571130E+03  0.13186395502E+03  0.00000000000E+00 0. -1.
        -14    1    5    5    0    0  0.69074600066E+02  0.19904372474E+03  0.19047679545E+04  0.19163847905E+04  0.00000000000E+00 0.  1.
          5    1    4    4  501    0 -0.86005203397E+02 -0.11500781806E+03  0.27142853427E+03  0.30710684597E+03  0.41800000000E+01 0. -1.
         -5    1    4    4    0  501 -0.33209682590E+02 -0.10753637590E+03  0.59022014583E+02  0.12715355192E+03  0.41800000000E+01 0. -1.
</event>
<event>
11    1  0.8453735E-009  0.2435343E+03  0.7561462E-02  0.1027401E+00
         22   -1    0    0    0    0  0.00000000000E+00  0.00000000000E+00  0.31059145492E+04  0.31059145492E+04  0.00000000000E+00 0.  1.
         22   -1    0    0    0    0 -0.00000000000E+00 -0.00000000000E+00 -0.13688528615E+04  0.13688528615E+04  0.00000000000E+00 0.  1.
        -24    2    1    2    0    0  0.16873544494E+03 -0.12203289902E+03 -0.13354724028E+04  0.13539714412E+04  0.79927755517E+02 0.  0.
         25    2    1    2    0    0 -0.28362879273E+03  0.20438163888E+03  0.18013337355E+04  0.18392029540E+04  0.12508850179E+03 0.  0.
         24    2    1    2    0    0  0.11489334780E+03 -0.82348739855E+02  0.12712003550E+04  0.12815930155E+04  0.80922916727E+02 0.  0.
        -13    1    5    5    0    0  0.73295741860E+02 -0.55187361793E+02  0.10852224395E+04  0.10890939601E+04  0.00000000000E+00 0.  1.
         14    1    5    5    0    0  0.41597605937E+02 -0.27161378062E+02  0.18597791546E+03  0.19249905537E+03  0.00000000000E+00 0. -1.
         13    1    3    3    0    0 -0.26675148883E+01 -0.10024897193E+02 -0.18788948704E+02  0.21462497358E+02  0.00000000000E+00 0. -1.
        -14    1    3    3    0    0  0.17140295982E+03 -0.11200800183E+03 -0.13166834541E+04  0.13325089438E+04  0.00000000000E+00 0.  1.
          5    1    4    4  501    0 -0.96322975374E+02  0.12171311394E+03  0.56159098759E+03  0.58266122870E+03  0.41800000000E+01 0. -1.
         -5    1    4    4    0  501 -0.18730581736E+03  0.82668524943E+02  0.12397427479E+04  0.12565417253E+04  0.41800000000E+01 0. -1.
</event>
<event>
11    1  0.8453735E-009  0.1555879E+03  0.7561462E-02  0.1091302E+00
         22   -1    0    0    0    0  0.00000000000E+00  0.00000000000E+00  0.58030510128E+03  0.58030510128E+03  0.00000000000E+00 0.  1.
         22   -1    0    0    0    0 -0.00000000000E+00 -0.00000000000E+00 -0.67473233269E+03  0.67473233269E+03  0.00000000000E+00 0. -1.
        -24    2    1    2    0    0  0.71592441459E+02 -0.60136475068E+02 -0.61641416544E+03  0.62866410750E+03  0.80686203244E+02 0.  0.
         25    2    1    2    0    0 -0.52333635484E+02  0.54144918778E+02  0.61149318135E+02  0.15829778395E+03  0.12509383543E+03 0.  0.
         24    2    1    2    0    0 -0.19258805975E+02  0.59915562893E+01  0.46083761589E+03  0.46807554252E+03  0.79477071742E+02 0.  0.
        -11    1    5    5    0    0 -0.16780611250E+02  0.25603243820E+02  0.43217235905E+03  0.43325519378E+03  0.00000000000E+00 0.  1.
         12    1    5    5    0    0 -0.24781947250E+01 -0.19611687531E+02  0.28665256839E+02  0.34820348742E+02  0.00000000000E+00 0. -1.
         13    1    3    3    0    0  0.73335139097E+02 -0.74921588684E+02 -0.47300547555E+03  0.48448474380E+03  0.00000000000E+00 0. -1.
        -14    1    3    3    0    0 -0.17426976381E+01  0.14785113616E+02 -0.14340868989E+03  0.14417936369E+03  0.00000000000E+00 0.  1.
          5    1    4    4  501    0 -0.37215321617E+02  0.17973557718E+02  0.96678667341E+02  0.10522483575E+03  0.41800000000E+01 0.  1.
         -5    1    4    4    0  501 -0.15118313868E+02  0.36171361060E+02 -0.35529349206E+02  0.53072948196E+02  0.41800000000E+01 0.  1.
</event>
<event>
11    1  0.8453735E-009  0.1403646E+03  0.7561462E-02  0.1107152E+00
         22   -1    0    0    0    0  0.00000000000E+00  0.00000000000E+00  0.58320700910E+02  0.58320700910E+02  0.00000000000E+00 0. -1.
         22   -1    0    0    0    0 -0.00000000000E+00 -0.00000000000E+00 -0.97017974455E+03  0.97017974455E+03  0.00000000000E+00 0. -1.
        -24    2    1    2    0    0  0.59763400007E+02  0.17902384127E+02 -0.70338941990E+03  0.71061254622E+03  0.79506952481E+02 0.  0.
         25    2    1    2    0    0 -0.70456334378E+02 -0.18291471685E+02 -0.18056957032E+03  0.23141217994E+03  0.12509018469E+03 0.  0.
         24    2    1    2    0    0  0.10692934371E+02  0.38908755788E+00 -0.27900053422E+02  0.86475719298E+02  0.81148917507E+02 0.  0.
        -11    1    5    5    0    0 -0.18382751784E+02 -0.24389685823E+02 -0.36220398185E+02  0.47378260652E+02  0.00000000000E+00 0.  1.
         12    1    5    5    0    0  0.29075686154E+02  0.24778773381E+02  0.83203447632E+01  0.39097458646E+02  0.00000000000E+00 0. -1.
         13    1    3    3    0    0 -0.32070129294E+01  0.98881570046E+01 -0.42298590548E+03  0.42311362164E+03  0.00000000000E+00 0. -1.
        -14    1    3    3    0    0  0.62970412937E+02  0.80142271223E+01 -0.28040351441E+03  0.28749892458E+03  0.00000000000E+00 0.  1.
          5    1    4    4  501    0 -0.43830424643E+02 -0.45395635116E+02 -0.18249322919E+03  0.19314015872E+03  0.41800000000E+01 0. -1.
         -5    1    4    4    0  501 -0.26625909735E+02  0.27104163431E+02  0.19236588644E+01  0.38272021216E+02  0.41800000000E+01 0. -1.
</event>
<event>
11    1  0.8453735E-009  0.1411921E+03  0.7561462E-02  0.1106234E+00
         22   -1    0    0    0    0  0.00000000000E+00  0.00000000000E+00  0.24372621416E+03  0.24372621416E+03  0.00000000000E+00 0. -1.
         22   -1    0    0    0    0 -0.00000000000E+00 -0.00000000000E+00 -0.76322541880E+03  0.76322541880E+03  0.00000000000E+00 0. -1.
         24    2    1    2    0    0  0.47037658304E+02 -0.29338245890E+02 -0.57674258403E+03  0.58504499163E+03  0.81070093237E+02 0.  0.
         25    2    1    2    0    0 -0.11904970852E+02 -0.30164670616E+02 -0.14409907356E+03  0.19355374186E+03  0.12508745861E+03 0.  0.
        -24    2    1    2    0    0 -0.35132687452E+02  0.59502916506E+02  0.20134245295E+03  0.22835289947E+03  0.82652044961E+02 0.  0.
        -13    1    3    3    0    0  0.11815951540E+02  0.48239262529E+01 -0.10083362518E+02  0.16265336608E+02  0.00000000000E+00 0.  1.
         14    1    3    3    0    0  0.35221706764E+02 -0.34162172143E+02 -0.56665922152E+03  0.56877965502E+03  0.00000000000E+00 0. -1.
         13    1    5    5    0    0 -0.56379114498E+02  0.34702322416E+02  0.17255491063E+03  0.18481897337E+03  0.00000000000E+00 0. -1.
        -14    1    5    5    0    0  0.21246427046E+02  0.24800594090E+02  0.28787542319E+02  0.43533926106E+02  0.00000000000E+00 0.  1.
          5    1    4    4  501    0  0.20763250362E+02  0.27763785107E+02 -0.14020810704E+00  0.34920372096E+02  0.41800000000E+01 0.  1.
         -5    1    4    4    0  501 -0.32668221214E+02 -0.57928455722E+02 -0.14395886545E+03  0.15863336976E+03  0.41800000000E+01 0.  1.
</event>
<event>
11    1  0.8453735E-009  0.1691128E+03  0.7561462E-02  0.1078806E+00
         22   -1    0    0    0    0  0.00000000000E+00  0.00000000000E+00  0.67707470555E+03  0.67707470555E+03  0.00000000000E+00 0. -1.
         22   -1    0    0    0    0 -0.00000000000E+00 -0.00000000000E+00 -0.20415064631E+03  0.20415064631E+03  0.00000000000E+00 0.  1.
        -24    2    1    2    0    0 -0.89830717504E+02  0.55223703392E+02 -0.11774909440E+03  0.17773734591E+03  0.81280376936E+02 0.  0.
         25    2    1    2    0    0  0.16333382237E+03 -0.99027391559E+02  0.23005641281E+03  0.32412652061E+03  0.12509071300E+03 0.  0.
         24    2    1    2    0    0 -0.73503104868E+02  0.43803688167E+02  0.36061674083E+03  0.37936148534E+03  0.80927333247E+02 0.  0.
        -11    1    5    5    0    0 -0.20861422775E+02  0.85309512841E+01  0.13004772323E+02  0.26021148959E+02  0.00000000000E+00 0.  1.
         12    1    5    5    0    0 -0.52641682093E+02  0.35272736883E+02  0.34761196851E+03  0.35334033638E+03  0.00000000000E+00 0. -1.
         11    1    3    3    0    0 -0.88664241491E+01  0.41015278885E+02 -0.72854096377E+02  0.84074882920E+02  0.00000000000E+00 0. -1.
        -12    1    3    3    0    0 -0.80964293355E+02  0.14208424507E+02 -0.44894998023E+02  0.93662462988E+02  0.00000000000E+00 0.  1.
          5    1    4    4  501    0  0.11050073880E+03 -0.59469845212E+02  0.55150582692E+02  0.13713546200E+03  0.41800000000E+01 0.  1.
         -5    1    4    4    0  501  0.52833083569E+02 -0.39557546347E+02  0.17490583012E+03  0.18699105862E+03  0.41800000000E+01 0.  1.
</event>
<event>
11    1  0.8453735E-009  0.1328179E+03  0.7561462E-02  0.1115854E+00
         22   -1    0    0    0    0  0.00000000000E+00  0.00000000000E+00  0.30019575773E+03  0.30019575773E+03  0.00000000000E+00 0. -1.
         22   -1    0    0    0    0 -0.00000000000E+00 -0.00000000000E+00 -0.97438086478E+03  0.97438086478E+03  0.00000000000E+00 0.  1.
         24    2    1    2    0    0  0.24299843688E+02  0.18224098324E+02 -0.91948560136E+03  0.92420176427E+03  0.88161952087E+02 0.  0.
         25    2    1    2    0    0  0.14737189138E+02  0.14887457220E+02  0.56477269962E+02  0.13884040712E+03  0.12509258771E+03 0.  0.
        -24    2    1    2    0    0 -0.39037032826E+02 -0.33111555544E+02  0.18882322435E+03  0.21153445112E+03  0.80450909968E+02 0.  0.
        -11    1    3    3    0    0 -0.21021546277E+02 -0.21588654666E+02 -0.42149190033E+03  0.42256762472E+03  0.00000000000E+00 0.  1.
         12    1    3    3    0    0  0.45321389965E+02  0.39812752991E+02 -0.49799370103E+03  0.50163413955E+03  0.00000000000E+00 0. -1.
         11    1    5    5    0    0  0.13080478540E+01 -0.50185454938E+02  0.83000086062E+02  0.97001572991E+02  0.00000000000E+00 0. -1.
        -12    1    5    5    0    0 -0.40345080680E+02  0.17073899393E+02  0.10582313829E+03  0.11453287813E+03  0.00000000000E+00 0.  1.
          5    1    4    4  501    0  0.53601674514E+02 -0.23591260452E+02 -0.18927534676E+01  0.58743016573E+02  0.41800000000E+01 0.  1.
         -5    1    4    4    0  501 -0.38864485376E+02  0.38478717672E+02  0.58370023430E+02  0.80097390547E+02  0.41800000000E+01 0.  1.
</event>
<event>
11    1  0.8453735E-009  0.1762787E+03  0.7561462E-02  0.1072693E+00
         22   -1    0    0    0    0  0.00000000000E+00  0.00000000000E+00  0.89447642135E+02  0.89447642135E+02  0.00000000000E+00 0. -1.
         22   -1    0    0    0    0 -0.00000000000E+00 -0.00000000000E+00 -0.14604120744E+04  0.14604120744E+04  0.00000000000E+00 0.  1.
        -24    2    1    2    0    0 -0.78568842874E+02  0.94472862726E+02 -0.10837894976E+04  0.10936672278E+04  0.80063382428E+02 0.  0.
         25    2    1    2    0    0  0.12013863958E+03 -0.68803519191E+02 -0.30676798803E+03  0.35905748617E+03  0.12509381648E+03 0.  0.
         24    2    1    2    0    0 -0.41569796708E+02 -0.25669343535E+02  0.19593053369E+02  0.97135002554E+02  0.81635517913E+02 0.  0.
        -11    1    5    5    0    0  0.21260597154E+02 -0.19528818870E+02  0.17929881945E+02  0.33983355108E+02  0.00000000000E+00 0.  1.
         12    1    5    5    0    0 -0.62830393862E+02 -0.61405246647E+01  0.16631714233E+01  0.63151647446E+02  0.00000000000E+00 0. -1.
         11    1    3    3    0    0 -0.20613890172E+01  0.92296466337E+01 -0.99170382094E+01  0.13703406456E+02  0.00000000000E+00 0. -1.
        -12    1    3    3    0    0 -0.76507453857E+02  0.85243216092E+02 -0.10738724594E+04  0.10799638214E+04  0.00000000000E+00 0.  1.
          5    1    4    4  501    0 -0.25377866789E+02 -0.17790845420E+02 -0.67237053460E+02  0.74154191126E+02  0.41800000000E+01 0. -1.
         -5    1    4    4    0  501  0.14551650637E+03 -0.51012673772E+02 -0.23953093457E+03  0.28490329505E+03  0.41800000000E+01 0. -1.
</event>
<event>
11    1  0.8453735E-009  0.1459841E+03  0.7561462E-02  0.1101054E+00
         22   -1    0    0    0    0  0.00000000000E+00  0.00000000000E+00  0.28184067371E+04  0.28184067371E+04  0.00000000000E+00 0.  1.
         22   -1    0    0    0    0 -0.00000000000E+00 -0.00000000000E+00 -0.64112384277E+02  0.64112384277E+02  0.00000000000E+00 0. -1.
         24    2    1    2    0    0 -0.15854407832E+02  0.75578193402E+02  0.78884893373E+01  0.11139916936E+03  0.79900695266E+02 0.  0.
         25    2    1    2    0    0  0.72831540098E+02 -0.41658785278E+02  0.49908216776E+03  0.52131583830E+03  0.12508919004E+03 0.  0.
        -24    2    1    2    0    0 -0.56977132266E+02 -0.33919408124E+02  0.22473236957E+04  0.22498041137E+04  0.82206063486E+02 0.  0.
        -11    1    3    3    0    0 -0.30989711486E+01  0.52767513030E+02  0.42642787406E+02  0.67914809661E+02  0.00000000000E+00 0.  1.
         12    1    3    3    0    0 -0.12755436683E+02  0.22810680371E+02 -0.34754298068E+02  0.43484359696E+02  0.00000000000E+00 0. -1.
         11    1    5    5    0    0 -0.34210742481E+02  0.55964654309E+01  0.30806570338E+03  0.31000995617E+03  0.00000000000E+00 0. -1.
        -12    1    5    5    0    0 -0.22766389785E+02 -0.39515873555E+02  0.19392579924E+04  0.19397941576E+04  0.00000000000E+00 0.  1.
          5    1    4    4  501    0  0.62756129106E+02  0.19935611031E+02  0.11852335241E+03  0.13565035125E+03  0.41800000000E+01 0.  1.
         -5    1    4    4    0  501  0.10075410992E+02 -0.61594396309E+02  0.38055881535E+03  0.38566548706E+03  0.41800000000E+01 0.  1.
</event>
<event>
11    1  0.8453735E-009  0.1354090E+03  0.7561462E-02  0.1112796E+00
         22   -1    0    0    0    0  0.00000000000E+00  0.00000000000E+00  0.32419156709E+02  0.32419156709E+02  0.00000000000E+00 0. -1.
         22   -1    0    0    0    0 -0.00000000000E+00 -0.00000000000E+00 -0.17956516940E+04  0.17956516940E+04  0.00000000000E+00 0. -1.
         24    2    1    2    0    0 -0.34663363113E+02  0.45704662223E+02 -0.12150247574E+04  0.12190980759E+04  0.81390986544E+02 0.  0.
         25    2    1    2    0    0  0.23470707274E+02 -0.18786780301E+02 -0.48798237198E+03  0.50465670249E+03  0.12509106599E+03 0.  0.
        -24    2    1    2    0    0  0.11192655839E+02 -0.26917881921E+02 -0.60225407977E+02  0.10431607238E+03  0.80030589643E+02 0.  0.
        -13    1    3    3    0    0  0.20111919641E+02 -0.55171477414E+01 -0.15093688472E+03  0.15237083513E+03  0.00000000000E+00 0.  1.
         14    1    3    3    0    0 -0.54775282754E+02  0.51221809964E+02 -0.10640878726E+04  0.10667272407E+04  0.00000000000E+00 0. -1.
         11    1    5    5    0    0 -0.92779649386E+01  0.38025554044E+01  0.16422416708E+02  0.19241513234E+02  0.00000000000E+00 0. -1.
        -12    1    5    5    0    0  0.20470620778E+02 -0.30720437326E+02 -0.76647824685E+02  0.85074559143E+02  0.00000000000E+00 0.  1.
          5    1    4    4  501    0  0.24133234658E+02  0.94719109447E+01 -0.13896512560E+02  0.29710529671E+02  0.41800000000E+01 0.  1.
         -5    1    4    4    0  501 -0.66252738423E+00 -0.28258691246E+02 -0.47408585942E+03  0.47494617282E+03  0.41800000000E+01 0.  1.
</event>
<event>
11    1  0.8453735E-009  0.1638348E+03  0.7561462E-02  0.1083525E+00
         22   -1    0    0    0    0  0.00000000000E+00  0.00000000000E+00  0.31093897381E+03  0.31093897381E+03  0.00000000000E+00 0. -1.
         22   -1    0    0    0    0 -0.00000000000E+00 -0.00000000000E+00 -0.14585944259E+04  0.14585944259E+04  0.00000000000E+00 0. -1.
         24    2    1    2    0    0 -0.10636677292E+03  0.74402667655E+01 -0.13960474392E+04  0.14023666866E+04  0.79464603878E+02 0.  0.
         25    2    1    2    0    0  0.64509729343E+02  0.66448450671E+02  0.14133032714E+03  0.21023356184E+03  0.12508791860E+03 0.  0.
        -24    2    1    2    0    0  0.41857043577E+02 -0.73888717437E+02  0.10706165997E+03  0.15693315126E+03  0.77163853381E+02 0.  0.
        -11    1    3    3    0    0 -0.29184849662E+02  0.37401933809E+02 -0.37962790729E+03  0.38258072102E+03  0.00000000000E+00 0.  1.
         12    1    3    3    0    0 -0.77181923258E+02 -0.29961667044E+02 -0.10164195319E+04  0.10197859656E+04  0.00000000000E+00 0. -1.
         11    1    5    5    0    0  0.46629297020E+01 -0.57621073990E+02  0.20520725513E+02  0.61343551061E+02  0.00000000000E+00 0. -1.
        -12    1    5    5    0    0  0.37194113875E+02 -0.16267643446E+02  0.86540934457E+02  0.95589600202E+02  0.00000000000E+00 0.  1.
          5    1    4    4  501    0 -0.13686665125E+02  0.49758911351E+02  0.11471641908E+03  0.12585945840E+03  0.41800000000E+01 0.  1.
         -5    1    4    4    0  501  0.78196394469E+02  0.16689539321E+02  0.26613908055E+02  0.84374103447E+02  0.41800000000E+01 0.  1.
</event>
<event>
11    1  0.8453735E-009  0.3375630E+03  0.7561462E-02  0.9854383E-01
         22   -1    0    0    0    0  0.00000000000E+00  0.00000000000E+00  0.33584906853E+04  0.33584906853E+04  0.00000000000E+00 0. -1.
         22   -1    0    0    0    0 -0.00000000000E+00 -0.00000000000E+00 -0.10129367194E+04  0.10129367194E+04  0.00000000000E+00 0. -1.
         24    2    1    2    0    0 -0.17821471640E+02  0.30867978713E+03 -0.91231877566E+03  0.96660380465E+03  0.79978440253E+02 0.  0.
         25    2    1    2    0    0  0.67225695779E+02 -0.42024389229E+03  0.61706035166E+03  0.75995736862E+03  0.12508997300E+03 0.  0.
        -24    2    1    2    0    0 -0.49404224139E+02  0.11156410516E+03  0.26408123899E+04  0.26448662314E+04  0.80870119862E+02 0.  0.
        -13    1    3    3    0    0 -0.20689722927E+01  0.48617594182E+02 -0.72637893614E+02  0.87431199804E+02  0.00000000000E+00 0.  1.
         14    1    3    3    0    0 -0.15752499348E+02  0.26006219295E+03 -0.83968088205E+03  0.87917260485E+03  0.00000000000E+00 0. -1.
         11    1    5    5    0    0 -0.54243522966E+02  0.83821580291E+02  0.24451556552E+04  0.24471932075E+04  0.00000000000E+00 0. -1.
        -12    1    5    5    0    0  0.48392988271E+01  0.27742524869E+02  0.19565673473E+03  0.19767302382E+03  0.00000000000E+00 0.  1.
          5    1    4    4  501    0 -0.18971069568E+02 -0.21593289427E+03  0.24824000157E+03  0.32958684302E+03  0.41800000000E+01 0. -1.
         -5    1    4    4    0  501  0.86196765347E+02 -0.20431099802E+03  0.36882035008E+03  0.43037052560E+03  0.41800000000E+01 0. -1.
</event>
<event>
11    1  0.8453735E-009  0.1318756E+03  0.7561462E-02  0.1116986E+00
         22   -1    0    0    0    0  0.00000000000E+00  0.00000000000E+00  0.95245869139E+03  0.95245869139E+03  0.00000000000E+00 0. -1.
         22   -1    0    0    0    0 -0.00000000000E+00 -0.00000000000E+00 -0.16634641311E+04  0.16634641311E+04  0.00000000000E+00 0.  1.
         24    2    1    2    0    0  0.31441550287E+01 -0.22801788799E+02 -0.16387412998E+04  0.16408686170E+04  0.80292984511E+02 0.  0.
         25    2    1    2    0    0 -0.25424100577E+02 -0.14921391222E+02  0.17634113415E+03  0.21820210414E+03  0.12508768866E+03 0.  0.
        -24    2    1    2    0    0  0.22279945548E+02  0.37723180021E+02  0.75139472595E+03  0.75685210133E+03  0.79445797961E+02 0.  0.
        -13    1    3    3    0    0 -0.13066899881E+02 -0.42875944908E+02 -0.14036664858E+04  0.14043819616E+04  0.00000000000E+00 0.  1.
         14    1    3    3    0    0  0.16211054910E+02  0.20074156109E+02 -0.23507481395E+03  0.23648665543E+03  0.00000000000E+00 0. -1.
         13    1    5    5    0    0  0.52202908403E+02  0.28143657509E+02  0.49038933122E+03  0.49396245331E+03  0.00000000000E+00 0. -1.
        -14    1    5    5    0    0 -0.29922962855E+02  0.95795225120E+01  0.26100539473E+03  0.26288964802E+03  0.00000000000E+00 0.  1.
          5    1    4    4  501    0 -0.47222697398E+02  0.31613097173E+01  0.18278279067E+03  0.18885708352E+03  0.41800000000E+01 0.  1.
         -5    1    4    4    0  501  0.21798596821E+02 -0.18082700940E+02 -0.64416565256E+01  0.29345020624E+02  0.41800000000E+01 0.  1.
</event>
<event>
11    1  0.8453735E-009  0.1489381E+03  0.7561462E-02  0.1097969E+00
         22   -1    0    0    0    0  0.00000000000E+00  0.00000000000E+00  0.77450593234E+03  0.77450593234E+03  0.00000000000E+00 0. -1.
         22   -1    0    0    0    0 -0.00000000000E+00 -0.00000000000E+00 -0.81182241575E+03  0.81182241575E+03  0.00000000000E+00 0. -1.
        -24    2    1    2    0    0  0.26435242024E+02  0.75409503663E+01 -0.77908246501E+03  0.78372463202E+03  0.80617142014E+02 0.  0.
         25    2    1    2    0    0  0.33510978279E+02 -0.65442064485E+02  0.18949031429E+03  0.23866523111E+03  0.12509541903E+03 0.  0.
         24    2    1    2    0    0 -0.59946220303E+02  0.57901114119E+02  0.55227566731E+03  0.56393848496E+03  0.77923768929E+02 0.  0.
        -11    1    5    5    0    0  0.63362380469E+01  0.22727740540E+02  0.29503995920E+03  0.29598188395E+03  0.00000000000E+00 0.  1.
         12    1    5    5    0    0 -0.66282458349E+02  0.35173373579E+02  0.25723570811E+03  0.26795660101E+03  0.00000000000E+00 0. -1.
         11    1    3    3    0    0 -0.28765800224E+02 -0.93884265690E+00 -0.30852674142E+03  0.30986626609E+03  0.00000000000E+00 0. -1.
        -12    1    3    3    0    0  0.55201042248E+02  0.84797930232E+01 -0.47055572359E+03  0.47385836593E+03  0.00000000000E+00 0.  1.
          5    1    4    4  501    0  0.21247371662E+02 -0.32402515567E+02 -0.64799726101E+01  0.39507420349E+02  0.41800000000E+01 0.  1.
         -5    1    4    4    0  501  0.12263606617E+02 -0.33039548918E+02  0.19597028690E+03  0.19915781076E+03  0.41800000000E+01 0.  1.
</event>
<event>
11    1  0.8453735E-009  0.1487708E+03  0.7561462E-02  0.1098141E+00
         22   -1    0    0    0    0  0.00000000000E+00  0.00000000000E+00  0.74450824849E+02  0.74450824849E+02  0.00000000000E+00 0.  1.
         22   -1    0    0    0    0 -0.00000000000E+00 -0.00000000000E+00 -0.27900823320E+04  0.27900823320E+04  0.00000000000E+00 0.  1.
         24    2    1    2    0    0 -0.28475579971E+01  0.25723847413E+02 -0.22989975669E+04  0.23006036184E+04  0.81959570074E+02 0.  0.
         25    2    1    2    0    0 -0.76493669042E+02 -0.73389526981E+01 -0.42323833213E+03  0.44797665859E+03  0.12508900522E+03 0.  0.
        -24    2    1    2    0    0  0.79341227039E+02 -0.18384894715E+02  0.66043919434E+01  0.11595287987E+03  0.82270393796E+02 0.  0.
        -13    1    3    3    0    0 -0.25971452839E+02 -0.21062377175E+02 -0.80266861875E+03  0.80336483096E+03  0.00000000000E+00 0.  1.
         14    1    3    3    0    0  0.23123894842E+02  0.46786224589E+02 -0.14963289482E+04  0.14972387874E+04  0.00000000000E+00 0. -1.
         11    1    5    5    0    0 -0.68236319149E+01 -0.27828599346E+02 -0.26710030733E+01  0.28777198464E+02  0.00000000000E+00 0. -1.
        -12    1    5    5    0    0  0.86164858954E+02  0.94437046303E+01  0.92753950168E+01  0.87175681405E+02  0.00000000000E+00 0.  1.
          5    1    4    4  501    0 -0.36129036567E+02 -0.33016164650E+02 -0.38060190489E+03  0.38375859185E+03  0.41800000000E+01 0.  1.
         -5    1    4    4    0  501 -0.40364632475E+02  0.25677211952E+02 -0.42636427243E+02  0.64218066745E+02  0.41800000000E+01 0.  1.
</event>
<event>
11    1  0.8453735E-009  0.1286504E+03  0.7561462E-02  0.1120938E+00
         22   -1    0    0    0    0  0.00000000000E+00  0.00000000000E+00  0.20322392211E+03  0.20322392211E+03  0.00000000000E+00 0.  1.
         22   -1    0    0    0    0 -0.00000000000E+00 -0.00000000000E+00 -0.42969173102E+03  0.42969173102E+03  0.00000000000E+00 0. -1.
        -24    2    1    2    0    0  0.90325498362E+01  0.10017683402E+02 -0.36114713404E+03  0.36962520468E+03  0.77547395675E+02 0.  0.
         25    2    1    2    0    0  0.66252178872E+01  0.19383073802E+02  0.34890675944E+02  0.13146931917E+03  0.12508887062E+03 0.  0.
         24    2    1    2    0    0 -0.15657767723E+02 -0.29400757203E+02  0.99788649181E+02  0.13182112927E+03  0.79432143388E+02 0.  0.
        -11    1    5    5    0    0 -0.26276587171E+02 -0.53162391201E+02  0.60693854543E+02  0.84855423226E+02  0.00000000000E+00 0.  1.
         12    1    5    5    0    0  0.10618819448E+02  0.23761633998E+02  0.39094794638E+02  0.46965706047E+02  0.00000000000E+00 0. -1.
         13    1    3    3    0    0 -0.11053437490E+02  0.17529444403E+02 -0.33573463804E+03  0.33637361235E+03  0.00000000000E+00 0. -1.
        -14    1    3    3    0    0  0.20085987326E+02 -0.75117610008E+01 -0.25412495995E+02  0.33251592336E+02  0.00000000000E+00 0.  1.
          5    1    4    4  501    0 -0.19975376051E+02  0.11242040898E+02  0.77212433403E+02  0.80651295116E+02  0.41800000000E+01 0. -1.
         -5    1    4    4    0  501  0.26600593938E+02  0.81410329032E+01 -0.42321757459E+02  0.50818024057E+02  0.41800000000E+01 0. -1.
</event>
<event>
11    1  0.8453735E-009  0.1329438E+03  0.7561462E-02  0.1115704E+00
         22   -1    0    0    0    0  0.00000000000E+00  0.00000000000E+00  0.85687592251E+03  0.85687592251E+03  0.00000000000E+00 0.  1.
         22   -1    0    0    0    0 -0.00000000000E+00 -0.00000000000E+00 -0.17449662284E+03  0.17449662284E+03  0.00000000000E+00 0. -1.
         24    2    1    2    0    0 -0.25659078850E+02  0.20938697645E-01 -0.95455586581E+02  0.12658024618E+03  0.79072124971E+02 0.  0.
         25    2    1    2    0    0  0.25574933901E+02  0.44984375613E+02  0.14818412649E+02  0.13617938879E+03  0.12509024456E+03 0.  0.
        -24    2    1    2    0    0  0.84144949616E-01 -0.45005314311E+02  0.76301647359E+03  0.76861291038E+03  0.80908476862E+02 0.  0.
        -11    1    3    3    0    0  0.23253707512E+02 -0.26628009490E+01 -0.53342990310E+01  0.24005836125E+02  0.00000000000E+00 0.  1.
         12    1    3    3    0    0 -0.48912786362E+02  0.26837396466E+01 -0.90121287550E+02  0.10257441005E+03  0.00000000000E+00 0. -1.
         13    1    5    5    0    0  0.16660286942E+02  0.18518581186E+02  0.28902981097E+03  0.29010124894E+03  0.00000000000E+00 0. -1.
        -14    1    5    5    0    0 -0.16576141992E+02 -0.63523895497E+02  0.47398666263E+03  0.47851166144E+03  0.00000000000E+00 0.  1.
          5    1    4    4  501    0  0.18950663757E+02  0.88115443082E+02  0.10560862725E+01  0.90233290335E+02  0.41800000000E+01 0.  1.
         -5    1    4    4    0  501  0.66242701434E+01 -0.43131067469E+02  0.13762326377E+02  0.45946098455E+02  0.41800000000E+01 0.  1.
</event>
<event>
11    1  0.8453735E-009  0.1333949E+03  0.7561462E-02  0.1115167E+00
         22   -1    0    0    0    0  0.00000000000E+00  0.00000000000E+00  0.16588575351E+03  0.16588575351E+03  0.00000000000E+00 0. -1.
         22   -1    0    0    0    0 -0.00000000000E+00 -0.00000000000E+00 -0.12175506130E+04  0.12175506130E+04  0.00000000000E+00 0.  1.
         24    2    1    2    0    0 -0.42033197555E+02 -0.16959004044E+02 -0.11028684888E+04  0.11067587800E+04  0.80880751671E+02 0.  0.
         25    2    1    2    0    0  0.63224647195E+02  0.52060876243E+02 -0.32552576747E+02  0.15301159405E+03  0.12508072119E+03 0.  0.
        -24    2    1    2    0    0 -0.21191449640E+02 -0.35101872199E+02  0.83756206094E+02  0.12366599242E+03  0.81221651376E+02 0.  0.
        -11    1    3    3    0    0 -0.15152829684E+02 -0.83312985720E+01 -0.99820401528E+03  0.99835378244E+03  0.00000000000E+00 0.  1.
         12    1    3    3    0    0 -0.26880367872E+02 -0.86277054719E+01 -0.10466447357E+03  0.10840499760E+03  0.00000000000E+00 0. -1.
         11    1    5    5    0    0 -0.23544619403E+02  0.59575670991E+01  0.78540456637E+02  0.82209762421E+02  0.00000000000E+00 0. -1.
        -12    1    5    5    0    0  0.23531697631E+01 -0.41059439298E+02  0.52157494579E+01  0.41456230000E+02  0.00000000000E+00 0.  1.
          5    1    4    4  501    0  0.27090893074E+02  0.18061137083E+02  0.48096361816E+02  0.58231036228E+02  0.41800000000E+01 0.  1.
         -5    1    4    4    0  501  0.36133754122E+02  0.33999739159E+02 -0.80648938563E+02  0.94780557822E+02  0.41800000000E+01 0.  1.
</event>
<event>
11    1  0.8453735E-009  0.1845836E+03  0.7561462E-02  0.1065994E+00
         22   -1    0    0    0    0  0.00000000000E+00  0.00000000000E+00  0.63890340259E+03  0.63890340259E+03  0.00000000000E+00 0.  1.
         22   -1    0    0    0    0 -0.00000000000E+00 -0.00000000000E+00 -0.17576826243E+04  0.17576826243E+04  0.00000000000E+00 0. -1.
        -24    2    1    2    0    0  0.12699890503E+03  0.51890677291E+02 -0.16691509681E+04  0.16767224150E+04  0.80695342967E+02 0.  0.
         25    2    1    2    0    0 -0.81789998162E+02 -0.71614121476E+02  0.43318847959E+01  0.16578410511E+03  0.12508964020E+03 0.  0.
         24    2    1    2    0    0 -0.45208906870E+02  0.19723444184E+02  0.54603986155E+03  0.55407950682E+03  0.80073153818E+02 0.  0.
        -13    1    5    5    0    0 -0.64568029636E+02  0.31002276343E+02  0.41163138579E+03  0.41781643022E+03  0.00000000000E+00 0.  1.
         14    1    5    5    0    0  0.19359122767E+02 -0.11278832159E+02  0.13440847576E+03  0.13626307660E+03  0.00000000000E+00 0. -1.
         13    1    3    3    0    0  0.90474797756E+01  0.32216020929E+02 -0.59400955237E+03  0.59495132339E+03  0.00000000000E+00 0. -1.
        -14    1    3    3    0    0  0.11795142526E+03  0.19674656362E+02 -0.10751414157E+04  0.10817710916E+04  0.00000000000E+00 0.  1.
          5    1    4    4  501    0  0.28638627300E+02 -0.34563182361E+01 -0.17686671356E+02  0.34094102907E+02  0.41800000000E+01 0. -1.
         -5    1    4    4    0  501 -0.11042862546E+03 -0.68157803240E+02  0.22018556152E+02  0.13169000220E+03  0.41800000000E+01 0. -1.
</event>
<event>
11    1  0.8453735E-009  0.1745712E+03  0.7561462E-02  0.1074121E+00
         22   -1    0    0    0    0  0.00000000000E+00  0.00000000000E+00  0.54353561958E+03  0.54353561958E+03  0.00000000000E+00 0.  1.
         22   -1    0    0    0    0 -0.00000000000E+00 -0.00000000000E+00 -0.29758274154E+04  0.29758274154E+04  0.00000000000E+00 0. -1.
         24    2    1    2    0    0 -0.12014287719E+03  0.18173062208E+02 -0.28877386846E+04  0.28913890618E+04  0.79570252578E+02 0.  0.
         25    2    1    2    0    0  0.12743486299E+03 -0.13355991372E+03  0.99337290517E+02  0.24411537992E+03  0.12508607662E+03 0.  0.
        -24    2    1    2    0    0 -0.72919858030E+01  0.11538685151E+03  0.35610959820E+03  0.38385859331E+03  0.84652673723E+02 0.  0.
        -13    1    3    3    0    0  0.85889508801E+01 -0.10020114984E+02 -0.21683237499E+03  0.21723363374E+03  0.00000000000E+00 0.  1.
         14    1    3    3    0    0 -0.12873182807E+03  0.28193177192E+02 -0.26709063096E+04  0.26741554280E+04  0.00000000000E+00 0. -1.
         13    1    5    5    0    0 -0.12155335666E+02  0.22950896668E+02  0.14115278973E+02  0.29559041654E+02  0.00000000000E+00 0. -1.
        -14    1    5    5    0    0  0.48633498629E+01  0.92435954845E+02  0.34199431923E+03  0.35429955165E+03  0.00000000000E+00 0.  1.
          5    1    4    4  501    0  0.78267943795E+02 -0.10959925950E+03  0.12478297505E+03  0.18364675867E+03  0.41800000000E+01 0. -1.
         -5    1    4    4    0  501  0.49166919198E+02 -0.23960654219E+02 -0.25445684530E+02  0.60468621244E+02  0.41800000000E+01 0. -1.
</event>
<event>
11    1  0.8453735E-009  0.1384349E+03  0.7561462E-02  0.1109319E+00
         22   -1    0    0    0    0  0.00000000000E+00  0.00000000000E+00  0.78520722011E+03  0.78520722011E+03  0.00000000000E+00 0.  1.
         22   -1    0    0    0    0 -0.00000000000E+00 -0.00000000000E+00 -0.10380813026E+03  0.10380813026E+03  0.00000000000E+00 0.  1.
        -24    2    1    2    0    0  0.47752653767E+00 -0.60769918848E+02 -0.58588413481E+02  0.11716033221E+03  0.81244877875E+02 0.  0.
         25    2    1    2    0    0  0.96978669539E+01  0.40404919335E+02  0.36855845879E+03  0.39141805851E+03  0.12508458279E+03 0.  0.
         24    2    1    2    0    0 -0.10175393492E+02  0.20364999513E+02  0.37142904454E+03  0.38043695965E+03  0.79085228077E+02 0.  0.
        -11    1    5    5    0    0 -0.38252503661E+02  0.27658624117E+02  0.29373802752E+03  0.29750677696E+03  0.00000000000E+00 0.  1.
         12    1    5    5    0    0  0.28077110169E+02 -0.72936246047E+01  0.77691017019E+02  0.82930182689E+02  0.00000000000E+00 0. -1.
         13    1    3    3    0    0 -0.57081938269E+01 -0.38352525121E+02  0.13777237509E+02  0.41149871607E+02  0.00000000000E+00 0. -1.
        -14    1    3    3    0    0  0.61857203646E+01 -0.22417393727E+02 -0.72365650989E+02  0.76010460603E+02  0.00000000000E+00 0.  1.
          5    1    4    4  501    0 -0.49663251760E+02 -0.56826080970E+01  0.20990822153E+03  0.21581859159E+03  0.41800000000E+01 0.  1.
         -5    1    4    4    0  501  0.59361118714E+02  0.46087527432E+02  0.15865023727E+03  0.17559946693E+03  0.41800000000E+01 0.  1.
</event>
<event>
11    1  0.8453735E-009  0.1273022E+03  0.7561462E-02  0.1122629E+00
         22   -1    0    0    0    0  0.00000000000E+00  0.00000000000E+00  0.34189670466E+03  0.34189670466E+03  0.00000000000E+00 0.  1.
         22   -1    0    0    0    0 -0.00000000000E+00 -0.00000000000E+00 -0.52754100609E+03  0.52754100609E+03  0.00000000000E+00 0.  1.
         24    2    1    2    0    0 -0.21581855739E+02  0.33170367555E+01 -0.39554990833E+03  0.40419018268E+03  0.80207197707E+02 0.  0.
         25    2    1    2    0    0  0.42436373831E+02  0.58169877932E+01 -0.85936941441E+02  0.15769542176E+03  0.12509198603E+03 0.  0.
        -24    2    1    2    0    0 -0.20854518091E+02 -0.91340245486E+01  0.29584254835E+03  0.30755210632E+03  0.80914419970E+02 0.  0.
        -13    1    3    3    0    0 -0.42010261819E+02  0.83421807034E+01 -0.11278432387E+03  0.12064310087E+03  0.00000000000E+00 0.  1.
         14    1    3    3    0    0  0.20428406080E+02 -0.50251439480E+01 -0.28276558445E+03  0.28354708180E+03  0.00000000000E+00 0. -1.
         11    1    5    5    0    0 -0.29670201352E+02  0.30129048825E+02  0.18065388553E+03  0.18553680710E+03  0.00000000000E+00 0. -1.
        -12    1    5    5    0    0  0.88156832607E+01 -0.39263073373E+02  0.11518866282E+03  0.12201529922E+03  0.00000000000E+00 0.  1.
          5    1    4    4  501    0  0.62458103491E+02  0.50072462817E+02 -0.35894351004E+02  0.87830194456E+02  0.41800000000E+01 0. -1.
         -5    1    4    4    0  501 -0.20021729660E+02 -0.44255475024E+02 -0.50042590436E+02  0.69865227300E+02  0.41800000000E+01 0. -1.
</event>
<event>
11    1  0.8453735E-009  0.1406446E+03  0.7561462E-02  0.1106841E+00
         22   -1    0    0    0    0  0.00000000000E+00  0.00000000000E+00  0.60696424854E+03  0.60696424854E+03  0.00000000000E+00 0.  1.
         22   -1    0    0    0    0 -0.00000000000E+00 -0.00000000000E+00 -0.26980809533E+03  0.26980809533E+03  0.00000000000E+00 0. -1.
        -24    2    1    2    0    0 -0.10947661173E+02  0.57929208300E+02 -0.17912054130E+03  0.20504032798E+03  0.80509150563E+02 0.  0.
         25    2    1    2    0    0  0.31585168827E+02 -0.96072245937E+02  0.14231667144E+02  0.16148707371E+03  0.12509210725E+03 0.  0.
         24    2    1    2    0    0 -0.20637507654E+02  0.38143037637E+02  0.50204502736E+03  0.51024494219E+03  0.80124237861E+02 0.  0.
        -11    1    5    5    0    0  0.14512445420E+02  0.50598142332E+02  0.33307655403E+03  0.33721028147E+03  0.00000000000E+00 0.  1.
         12    1    5    5    0    0 -0.35149953074E+02 -0.12455104696E+02  0.16896847332E+03  0.17303466072E+03  0.00000000000E+00 0. -1.
         11    1    3    3    0    0  0.27404567247E+02  0.46493541786E+02 -0.13544703573E+03  0.14580315231E+03  0.00000000000E+00 0. -1.
        -12    1    3    3    0    0 -0.38352228420E+02  0.11435666514E+02 -0.43673505560E+02  0.59237175670E+02  0.00000000000E+00 0.  1.
          5    1    4    4  501    0 -0.18325463520E+02  0.24158160464E+02  0.31671039758E+01  0.30772427233E+02  0.41800000000E+01 0. -1.
         -5    1    4    4    0  501  0.49910632347E+02 -0.12023040640E+03  0.11064563168E+02  0.13071464647E+03  0.41800000000E+01 0. -1.
</event>
<event>
11    1  0.8453735E-009  0.1642131E+03  0.7561462E-02  0.1083180E+00
         22   -1    0    0    0    0  0.00000000000E+00  0.00000000000E+00  0.15288853935E+04  0.15288853935E+04  0.00000000000E+00 0.  1.
         22   -1    0    0    0    0 -0.00000000000E+00 -0.00000000000E+00 -0.44667938652E+03  0.44667938652E+03  0.00000000000E+00 0. -1.
         24    2    1    2    0    0 -0.36127150593E+02  0.10376629013E+03 -0.37326301901E+03  0.39736263790E+03  0.80617434009E+02 0.  0.
         25    2    1    2    0    0  0.78729039544E+01 -0.81304185896E+02  0.32904008173E+02  0.15297235316E+03  0.12508202835E+03 0.  0.
        -24    2    1    2    0    0  0.28254246639E+02 -0.22462104232E+02  0.14225650178E+04  0.14252297889E+04  0.79283496676E+02 0.  0.
        -11    1    3    3    0    0 -0.43682208741E+02  0.13562533549E+02 -0.12213924667E+03  0.13042267155E+03  0.00000000000E+00 0.  1.
         12    1    3    3    0    0  0.75550581474E+01  0.90203756579E+02 -0.25112377234E+03  0.26693996635E+03  0.00000000000E+00 0. -1.
         13    1    5    5    0    0 -0.20825656576E+02  0.29947339175E+01  0.15047428621E+03  0.15193810323E+03  0.00000000000E+00 0. -1.
        -14    1    5    5    0    0  0.49079903215E+02 -0.25456838150E+02  0.12720907316E+04  0.12732916857E+04  0.00000000000E+00 0.  1.
          5    1    4    4  501    0 -0.16472035802E+02 -0.41868174749E+02 -0.44010649081E+02  0.63076791712E+02  0.41800000000E+01 0.  1.
         -5    1    4    4    0  501  0.24344939757E+02 -0.39436011147E+02  0.76914657254E+02  0.89895561444E+02  0.41800000000E+01 0.  1.
</event>
<event>
11    1  0.8453735E-009  0.1503416E+03  0.7561462E-02  0.1096530E+00
         22   -1    0    0    0    0  0.00000000000E+00  0.00000000000E+00  0.23715954647E+03  0.23715954647E+03  0.00000000000E+00 0. -1.
         22   -1    0    0    0    0 -0.00000000000E+00 -0.00000000000E+00 -0.18749795887E+04  0.18749795887E+04  0.00000000000E+00 0.  1.
        -24    2    1    2    0    0  0.57039912240E+02  0.55559619551E+02 -0.14367821504E+04  0.14412724229E+04  0.81134618483E+02 0.  0.
         25    2    1    2    0    0 -0.75878895962E+02 -0.81622468214E+02 -0.40583439756E+03  0.43905369775E+03  0.12508699809E+03 0.  0.
         24    2    1    2    0    0  0.18838983722E+02  0.26062848663E+02  0.20479650574E+03  0.23181301453E+03  0.10373758025E+03 0.  0.
        -13    1    5    5    0    0  0.48137486575E+02 -0.60823347465E+01  0.44903615423E+02  0.66110113354E+02  0.00000000000E+00 0.  1.
         14    1    5    5    0    0 -0.29298502853E+02  0.32145183410E+02  0.15989289032E+03  0.16570290118E+03  0.00000000000E+00 0. -1.
         11    1    3    3    0    0 -0.15880676831E+02  0.61932305575E+01 -0.89065161298E+02  0.90681613122E+02  0.00000000000E+00 0. -1.
        -12    1    3    3    0    0  0.72920589072E+02  0.49366388994E+02 -0.13477169891E+04  0.13505908098E+04  0.00000000000E+00 0.  1.
          5    1    4    4  501    0 -0.69073147369E+02 -0.35100584048E+02 -0.86305650130E+02  0.11605726316E+03  0.41800000000E+01 0. -1.
         -5    1    4    4    0  501 -0.68057485934E+01 -0.46521884166E+02 -0.31952874744E+03  0.32299643459E+03  0.41800000000E+01 0. -1.
</event>
<event>
11    1  0.8453735E-009  0.1749241E+03  0.7561462E-02  0.1073824E+00
         22   -1    0    0    0    0  0.00000000000E+00  0.00000000000E+00  0.60474929006E+03  0.60474929006E+03  0.00000000000E+00 0. -1.
         22   -1    0    0    0    0 -0.00000000000E+00 -0.00000000000E+00 -0.20594861969E+03  0.20594861969E+03  0.00000000000E+00 0.  1.
         24    2    1    2    0    0  0.72025559958E+02  0.54726039307E+02 -0.30712812402E+02  0.12356685868E+03  0.78376470013E+02 0.  0.
         25    2    1    2    0    0 -0.72137245383E+02 -0.17209785677E+03 -0.10425789763E+02  0.22489526586E+03  0.12509088311E+03 0.  0.
        -24    2    1    2    0    0  0.11168542474E+00  0.11737181747E+03  0.43993927254E+03  0.46223578522E+03  0.79619103256E+02 0.  0.
        -13    1    3    3    0    0  0.73805854449E+02  0.16416492359E+02 -0.19608727425E+01  0.75634981286E+02  0.00000000000E+00 0.  1.
         14    1    3    3    0    0 -0.17802944908E+01  0.38309546948E+02 -0.28751939660E+02  0.47931877389E+02  0.00000000000E+00 0. -1.
         11    1    5    5    0    0 -0.35200954574E+02  0.74510178007E+02  0.31326996208E+03  0.32392737299E+03  0.00000000000E+00 0. -1.
        -12    1    5    5    0    0  0.35312639999E+02  0.42861639460E+02  0.12666931046E+03  0.13830841223E+03  0.00000000000E+00 0.  1.
          5    1    4    4  501    0  0.29329460682E+02 -0.33588042945E+02  0.22338277393E+02  0.50048425846E+02  0.41800000000E+01 0. -1.
         -5    1    4    4    0  501 -0.10146670606E+03 -0.13850981383E+03 -0.32764067156E+02  0.17484684001E+03  0.41800000000E+01 0. -1.
</event>
<event>
11    1  0.8453735E-009  0.1377450E+03  0.7561462E-02  0.1110103E+00
         22   -1    0    0    0    0  0.00000000000E+00  0.00000000000E+00  0.17435850250E+03  0.17435850250E+03  0.00000000000E+00 0. -1.
         22   -1    0    0    0    0 -0.00000000000E+00 -0.00000000000E+00 -0.39812606935E+03  0.39812606935E+03  0.00000000000E+00 0.  1.
         24    2    1    2    0    0 -0.32852196335E+02 -0.41209807820E+02 -0.27006141943E+03  0.28654524855E+03  0.79984336850E+02 0.  0.
         25    2    1    2    0    0  0.58228051678E+02  0.74982316784E+02 -0.38151016843E+02  0.16160282902E+03  0.12508845042E+03 0.  0.
        -24    2    1    2    0    0 -0.25375855343E+02 -0.33772508964E+02  0.84444869423E+02  0.12433649427E+03  0.80895682454E+02 0.  0.
        -11    1    3    3    0    0 -0.56111651849E+01 -0.48625321759E+02 -0.24140604944E+03  0.24631846825E+03  0.00000000000E+00 0.  1.
         12    1    3    3    0    0 -0.27241031150E+02  0.74155139391E+01 -0.28655369983E+02  0.40226780308E+02  0.00000000000E+00 0. -1.
         13    1    5    5    0    0 -0.39286115069E+02 -0.47727406593E+02  0.84419909120E+02  0.10463281146E+03  0.00000000000E+00 0. -1.
        -14    1    5    5    0    0  0.13910259726E+02  0.13954897629E+02  0.24960302722E-01  0.19703682815E+02  0.00000000000E+00 0.  1.
          5    1    4    4  501    0  0.66427949638E+00  0.13434920186E+02  0.42566239806E+02  0.44836319194E+02  0.41800000000E+01 0.  1.
         -5    1    4    4    0  501  0.57563772181E+02  0.61547396598E+02 -0.80717256649E+02  0.11676650983E+03  0.41800000000E+01 0.  1.
</event>
<event>
11    1  0.8453735E-009  0.1457795E+03  0.7561462E-02  0.1101271E+00
         22   -1    0    0    0    0  0.00000000000E+00  0.00000000000E+00  0.84343639453E+02  0.84343639453E+02  0.00000000000E+00 0. -1.
         22   -1    0    0    0    0 -0.00000000000E+00 -0.00000000000E+00 -0.24951327604E+04  0.24951327604E+04  0.00000000000E+00 0.  1.
         24    2    1    2    0    0 -0.39670448933E+02 -0.90052880101E+01 -0.22472172576E+04  0.22490303601E+04  0.80605944171E+02 0.  0.
         25    2    1    2    0    0  0.61820785499E+02  0.73268877525E+02 -0.14005970528E+03  0.21084301615E+03  0.12509164034E+03 0.  0.
        -24    2    1    2    0    0 -0.22150336567E+02 -0.64263589515E+02 -0.23512158055E+02  0.11960302355E+03  0.95559485760E+02 0.  0.
        -11    1    3    3    0    0 -0.60525859283E+02  0.10111753612E+02 -0.16559965563E+04  0.16571331333E+04  0.00000000000E+00 0.  1.
         12    1    3    3    0    0  0.20855410350E+02 -0.19117041622E+02 -0.59122070133E+03  0.59189722681E+03  0.00000000000E+00 0. -1.
         11    1    5    5    0    0 -0.52686541694E+02 -0.12097877583E+02  0.17606875115E+01  0.54086323023E+02  0.00000000000E+00 0. -1.
        -12    1    5    5    0    0  0.30536205127E+02 -0.52165711932E+02 -0.25272845567E+02  0.65516700527E+02  0.00000000000E+00 0.  1.
          5    1    4    4  501    0  0.60899178920E+02 -0.13828718271E+02 -0.92005497060E+02  0.11127635567E+03  0.41800000000E+01 0. -1.
         -5    1    4    4    0  501  0.92160657959E+00  0.87097595796E+02 -0.48054208223E+02  0.99566660484E+02  0.41800000000E+01 0. -1.
</event>
<event>
11    1  0.8453735E-009  0.1814389E+03  0.7561462E-02  0.1068485E+00
         22   -1    0    0    0    0  0.00000000000E+00  0.00000000000E+00  0.31938318557E+03  0.31938318557E+03  0.00000000000E+00 0.  1.
         22   -1    0    0    0    0 -0.00000000000E+00 -0.00000000000E+00 -0.81977082728E+03  0.81977082728E+03  0.00000000000E+00 0. -1.
         24    2    1    2    0    0  0.10037897240E+02  0.28066696220E+02 -0.67180073293E+03  0.67716668577E+03  0.79686866770E+02 0.  0.
         25    2    1    2    0    0  0.58204315981E+02  0.89886329979E+02 -0.65343285392E+02  0.17715799208E+03  0.12509162440E+03 0.  0.
        -24    2    1    2    0    0 -0.68242213221E+02 -0.11795302620E+03  0.23675637661E+03  0.28482933500E+03  0.80648943943E+02 0.  0.
        -11    1    3    3    0    0  0.12087389604E+02  0.38908794913E+00 -0.12902446558E+02  0.17684159693E+02  0.00000000000E+00 0.  1.
         12    1    3    3    0    0 -0.20494923641E+01  0.27677608271E+02 -0.65889828637E+03  0.65948252607E+03  0.00000000000E+00 0. -1.
         13    1    5    5    0    0 -0.30447482811E+02 -0.10350693890E+03  0.12055243395E+03  0.16178264722E+03  0.00000000000E+00 0. -1.
        -14    1    5    5    0    0 -0.37794730410E+02 -0.14446087296E+02  0.11620394266E+03  0.12304668778E+03  0.00000000000E+00 0.  1.
          5    1    4    4  501    0 -0.22100068623E+02  0.20908890320E+02 -0.64245941208E+02  0.71208202401E+02  0.41800000000E+01 0. -1.
         -5    1    4    4    0  501  0.80304384604E+02  0.68977439659E+02 -0.10973441845E+01  0.10594978968E+03  0.41800000000E+01 0. -1.
</event>
<event>
11    1  0.8453735E-009  0.5434038E+03  0.7561462E-02  0.9301443E-01
         22   -1    0    0    0    0  0.00000000000E+00  0.00000000000E+00  0.35599783475E+04  0.35599783475E+04  0.00000000000E+00 0.  1.
         22   -1    0    0    0    0 -0.00000000000E+00 -0.00000000000E+00 -0.14441382841E+04  0.14441382841E+04  0.00000000000E+00 0.  1.
        -24    2    1    2    0    0 -0.49537228707E+03 -0.18211469823E+03 -0.13194622295E+04  0.14234231074E+04  0.81199147445E+02 0.  0.
         25    2    1    2    0    0  0.50170767596E+03  0.23142441835E+03  0.10470675024E+04  0.11904895917E+04  0.12508900696E+03 0.  0.
         24    2    1    2    0    0 -0.63353888883E+01 -0.49309720125E+02  0.23882347905E+04  0.23902039325E+04  0.83293688731E+02 0.  0.
        -11    1    5    5    0    0  0.17586518101E+02  0.56146843832E+01  0.14186648015E+04  0.14187849129E+04  0.00000000000E+00 0.  1.
         12    1    5    5    0    0 -0.23921906989E+02 -0.54924404508E+02  0.96956998906E+03  0.97141901955E+03  0.00000000000E+00 0. -1.
         11    1    3    3    0    0 -0.15020756573E+03 -0.30324937881E+02 -0.30925185282E+03  0.34513565902E+03  0.00000000000E+00 0. -1.
        -12    1    3    3    0    0 -0.34516472134E+03 -0.15178976035E+03 -0.10102103767E+04  0.10782874484E+04  0.00000000000E+00 0.  1.
          5    1    4    4  501    0  0.68633066475E+02  0.83125330419E+02  0.17525223310E+03  0.20579391628E+03  0.41800000000E+01 0. -1.
         -5    1    4    4    0  501  0.43307460948E+03  0.14829908793E+03  0.87181526934E+03  0.98469567538E+03  0.41800000000E+01 0. -1.
</event>
<event>
11    1  0.8453735E-009  0.2696528E+03  0.7561462E-02  0.1013921E+00
         22   -1    0    0    0    0  0.00000000000E+00  0.00000000000E+00  0.24471447892E+03  0.24471447892E+03  0.00000000000E+00 0. -1.
         22   -1    0    0    0    0 -0.00000000000E+00 -0.00000000000E+00 -0.99038523848E+03  0.99038523848E+03  0.00000000000E+00 0. -1.
        -24    2    1    2    0    0  0.66879592030E+02 -0.21680113938E+03 -0.60147672014E+03  0.64816734479E+03  0.82891785585E+02 0.  0.
         25    2    1    2    0    0 -0.15693749871E+03  0.23646217494E+03 -0.26566389466E+03  0.40837554131E+03  0.12509811803E+03 0.  0.
         24    2    1    2    0    0  0.90057906682E+02 -0.19661035555E+02  0.12146985525E+03  0.17855683129E+03  0.92901202321E+02 0.  0.
        -11    1    5    5    0    0  0.12225359358E+02 -0.29998828399E+02 -0.17567830787E+01  0.32441877312E+02  0.00000000000E+00 0.  1.
         12    1    5    5    0    0  0.77832547323E+02  0.10337792844E+02  0.12322663833E+03  0.14611495398E+03  0.00000000000E+00 0. -1.
         11    1    3    3    0    0  0.40531982985E+02 -0.20591077799E+03 -0.55817256265E+03  0.59632097048E+03  0.00000000000E+00 0. -1.
        -12    1    3    3    0    0  0.26347609045E+02 -0.10890361396E+02 -0.43304157491E+02  0.51846374316E+02  0.00000000000E+00 0.  1.
          5    1    4    4  501    0 -0.87632936302E+02  0.18793987779E+03 -0.11931007252E+03  0.23927660771E+03  0.41800000000E+01 0. -1.
         -5    1    4    4    0  501 -0.69304562410E+02  0.48522297145E+02 -0.14635382214E+03  0.16909893360E+03  0.41800000000E+01 0. -1.
</event>
<event>
11    1  0.8453735E-009  0.1353509E+03  0.7561462E-02  0.1112864E+00
         22   -1    0    0    0    0  0.00000000000E+00  0.00000000000E+00  0.71976292125E+02  0.71976292125E+02  0.00000000000E+00 0.  1.
         22   -1    0    0    0    0 -0.00000000000E+00 -0.00000000000E+00 -0.22038309180E+04  0.22038309180E+04  0.00000000000E+00 0. -1.
        -24    2    1    2    0    0  0.14261710184E+02 -0.14830631013E+02 -0.16850504390E+04  0.16869347676E+04  0.77010286583E+02 0.  0.
         25    2    1    2    0    0  0.18723793102E+02 -0.26828639355E+02 -0.47267911892E+03  0.49004433448E+03  0.12509014341E+03 0.  0.
         24    2    1    2    0    0 -0.32985503286E+02  0.41659270368E+02  0.25874932004E+02  0.98828108063E+02  0.79208235698E+02 0.  0.
        -11    1    5    5    0    0 -0.41895401681E+02  0.42232802421E+01  0.39764875529E+02  0.57916371639E+02  0.00000000000E+00 0.  1.
         12    1    5    5    0    0  0.89098983952E+01  0.37435990126E+02 -0.13889943524E+02  0.40911736424E+02  0.00000000000E+00 0. -1.
         11    1    3    3    0    0  0.34022293151E+01  0.27418796069E+02 -0.10618758664E+04  0.10622352475E+04  0.00000000000E+00 0. -1.
        -12    1    3    3    0    0  0.10859480869E+02 -0.42249427082E+02 -0.62317457261E+03  0.62469952006E+03  0.00000000000E+00 0.  1.
          5    1    4    4  501    0  0.54916550623E+02  0.26291105470E+02 -0.28970481493E+03  0.29606317224E+03  0.41800000000E+01 0.  1.
         -5    1    4    4    0  501 -0.36192757521E+02 -0.53119744825E+02 -0.18297430399E+03  0.19398116225E+03  0.41800000000E+01 0.  1.
</event>
<event>
11    1  0.8453735E-009  0.2125529E+03  0.7561462E-02  0.1045985E+00
         22   -1    0    0    0    0  0.00000000000E+00  0.00000000000E+00  0.11012366934E+04  0.11012366934E+04  0.00000000000E+00 0. -1.
         22   -1    0    0    0    0 -0.00000000000E+00 -0.00000000000E+00 -0.27476020255E+03  0.27476020255E+03  0.00000000000E+00 0.  1.
        -24    2    1    2    0    0  0.14103563095E+03 -0.92599914749E+02 -0.18522983890E+03  0.26345896079E+03  0.81453897356E+02 0.  0.
         25    2    1    2    0    0 -0.17383621836E+03  0.88493380601E+02  0.22864576335E+03  0.32553772160E+03  0.12508322776E+03 0.  0.
         24    2    1    2    0    0  0.32800587411E+02  0.41065341480E+01  0.78306056639E+03  0.78700021356E+03  0.71363459425E+02 0.  0.
        -11    1    5    5    0    0  0.30112389330E+02 -0.10213284044E+02  0.13196948705E+03  0.13574613318E+03  0.00000000000E+00 0.  1.
         12    1    5    5    0    0  0.26881980811E+01  0.14319818192E+02  0.65109107934E+03  0.65125408037E+03  0.00000000000E+00 0. -1.
         11    1    3    3    0    0  0.27035305102E+02 -0.29394789425E+02 -0.38820938653E+01  0.40125204299E+02  0.00000000000E+00 0. -1.
        -12    1    3    3    0    0  0.11400032585E+03 -0.63205125324E+02 -0.18134774503E+03  0.22333375649E+03  0.00000000000E+00 0.  1.
          5    1    4    4  501    0 -0.11845215230E+03  0.11189013280E+03  0.20221588908E+03  0.25972880548E+03  0.41800000000E+01 0. -1.
         -5    1    4    4    0  501 -0.55384066062E+02 -0.23396752201E+02  0.26429874270E+02  0.65808916121E+02  0.41800000000E+01 0. -1.
</event>
<event>
11    1  0.8453735E-009  0.1369071E+03  0.7561462E-02  0.1111062E+00
         22   -1    0    0    0    0  0.00000000000E+00  0.00000000000E+00  0.76574617107E+03  0.76574617107E+03  0.00000000000E+00 0.  1.
         22   -1    0    0    0    0 -0.00000000000E+00 -0.00000000000E+00 -0.53037656688E+03  0.53037656688E+03  0.00000000000E+00 0.  1.
         24    2    1    2    0    0 -0.50095454199E+02 -0.16063062773E+02 -0.41094378847E+03  0.42185930465E+03  0.79516659422E+02 0.  0.
         25    2    1    2    0    0  0.81142098822E+02  0.21922289945E+02 -0.60434863881E+02  0.16237166595E+03  0.12509019999E+03 0.  0.
        -24    2    1    2    0    0 -0.31046644623E+02 -0.58592271717E+01  0.70674825654E+03  0.71189176735E+03  0.79363503011E+02 0.  0.
        -13    1    3    3    0    0 -0.45944475440E+02  0.17335696179E+02 -0.33771750063E+03  0.34126900155E+03  0.00000000000E+00 0.  1.
         14    1    3    3    0    0 -0.41509787593E+01 -0.33398758952E+02 -0.73226287834E+02  0.80590303103E+02  0.00000000000E+00 0. -1.
         13    1    5    5    0    0  0.33711733213E+01  0.27425187925E+02  0.11766162741E+03  0.12086258439E+03  0.00000000000E+00 0. -1.
        -14    1    5    5    0    0 -0.34417817944E+02 -0.33284415096E+02  0.58908662913E+03  0.59102918295E+03  0.00000000000E+00 0.  1.
          5    1    4    4  501    0  0.10813606797E+03  0.15281843289E+02 -0.16958020305E+02  0.11059833083E+03  0.41800000000E+01 0.  1.
         -5    1    4    4    0  501 -0.26993969144E+02  0.66404466561E+01 -0.43476843576E+02  0.51773335119E+02  0.41800000000E+01 0.  1.
</event>
<event>
11    1  0.8453735E-009  0.1936606E+03  0.7561462E-02  0.1059099E+00
         22   -1    0    0    0    0  0.00000000000E+00  0.00000000000E+00  0.29185666822E+03  0.29185666822E+03  0.00000000000E+00 0. -1.
         22   -1    0    0    0    0 -0.00000000000E+00 -0.00000000000E+00 -0.50130156010E+03  0.50130156010E+03  0.00000000000E+00 0. -1.
        -24    2    1    2    0    0  0.29029125906E+02 -0.74165018940E+02 -0.36288684976E+03  0.38026595753E+03  0.81069060326E+02 0.  0.
         25    2    1    2    0    0 -0.14342399489E+03 -0.30562894018E+02  0.16952747652E+02  0.19348485122E+03  0.12507781258E+03 0.  0.
         24    2    1    2    0    0  0.11439486898E+03  0.10472791296E+03  0.13648921024E+03  0.21940741957E+03  0.73866023643E+02 0.  0.
        -11    1    5    5    0    0  0.77569736479E+02  0.10773568487E+03  0.91709585288E+02  0.16135268775E+03  0.00000000000E+00 0.  1.
         12    1    5    5    0    0  0.36825132503E+02 -0.30077719096E+01  0.44779624949E+02  0.58054731816E+02  0.00000000000E+00 0. -1.
         13    1    3    3    0    0 -0.31715260622E+01 -0.51067555799E+02 -0.30992245807E+03  0.31411762741E+03  0.00000000000E+00 0. -1.
        -14    1    3    3    0    0  0.32200651968E+02 -0.23097463141E+02 -0.52964391691E+02  0.66148330122E+02  0.00000000000E+00 0.  1.
          5    1    4    4  501    0 -0.10050778639E+03  0.18253560344E+02 -0.37185295807E+02  0.10878982588E+03  0.41800000000E+01 0.  1.
         -5    1    4    4    0  501 -0.42916208495E+02 -0.48816454361E+02  0.54138043460E+02  0.84695025342E+02  0.41800000000E+01 0.  1.
</event>
<event>
11    1  0.8453735E-009  0.1523948E+03  0.7561462E-02  0.1094457E+00
         22   -1    0    0    0    0  0.00000000000E+00  0.00000000000E+00  0.22391497948E+04  0.22391497948E+04  0.00000000000E+00 0.  1.
         22   -1    0    0    0    0 -0.00000000000E+00 -0.00000000000E+00 -0.28477255262E+03  0.28477255262E+03  0.00000000000E+00 0. -1.
         24    2    1    2    0    0 -0.63221397116E+01 -0.86533323169E+02 -0.25690162345E+03  0.28303554309E+03  0.81133772569E+02 0.  0.
         25    2    1    2    0    0 -0.47268566104E+02  0.10527755425E+03  0.52670060969E+03  0.55350245335E+03  0.12503500649E+03 0.  0.
        -24    2    1    2    0    0  0.53590705816E+02 -0.18744231078E+02  0.16845782559E+04  0.16873843510E+04  0.78985680022E+02 0.  0.
        -11    1    3    3    0    0 -0.36814146599E+02 -0.37400515188E+02 -0.17555000401E+03  0.18322631861E+03  0.00000000000E+00 0.  1.
         12    1    3    3    0    0  0.30492006888E+02 -0.49132807981E+02 -0.81351619439E+02  0.99809224471E+02  0.00000000000E+00 0. -1.
         11    1    5    5    0    0  0.20240760227E+02  0.28857498477E+02  0.42221720372E+03  0.42368598126E+03  0.00000000000E+00 0. -1.
        -12    1    5    5    0    0  0.33349945589E+02 -0.47601729555E+02  0.12623610522E+04  0.12636983697E+04  0.00000000000E+00 0.  1.
          5    1    4    4  501    0 -0.15623171689E+02  0.11010263995E+03  0.23496344819E+03  0.25998455570E+03  0.41800000000E+01 0. -1.
         -5    1    4    4    0  501 -0.31645394415E+02 -0.48250857075E+01  0.29173716150E+03  0.29351789765E+03  0.41800000000E+01 0. -1.
</event>
<event>
11    1  0.8453735E-009  0.1318951E+03  0.7561462E-02  0.1116962E+00
         22   -1    0    0    0    0  0.00000000000E+00  0.00000000000E+00  0.52858427933E+03  0.52858427933E+03  0.00000000000E+00 0.  1.
         22   -1    0    0    0    0 -0.00000000000E+00 -0.00000000000E+00 -0.15570756174E+03  0.15570756174E+03  0.00000000000E+00 0. -1.
        -24    2    1    2    0    0 -0.18047020095E+02  0.38977826194E+02 -0.98631015439E+02  0.13401752713E+03  0.79922803386E+02 0.  0.
         25    2    1    2    0    0 -0.15615318441E+02 -0.42563223846E+02  0.92562346809E+02  0.16208542760E+03  0.12509369128E+03 0.  0.
         24    2    1    2    0    0  0.33662338536E+02  0.35853976519E+01  0.37894538622E+03  0.38818888635E+03  0.77103810775E+02 0.  0.
        -13    1    5    5    0    0  0.57260750153E+02 -0.69015098123E+01  0.28380816097E+03  0.28960921356E+03  0.00000000000E+00 0.  1.
         14    1    5    5    0    0 -0.23598411617E+02  0.10486907464E+02  0.95137225256E+02  0.98579672795E+02  0.00000000000E+00 0. -1.
         13    1    3    3    0    0 -0.27606625872E+02  0.48921216091E+02 -0.29353327669E+02  0.63380036456E+02  0.00000000000E+00 0. -1.
        -14    1    3    3    0    0  0.95596057776E+01 -0.99433898972E+01 -0.69277687771E+02  0.70637490670E+02  0.00000000000E+00 0.  1.
          5    1    4    4  501    0  0.40745295934E+02 -0.54393235661E+02  0.75949087286E+02  0.10200264450E+03  0.41800000000E+01 0.  1.
         -5    1    4    4    0  501 -0.56360614375E+02  0.11830011815E+02  0.16613259523E+02  0.60082783093E+02  0.41800000000E+01 0.  1.
</event>
<event>
11    1  0.8453735E-009  0.1396530E+03  0.7561462E-02  0.1107946E+00
         22   -1    0    0    0    0  0.00000000000E+00  0.00000000000E+00  0.87457493729E+03  0.87457493729E+03  0.00000000000E+00 0.  1.
         22   -1    0    0    0    0 -0.00000000000E+00 -0.00000000000E+00 -0.38208171838E+03  0.38208171838E+03  0.00000000000E+00 0. -1.
         24    2    1    2    0    0  0.39043647774E+02  0.26921121857E+01 -0.34212172935E+03  0.35369535028E+03  0.80755614154E+02 0.  0.
         25    2    1    2    0    0 -0.86163898201E+02  0.31454302789E+02  0.17183395772E+03  0.23149078732E+03  0.12508990794E+03 0.  0.
        -24    2    1    2    0    0  0.47120250427E+02 -0.34146414975E+02  0.66278099053E+03  0.67147051807E+03  0.90596465580E+02 0.  0.
        -11    1    3    3    0    0  0.46268253221E+01  0.39002111427E+02 -0.16791323460E+03  0.17244543068E+03  0.00000000000E+00 0.  1.
         12    1    3    3    0    0  0.34416822452E+02 -0.36309999241E+02 -0.17420849475E+03  0.18124991961E+03  0.00000000000E+00 0. -1.
         13    1    5    5    0    0  0.40116288038E+01 -0.40518894898E+02  0.11567641725E+03  0.12263322355E+03  0.00000000000E+00 0. -1.
        -14    1    5    5    0    0  0.43108621624E+02  0.63724799235E+01  0.54710457328E+03  0.54883729453E+03  0.00000000000E+00 0.  1.
          5    1    4    4  501    0 -0.23501744639E+02  0.43960251315E+02  0.20860990623E+01  0.50066554766E+02  0.41800000000E+01 0.  1.
         -5    1    4    4    0  501 -0.62662153562E+02 -0.12505948526E+02  0.16974785866E+03  0.18142423255E+03  0.41800000000E+01 0.  1.
</event>
<event>
11    1  0.8453735E-009  0.1662283E+03  0.7561462E-02  0.1081361E+00
         22   -1    0    0    0    0  0.00000000000E+00  0.00000000000E+00  0.61800504776E+03  0.61800504776E+03  0.00000000000E+00 0.  1.
         22   -1    0    0    0    0 -0.00000000000E+00 -0.00000000000E+00 -0.22481715913E+03  0.22481715913E+03  0.00000000000E+00 0.  1.
        -24    2    1    2    0    0 -0.33882542029E+02  0.35352902754E+01 -0.16548601054E+03  0.18703976665E+03  0.80235464052E+02 0.  0.
         25    2    1    2    0    0  0.12266108082E+03 -0.54127071950E+02  0.18824739263E+03  0.26279193116E+03  0.12508811928E+03 0.  0.
         24    2    1    2    0    0 -0.88778538787E+02  0.50591781675E+02  0.37042650655E+03  0.39299050909E+03  0.82368599341E+02 0.  0.
        -11    1    5    5    0    0 -0.22881936037E+02  0.52693369535E+02  0.10708238383E+03  0.12151876857E+03  0.00000000000E+00 0.  1.
         12    1    5    5    0    0 -0.65896602750E+02 -0.21015878606E+01  0.26334412272E+03  0.27147174051E+03  0.00000000000E+00 0. -1.
         11    1    3    3    0    0  0.12971166662E+02  0.15479145200E+02 -0.70511913722E+01  0.21390988767E+02  0.00000000000E+00 0. -1.
        -12    1    3    3    0    0 -0.46853708691E+02 -0.11943854924E+02 -0.15843481917E+03  0.16564877788E+03  0.00000000000E+00 0.  1.
          5    1    4    4  501    0  0.63686403197E+02  0.37550674235E+02  0.82553690030E+02  0.11089903167E+03  0.41800000000E+01 0.  1.
         -5    1    4    4    0  501  0.58974677619E+02 -0.91677746185E+02  0.10569370260E+03  0.15189289949E+03  0.41800000000E+01 0.  1.
</event>
<event>
11    1  0.8453735E-009  0.1622188E+03  0.7561462E-02  0.1085009E+00
         22   -1    0    0    0    0  0.00000000000E+00  0.00000000000E+00  0.39815617621E+03  0.39815617621E+03  0.00000000000E+00 0.  1.
         22   -1    0    0    0    0 -0.00000000000E+00 -0.00000000000E+00 -0.13148239090E+04  0.13148239090E+04  0.00000000000E+00 0. -1.
         24    2    1    2    0    0  0.11506403714E+01 -0.39516750297E+02 -0.12428117433E+04  0.12460474466E+04  0.80562476119E+02 0.  0.
         25    2    1    2    0    0  0.87023258284E+02  0.84692071333E+02  0.85586393148E+02  0.19421523614E+03  0.12509489529E+03 0.  0.
        -24    2    1    2    0    0 -0.88173898655E+02 -0.45175321036E+02  0.24055761733E+03  0.27271740243E+03  0.81800784226E+02 0.  0.
        -13    1    3    3    0    0  0.88305621015E+01  0.22849935718E+02 -0.23349245986E+03  0.23477399175E+03  0.00000000000E+00 0.  1.
         14    1    3    3    0    0 -0.76799217300E+01 -0.62366686014E+02 -0.10093192834E+04  0.10112734549E+04  0.00000000000E+00 0. -1.
         11    1    5    5    0    0 -0.73978937185E+02  0.54941955455E+01  0.16184263408E+03  0.17803400669E+03  0.00000000000E+00 0. -1.
        -12    1    5    5    0    0 -0.14194961470E+02 -0.50669516582E+02  0.78714983248E+02  0.94683395744E+02  0.00000000000E+00 0.  1.
          5    1    4    4  501    0 -0.15618381212E+02  0.67621069748E+02  0.25947603751E+02  0.74211140983E+02  0.41800000000E+01 0.  1.
         -5    1    4    4    0  501  0.10264163950E+03  0.17071001585E+02  0.59638789397E+02  0.12000409516E+03  0.41800000000E+01 0.  1.
</event>
<event>
11    1  0.8453735E-009  0.2099351E+03  0.7561462E-02  0.1047712E+00
         22   -1    0    0    0    0  0.00000000000E+00  0.00000000000E+00  0.23246323844E+04  0.23246323844E+04  0.00000000000E+00 0. -1.
         22   -1    0    0    0    0 -0.00000000000E+00 -0.00000000000E+00 -0.35243695584E+03  0.35243695584E+03  0.00000000000E+00 0. -1.
        -24    2    1    2    0    0  0.89391905960E+02  0.54730778585E+02 -0.30513701060E+03  0.33154305053E+03  0.76327112758E+02 0.  0.
         25    2    1    2    0    0 -0.24098398593E+03 -0.76031643596E+01  0.59771831450E+03  0.65654188113E+03  0.12509583768E+03 0.  0.
         24    2    1    2    0    0  0.15159207997E+03 -0.47127614226E+02  0.16796141247E+04  0.16889844086E+04  0.79771886685E+02 0.  0.
        -13    1    5    5    0    0  0.44272392021E+01 -0.18241389512E+00  0.40776214178E+03  0.40778621604E+03  0.00000000000E+00 0.  1.
         14    1    5    5    0    0  0.14716484077E+03 -0.46945200330E+02  0.12718519829E+04  0.12811981925E+04  0.00000000000E+00 0. -1.
         11    1    3    3    0    0  0.88414431703E+02  0.59407437666E+02 -0.30805052662E+03  0.32594705449E+03  0.00000000000E+00 0. -1.
        -12    1    3    3    0    0  0.97747425687E+00 -0.46766590813E+01  0.29135160169E+01  0.55959960387E+01  0.00000000000E+00 0.  1.
          5    1    4    4  501    0 -0.16317273219E+03 -0.37771227269E+02  0.50332807842E+03  0.53047962550E+03  0.41800000000E+01 0. -1.
         -5    1    4    4    0  501 -0.77811253739E+02  0.30168062910E+02  0.94390236078E+02  0.12606225563E+03  0.41800000000E+01 0. -1.
</event>
<event>
11    1  0.8453735E-009  0.1760445E+03  0.7561462E-02  0.1072888E+00
         22   -1    0    0    0    0  0.00000000000E+00  0.00000000000E+00  0.35377995990E+03  0.35377995990E+03  0.00000000000E+00 0.  1.
         22   -1    0    0    0    0 -0.00000000000E+00 -0.00000000000E+00 -0.66056309842E+03  0.66056309842E+03  0.00000000000E+00 0. -1.
        -24    2    1    2    0    0 -0.67688357628E+02 -0.70185066954E+02 -0.50302802122E+03  0.51890942237E+03  0.81988664533E+02 0.  0.
         25    2    1    2    0    0  0.15367874166E+03 -0.18618745904E+02 -0.52685791650E+02  0.20588216118E+03  0.12509139985E+03 0.  0.
         24    2    1    2    0    0 -0.85990384027E+02  0.88803812857E+02  0.24893067435E+03  0.28955147476E+03  0.81197983866E+02 0.  0.
        -11    1    5    5    0    0 -0.81664383352E+02  0.91145319791E+02  0.25433356307E+03  0.28224475572E+03  0.00000000000E+00 0.  1.
         12    1    5    5    0    0 -0.43260006751E+01 -0.23415069339E+01 -0.54028887253E+01  0.73067190408E+01  0.00000000000E+00 0. -1.
         11    1    3    3    0    0 -0.17854558670E+02 -0.23401877975E+02 -0.35088430416E+03  0.35211678186E+03  0.00000000000E+00 0. -1.
        -12    1    3    3    0    0 -0.49833798958E+02 -0.46783188978E+02 -0.15214371706E+03  0.16679264051E+03  0.00000000000E+00 0.  1.
          5    1    4    4  501    0  0.35759319811E+02 -0.31821794850E+02  0.34010156979E+02  0.58868656843E+02  0.41800000000E+01 0. -1.
         -5    1    4    4    0  501  0.11791942184E+03  0.13203048946E+02 -0.86695948629E+02  0.14701350434E+03  0.41800000000E+01 0. -1.
</event>
<event>
11    1  0.8453735E-009  0.1955974E+03  0.7561462E-02  0.1057681E+00
         22   -1    0    0    0    0  0.00000000000E+00  0.00000000000E+00  0.33753468173E+03  0.33753468173E+03  0.00000000000E+00 0.  1.
         22   -1    0    0    0    0 -0.00000000000E+00 -0.00000000000E+00 -0.31646449103E+03  0.31646449103E+03  0.00000000000E+00 0.  1.
         24    2    1    2    0    0  0.62975593114E+02 -0.15108112652E+03 -0.19621179863E+03  0.26744722461E+03  0.78977945731E+02 0.  0.
         25    2    1    2    0    0 -0.46462892990E+02  0.10400182639E+03  0.23957213086E+02  0.17088856264E+03  0.12511503692E+03 0.  0.
        -24    2    1    2    0    0 -0.16512700124E+02  0.47079300126E+02  0.19332477624E+03  0.21566338551E+03  0.81529730628E+02 0.  0.
        -13    1    3    3    0    0  0.28450156216E+01 -0.22263524465E+02 -0.82219144373E+02  0.85227614873E+02  0.00000000000E+00 0.  1.
         14    1    3    3    0    0  0.60130577492E+02 -0.12881760205E+03 -0.11399265426E+03  0.18221960974E+03  0.00000000000E+00 0. -1.
         13    1    5    5    0    0 -0.32185535794E+02  0.19174677118E+02  0.26730681718E+02  0.46022888893E+02  0.00000000000E+00 0. -1.
        -14    1    5    5    0    0  0.15672835671E+02  0.27904623008E+02  0.16659409453E+03  0.16964049662E+03  0.00000000000E+00 0.  1.
          5    1    4    4  501    0  0.29405139659E+01  0.10830180839E+03  0.44302518651E+02  0.11712435221E+03  0.41800000000E+01 0.  1.
         -5    1    4    4    0  501 -0.49403406956E+02 -0.42999819947E+01 -0.20345305565E+02  0.53764210424E+02  0.41800000000E+01 0.  1.
</event>
<event>
11    1  0.8453735E-009  0.1793297E+03  0.7561462E-02  0.1070186E+00
         22   -1    0    0    0    0  0.00000000000E+00  0.00000000000E+00  0.32348150682E+03  0.32348150682E+03  0.00000000000E+00 0.  1.
         22   -1    0    0    0    0 -0.00000000000E+00 -0.00000000000E+00 -0.14859451951E+04  0.14859451951E+04  0.00000000000E+00 0.  1.
         24    2    1    2    0    0  0.12694974538E+03  0.22031283067E+02 -0.14234708973E+04  0.14317992224E+04  0.84723093690E+02 0.  0.
         25    2    1    2    0    0 -0.11510065954E+03 -0.15789096019E+02  0.98699947845E+02  0.19719641406E+03  0.12508912276E+03 0.  0.
        -24    2    1    2    0    0 -0.11849085839E+02 -0.62421870477E+01  0.16230726120E+03  0.18043106541E+03  0.77668247016E+02 0.  0.
        -13    1    3    3    0    0  0.46782360361E+02  0.41066159208E+02 -0.87054052828E+03  0.87276332992E+03  0.00000000000E+00 0.  1.
         14    1    3    3    0    0  0.80167385021E+02 -0.19034876141E+02 -0.55293036900E+03  0.55903589249E+03  0.00000000000E+00 0. -1.
         13    1    5    5    0    0 -0.11028937104E+02 -0.50467559229E+01 -0.49989573504E+01  0.13118565988E+02  0.00000000000E+00 0. -1.
        -14    1    5    5    0    0 -0.82014873538E+00 -0.11954311249E+01  0.16730621855E+03  0.16731249943E+03  0.00000000000E+00 0.  1.
          5    1    4    4  501    0 -0.20226825778E+02  0.40340347123E+02  0.69693634025E+02  0.83133285215E+02  0.41800000000E+01 0.  1.
         -5    1    4    4    0  501 -0.94873833764E+02 -0.56129443142E+02  0.29006313820E+02  0.11406312885E+03  0.41800000000E+01 0.  1.
</event>
<event>
11    1  0.8453735E-009  0.1570336E+03  0.7561462E-02  0.1089901E+00
         22   -1    0    0    0    0  0.00000000000E+00  0.00000000000E+00  0.24247311759E+03  0.24247311759E+03  0.00000000000E+00 0.  1.
         22   -1    0    0    0    0 -0.00000000000E+00 -0.00000000000E+00 -0.39991124285E+03  0.39991124285E+03  0.00000000000E+00 0.  1.
         24    2    1    2    0    0  0.62592527850E+02 -0.63278609598E+02 -0.25999287684E+03  0.28647628354E+03  0.80934282267E+02 0.  0.
         25    2    1    2    0    0 -0.14416648988E+03  0.96150884059E+02  0.10299091773E+03  0.23726663154E+03  0.12513734853E+03 0.  0.
        -24    2    1    2    0    0  0.81573962029E+02 -0.32872274460E+02 -0.43616615064E+00  0.11864144536E+03  0.79628541415E+02 0.  0.
        -11    1    3    3    0    0  0.59247399377E+02 -0.47085346651E+02 -0.25908999604E+03  0.26991648755E+03  0.00000000000E+00 0.  1.
         12    1    3    3    0    0  0.33451284727E+01 -0.16193262947E+02 -0.90288079747E+00  0.16559795986E+02  0.00000000000E+00 0. -1.
         13    1    5    5    0    0  0.50343348605E+02 -0.10317593181E+02 -0.38709438116E+02  0.64337594586E+02  0.00000000000E+00 0. -1.
        -14    1    5    5    0    0  0.31230613424E+02 -0.22554681279E+02  0.38273271965E+02  0.54303850778E+02  0.00000000000E+00 0.  1.
          5    1    4    4  501    0 -0.34422373017E+02  0.90865358075E+02  0.19459435450E+02  0.99184449842E+02  0.41800000000E+01 0. -1.
         -5    1    4    4    0  501 -0.10974411686E+03  0.52855259832E+01  0.83531482282E+02  0.13808218170E+03  0.41800000000E+01 0. -1.
</event>
<event>
11    1  0.8453735E-009  0.1450289E+03  0.7561462E-02  0.1102069E+00
         22   -1    0    0    0    0  0.00000000000E+00  0.00000000000E+00  0.11293378812E+03  0.11293378812E+03  0.00000000000E+00 0. -1.
         22   -1    0    0    0    0 -0.00000000000E+00 -0.00000000000E+00 -0.30351831005E+04  0.30351831005E+04  0.00000000000E+00 0. -1.
         24    2    1    2    0    0  0.32476885760E+02 -0.39853271622E+02 -0.26815828635E+04  0.26834525667E+04  0.85953433442E+02 0.  0.
         25    2    1    2    0    0  0.15776143254E+02  0.94052850371E+02 -0.30367491979E+03  0.34199636505E+03  0.12509289125E+03 0.  0.
        -24    2    1    2    0    0 -0.48253029013E+02 -0.54199578749E+02  0.63008470880E+02  0.12266795686E+03  0.76232611739E+02 0.  0.
        -11    1    3    3    0    0  0.48068343422E+02  0.54851116282E+01 -0.97889753875E+03  0.98009236476E+03  0.00000000000E+00 0.  1.
         12    1    3    3    0    0 -0.15591457663E+02 -0.45338383250E+02 -0.17026853247E+04  0.17033602020E+04  0.00000000000E+00 0. -1.
         11    1    5    5    0    0 -0.50414110588E+02 -0.27767511116E+01  0.16005276415E+02  0.52966609918E+02  0.00000000000E+00 0. -1.
        -12    1    5    5    0    0  0.21610815750E+01 -0.51422827637E+02  0.47003194466E+02  0.69701346944E+02  0.00000000000E+00 0.  1.
          5    1    4    4  501    0  0.26003880007E+02  0.21929938392E+02 -0.51174627680E+01  0.34652341890E+02  0.41800000000E+01 0. -1.
         -5    1    4    4    0  501 -0.10227736753E+02  0.72122911979E+02 -0.29855745702E+03  0.30734402316E+03  0.41800000000E+01 0. -1.
</event>
<event>
11    1  0.8453735E-009  0.1719621E+03  0.7561462E-02  0.1076337E+00
         22   -1    0    0    0    0  0.00000000000E+00  0.00000000000E+00  0.25170514053E+03  0.25170514053E+03  0.00000000000E+00 0. -1.
         22   -1    0    0    0    0 -0.00000000000E+00 -0.00000000000E+00 -0.25604762010E+04  0.25604762010E+04  0.00000000000E+00 0.  1.
        -24    2    1    2    0    0  0.23948817968E+02 -0.27179852164E+02 -0.24356118706E+04  0.24372177814E+04  0.80703404671E+02 0.  0.
         25    2    1    2    0    0 -0.31669973962E+02  0.13820078492E+03 -0.25317510353E+01  0.18912710239E+03  0.12514074834E+03 0.  0.
         24    2    1    2    0    0  0.77211559932E+01 -0.11102093275E+03  0.12937256115E+03  0.18583645775E+03  0.73570820934E+02 0.  0.
        -13    1    5    5    0    0  0.61721402721E+01 -0.61028845746E+02  0.18283380070E+02  0.64007009892E+02  0.00000000000E+00 0.  1.
         14    1    5    5    0    0  0.15490157211E+01 -0.49992087006E+02  0.11108918108E+03  0.12182944786E+03  0.00000000000E+00 0. -1.
         11    1    3    3    0    0 -0.20224925563E+02  0.16522335242E+02 -0.64704295969E+03  0.64756978532E+03  0.00000000000E+00 0. -1.
        -12    1    3    3    0    0  0.44173743532E+02 -0.43702187406E+02 -0.17885689109E+04  0.17896479960E+04  0.00000000000E+00 0.  1.
          5    1    4    4  501    0 -0.12479830177E+00  0.19710760579E+02 -0.52819689243E+02  0.56532482954E+02  0.41800000000E+01 0. -1.
         -5    1    4    4    0  501 -0.31545175660E+02  0.11849002434E+03  0.50287938208E+02  0.13259461944E+03  0.41800000000E+01 0. -1.
</event>
<event>
11    1  0.8453735E-009  0.1720653E+03  0.7561462E-02  0.1076248E+00
         22   -1    0    0    0    0  0.00000000000E+00  0.00000000000E+00  0.89917793941E+03  0.89917793941E+03  0.00000000000E+00 0. -1.
         22   -1    0    0    0    0 -0.00000000000E+00 -0.00000000000E+00 -0.44828208957E+03  0.44828208957E+03  0.00000000000E+00 0. -1.
         24    2    1    2    0    0 -0.62750797316E+02 -0.63953583724E+01 -0.40496815584E+03  0.41770183380E+03  0.80604289840E+02 0.  0.
         25    2    1    2    0    0  0.65733067775E+02  0.12182521637E+03  0.27658636519E+03  0.33362652227E+03  0.12507765351E+03 0.  0.
        -24    2    1    2    0    0 -0.29822704592E+01 -0.11542985800E+03  0.57927764049E+03  0.59613167292E+03  0.80482548575E+02 0.  0.
        -11    1    3    3    0    0  0.17109561231E+02 -0.42216770944E+01 -0.34763052725E+02  0.38974728707E+02  0.00000000000E+00 0.  1.
         12    1    3    3    0    0 -0.79860358547E+02 -0.21736812780E+01 -0.37020510312E+03  0.37872710509E+03  0.00000000000E+00 0. -1.
         13    1    5    5    0    0 -0.17732786335E+02 -0.11252339003E+03  0.56108193453E+03  0.57252851656E+03  0.00000000000E+00 0. -1.
        -14    1    5    5    0    0  0.14750515876E+02 -0.29064679676E+01  0.18195705963E+02  0.23603156360E+02  0.00000000000E+00 0.  1.
          5    1    4    4  501    0  0.52985740659E+01 -0.20306069919E+02  0.84220999752E+02  0.86896838619E+02  0.41800000000E+01 0.  1.
         -5    1    4    4    0  501  0.60434493709E+02  0.14213128629E+03  0.19236536544E+03  0.24672968365E+03  0.41800000000E+01 0.  1.
</event>
<event>
11    1  0.8453735E-009  0.1618658E+03  0.7561462E-02  0.1085335E+00
         22   -1    0    0    0    0  0.00000000000E+00  0.00000000000E+00  0.33653109224E+03  0.33653109224E+03  0.00000000000E+00 0.  1.
         22   -1    0    0    0    0 -0.00000000000E+00 -0.00000000000E+00 -0.23676832726E+03  0.23676832726E+03  0.00000000000E+00 0. -1.
         24    2    1    2    0    0  0.74661568564E+02  0.66374996631E+02 -0.13102225998E+03  0.18349203655E+03  0.80762026156E+02 0.  0.
         25    2    1    2    0    0 -0.12054582183E+03 -0.33849622251E+02  0.49021385436E+02  0.18365009131E+03  0.12508863946E+03 0.  0.
        -24    2    1    2    0    0  0.45884253262E+02 -0.32525374380E+02  0.18176363952E+03  0.20615729164E+03  0.79369664032E+02 0.  0.
        -11    1    3    3    0    0  0.71552890632E+01  0.61643603463E+01  0.11380066809E+02  0.14788624704E+02  0.00000000000E+00 0.  1.
         12    1    3    3    0    0  0.67506279501E+02  0.60210636285E+02 -0.14240232679E+03  0.16870341184E+03  0.00000000000E+00 0. -1.
         13    1    5    5    0    0  0.10709900699E+02 -0.50365422410E+02  0.65069233079E+02  0.82978207024E+02  0.00000000000E+00 0. -1.
        -14    1    5    5    0    0  0.35174352563E+02  0.17840048029E+02  0.11669440644E+03  0.12317908462E+03  0.00000000000E+00 0.  1.
          5    1    4    4  501    0  0.26267857174E+02 -0.53713365787E+01  0.11043020791E+02  0.29296284497E+02  0.41800000000E+01 0. -1.
         -5    1    4    4    0  501 -0.14681367900E+03 -0.28478285672E+02  0.37978364645E+02  0.15435380681E+03  0.41800000000E+01 0. -1.
</event>
<event>
11    1  0.8453735E-009  0.1929935E+03  0.7561462E-02  0.1059592E+00
         22   -1    0    0    0    0  0.00000000000E+00  0.00000000000E+00  0.11540166213E+03  0.11540166213E+03  0.00000000000E+00 0. -1.
         22   -1    0    0    0    0 -0.00000000000E+00 -0.00000000000E+00 -0.11561718079E+04  0.11561718079E+04  0.00000000000E+00 0. -1.
        -24    2    1    2    0    0 -0.14250489314E+03  0.13227091369E+02 -0.85101755389E+03  0.86635677568E+03  0.76554459134E+02 0.  0.
         25    2    1    2    0    0  0.18136232796E+03  0.67520879646E+02 -0.16171496382E+03  0.28151181235E+03  0.12508320342E+03 0.  0.
         24    2    1    2    0    0 -0.38857434812E+02 -0.80747971015E+02 -0.28037628013E+02  0.12370488195E+03  0.80539767639E+02 0.  0.
        -13    1    5    5    0    0 -0.18010480284E+01 -0.83271533551E+02 -0.21071145563E+02  0.85914988502E+02  0.00000000000E+00 0.  1.
         14    1    5    5    0    0 -0.37056386783E+02  0.25235625364E+01 -0.69664824494E+01  0.37789893451E+02  0.00000000000E+00 0. -1.
         13    1    3    3    0    0 -0.14726512904E+03  0.52771518216E+01 -0.71518311116E+03  0.73020664818E+03  0.00000000000E+00 0. -1.
        -14    1    3    3    0    0  0.47602358909E+01  0.79499395478E+01 -0.13583444273E+03  0.13615012750E+03  0.00000000000E+00 0.  1.
          5    1    4    4  501    0  0.31019180492E+02  0.47431703654E+02 -0.10524535599E+03  0.11960774819E+03  0.41800000000E+01 0.  1.
         -5    1    4    4    0  501  0.15034314746E+03  0.20089175992E+02 -0.56469607831E+02  0.16190406416E+03  0.41800000000E+01 0.  1.
</event>
<event>
11    1  0.8453735E-009  0.1633166E+03  0.7561462E-02  0.1083999E+00
         22   -1    0    0    0    0  0.00000000000E+00  0.00000000000E+00  0.11539297601E+04  0.11539297601E+04  0.00000000000E+00 0. -1.
         22   -1    0    0    0    0 -0.00000000000E+00 -0.00000000000E+00 -0.23237813239E+03  0.23237813239E+03  0.00000000000E+00 0.  1.
         24    2    1    2    0    0 -0.56031033079E+02 -0.36673075069E+02 -0.18131305834E+03  0.20953381810E+03  0.80904911469E+02 0.  0.
         25    2    1    2    0    0  0.14672622237E+03  0.72067423066E+02  0.29173931753E+03  0.35704662058E+03  0.12509261402E+03 0.  0.
        -24    2    1    2    0    0 -0.90695189291E+02 -0.35394347997E+02  0.81112536855E+03  0.81972745384E+03  0.67456340190E+02 0.  0.
        -13    1    3    3    0    0 -0.11633514847E+02 -0.66959100551E+01 -0.14310689996E+03  0.14373502947E+03  0.00000000000E+00 0.  1.
         14    1    3    3    0    0 -0.44397518232E+02 -0.29977165014E+02 -0.38206158377E+02  0.65798788631E+02  0.00000000000E+00 0. -1.
         13    1    5    5    0    0 -0.89058669318E+02 -0.43932932404E+02  0.79684307977E+03  0.80300712506E+03  0.00000000000E+00 0. -1.
        -14    1    5    5    0    0 -0.16365199731E+01  0.85385844068E+01  0.14282288785E+02  0.16720328772E+02  0.00000000000E+00 0.  1.
          5    1    4    4  501    0  0.15864490311E+03  0.91100788248E+02  0.25831328854E+03  0.31656087304E+03  0.41800000000E+01 0. -1.
         -5    1    4    4    0  501 -0.11918680738E+02 -0.19033365182E+02  0.33426028986E+02  0.40485747547E+02  0.41800000000E+01 0. -1.
</event>
<event>
11    1  0.8453735E-009  0.1478570E+03  0.7561462E-02  0.1099089E+00
         22   -1    0    0    0    0  0.00000000000E+00  0.00000000000E+00  0.40437004791E+03  0.40437004791E+03  0.00000000000E+00 0. -1.
         22   -1    0    0    0    0 -0.00000000000E+00 -0.00000000000E+00 -0.10643623407E+04  0.10643623407E+04  0.00000000000E+00 0.  1.
        -24    2    1    2    0    0  0.34469498031E+02 -0.16541390098E+02 -0.10030235501E+04  0.10070126182E+04  0.80971644157E+02 0.  0.
         25    2    1    2    0    0  0.46739399866E+02 -0.12335995207E+02  0.46161359532E+02  0.14183272438E+03  0.12509557272E+03 0.  0.
         24    2    1    2    0    0 -0.81208897896E+02  0.28877385305E+02  0.29686989780E+03  0.31988704607E+03  0.82262977967E+02 0.  0.
        -13    1    5    5    0    0  0.13228652925E+02  0.40779507575E+00  0.10160254981E+02  0.16685153170E+02  0.00000000000E+00 0.  1.
         14    1    5    5    0    0 -0.94437550821E+02  0.28469590229E+02  0.28670964282E+03  0.30320189290E+03  0.00000000000E+00 0. -1.
         13    1    3    3    0    0 -0.19369807643E+02 -0.32392909307E+00 -0.81325532198E+02  0.83601056007E+02  0.00000000000E+00 0. -1.
        -14    1    3    3    0    0  0.53839305673E+02 -0.16217461005E+02 -0.92169801793E+03  0.92341156216E+03  0.00000000000E+00 0.  1.
          5    1    4    4  501    0  0.47035387871E+02 -0.22932312459E+02 -0.32901334159E+02  0.61953118213E+02  0.41800000000E+01 0. -1.
         -5    1    4    4    0  501 -0.29598800503E+00  0.10596317252E+02  0.79062693691E+02  0.79879606170E+02  0.41800000000E+01 0. -1.
</event>
<event>
11    1  0.8453735E-009  0.2405097E+03  0.7561462E-02  0.1029080E+00
         22   -1    0    0    0    0  0.00000000000E+00  0.00000000000E+00  0.64613088166E+03  0.64613088166E+03  0.00000000000E+00 0.  1.
         22   -1    0    0    0    0 -0.00000000000E+00 -0.00000000000E+00 -0.43423889037E+03  0.43423889037E+03  0.00000000000E+00 0.  1.
        -24    2    1    2    0    0  0.14783255856E+03 -0.14023877392E+03 -0.35121815064E+03  0.41441118325E+03  0.82831518066E+02 0.  0.
         25    2    1    2    0    0 -0.16706238413E+03  0.15102714303E+03  0.33333288912E+03  0.42128058676E+03  0.12508988642E+03 0.  0.
         24    2    1    2    0    0  0.19229825572E+02 -0.10788369116E+02  0.22977725281E+03  0.24467800202E+03  0.81139162330E+02 0.  0.
        -13    1    5    5    0    0  0.17480699733E+02  0.82928592192E+01  0.22375891394E+03  0.22459385109E+03  0.00000000000E+00 0.  1.
         14    1    5    5    0    0  0.17491258392E+01 -0.19081228335E+02  0.60183388681E+01  0.20084150934E+02  0.00000000000E+00 0. -1.
         11    1    3    3    0    0  0.48452669634E+02 -0.75451015266E+02 -0.21969282166E+03  0.23728770045E+03  0.00000000000E+00 0. -1.
        -12    1    3    3    0    0  0.99379888927E+02 -0.64787758651E+02 -0.13152532898E+03  0.17712348279E+03  0.00000000000E+00 0.  1.
          5    1    4    4  501    0 -0.15779838358E+03  0.13277690386E+03  0.20343039012E+03  0.28970921988E+03  0.41800000000E+01 0.  1.
         -5    1    4    4    0  501 -0.92640005562E+01  0.18250239174E+02  0.12990249900E+03  0.13157136688E+03  0.41800000000E+01 0.  1.
</event>
<event>
11    1  0.8453735E-009  0.1339170E+03  0.7561462E-02  0.1114548E+00
         22   -1    0    0    0    0  0.00000000000E+00  0.00000000000E+00  0.25436298755E+04  0.25436298755E+04  0.00000000000E+00 0. -1.
         22   -1    0    0    0    0 -0.00000000000E+00 -0.00000000000E+00 -0.20146290734E+03  0.20146290734E+03  0.00000000000E+00 0.  1.
        -24    2    1    2    0    0  0.24985228133E+02  0.42921403101E+02 -0.15743498444E+03  0.18397787849E+03  0.81213157666E+02 0.  0.
         25    2    1    2    0    0  0.91096390923E+01 -0.37300419822E+02  0.11297364635E+03  0.17286341315E+03  0.12507760788E+03 0.  0.
         24    2    1    2    0    0 -0.34094867225E+02 -0.56209832795E+01  0.23866283062E+04  0.23882514912E+04  0.80971955827E+02 0.  0.
        -13    1    5    5    0    0 -0.25062335506E+02 -0.30822628479E+02  0.55190906441E+03  0.55333694117E+03  0.00000000000E+00 0.  1.
         14    1    5    5    0    0 -0.90325317192E+01  0.25201645200E+02  0.18347192418E+04  0.18349145500E+04  0.00000000000E+00 0. -1.
         11    1    3    3    0    0 -0.29968074415E+02  0.14977353185E+02 -0.58079230040E+02  0.67049262149E+02  0.00000000000E+00 0. -1.
        -12    1    3    3    0    0  0.54953302548E+02  0.27944049917E+02 -0.99355754398E+02  0.11692861634E+03  0.00000000000E+00 0.  1.
          5    1    4    4  501    0 -0.37875181693E+02  0.21547009176E+02  0.94551819209E+01  0.44784772611E+02  0.41800000000E+01 0. -1.
         -5    1    4    4    0  501  0.46984820785E+02 -0.58847428998E+02  0.10351846443E+03  0.12807864054E+03  0.41800000000E+01 0. -1.
</event>
<event>
11    1  0.1061095E-008  0.2245346E+03  0.7561462E-02  0.1038414E+00
         22   -1    0    0    0    0  0.00000000000E+00  0.00000000000E+00  0.29591238453E+03  0.29591238453E+03  0.00000000000E+00 0.  1.
         22   -1    0    0    0    0 -0.00000000000E+00 -0.00000000000E+00 -0.11330851232E+04  0.11330851232E+04  0.00000000000E+00 0. -1.
        -24    2    1    2    0    0 -0.12135925958E+02  0.38249970473E+02 -0.62758971517E+03  0.63321935587E+03  0.74078074557E+02 0.  0.
         25    2    1    2    0    0  0.19686657664E+03 -0.18124956693E+02 -0.43433639256E+03  0.49333688543E+03  0.12509283584E+03 0.  0.
         24    2    1    2    0    0 -0.18473065068E+03 -0.20125013781E+02  0.22475336902E+03  0.30244126646E+03  0.80163665683E+02 0.  0.
        -13    1    5    5    0    0 -0.17929715201E+03 -0.58334074509E+01  0.22420741844E+03  0.28714188800E+03  0.00000000000E+00 0.  1.
         14    1    5    5    0    0 -0.54334986644E+01 -0.14291606330E+02  0.54595057687E+00  0.15299378460E+02  0.00000000000E+00 0. -1.
         11    1    3    3    0    0 -0.24588304806E+02  0.56009672401E+02 -0.50900287563E+03  0.51266518853E+03  0.00000000000E+00 0. -1.
        -12    1    3    3    0    0  0.12452378848E+02 -0.17759701928E+02 -0.11858683954E+03  0.12055416734E+03  0.00000000000E+00 0.  1.
          5    1    4    4  501    0  0.18378143258E+03 -0.56107422519E+02 -0.37747934895E+03  0.42359389644E+03  0.41800000000E+01 0.  1.
         -5    1    4    4    0  501  0.13085144053E+02  0.37982465827E+02 -0.56857043609E+02  0.69742988989E+02  0.41800000000E+01 0.  1.
</event>
<event>
11    1  0.8453735E-009  0.1895055E+03  0.7561462E-02  0.1062203E+00
         22   -1    0    0    0    0  0.00000000000E+00  0.00000000000E+00  0.60065014404E+03  0.60065014404E+03  0.00000000000E+00 0. -1.
         22   -1    0    0    0    0 -0.00000000000E+00 -0.00000000000E+00 -0.65637265467E+03  0.65637265467E+03  0.00000000000E+00 0. -1.
         24    2    1    2    0    0  0.20799423626E+00  0.48306946079E+02 -0.59280967856E+03  0.59912002783E+03  0.72026998092E+02 0.  0.
         25    2    1    2    0    0 -0.13199511547E+03 -0.87770981272E+02  0.19621551236E+03  0.28156260426E+03  0.12510202702E+03 0.  0.
        -24    2    1    2    0    0  0.13178712123E+03  0.39464035193E+02  0.34087165557E+03  0.37634016663E+03  0.80704275280E+02 0.  0.
        -13    1    3    3    0    0  0.14093777761E+02  0.60058511859E+01 -0.23378610668E+02  0.27951104751E+02  0.00000000000E+00 0.  1.
         14    1    3    3    0    0 -0.13885783524E+02  0.42301094893E+02 -0.56943106789E+03  0.57116892308E+03  0.00000000000E+00 0. -1.
         11    1    5    5    0    0  0.94622960561E+02  0.64649741684E+02  0.24527239463E+03  0.27072429026E+03  0.00000000000E+00 0. -1.
        -12    1    5    5    0    0  0.37164160671E+02 -0.25185706491E+02  0.95599260938E+02  0.10561587637E+03  0.00000000000E+00 0.  1.
          5    1    4    4  501    0 -0.49907595542E+02 -0.53710212023E+02  0.86245424453E+01  0.73941937361E+02  0.41800000000E+01 0.  1.
         -5    1    4    4    0  501 -0.82087519925E+02 -0.34060769249E+02  0.18759096991E+03  0.20762066690E+03  0.41800000000E+01 0.  1.
</event>
<event>
11    1  0.8453735E-009  0.3902798E+03  0.7561462E-02  0.9678881E-01
         22   -1    0    0    0    0  0.00000000000E+00  0.00000000000E+00  0.23178605338E+04  0.23178605338E+04  0.00000000000E+00 0.  1.
         22   -1    0    0    0    0 -0.00000000000E+00 -0.00000000000E+00 -0.16588147082E+03  0.16588147082E+03  0.00000000000E+00 0.  1.
        -24    2    1    2    0    0  0.38744820794E+01  0.13401113457E+02 -0.51963258218E+00  0.82082992153E+02  0.80887243305E+02 0.  0.
         25    2    1    2    0    0 -0.20124734442E+03  0.30083007585E+03  0.24011229398E+03  0.45199671927E+03  0.12509153583E+03 0.  0.
         24    2    1    2    0    0  0.19737286234E+03 -0.31423118931E+03  0.19123864016E+04  0.19496622932E+04  0.79145571148E+02 0.  0.
        -13    1    5    5    0    0  0.19609192789E+03 -0.26247871086E+03  0.16453823816E+04  0.16776859955E+04  0.00000000000E+00 0.  1.
         14    1    5    5    0    0  0.12809344535E+01 -0.51752478450E+02  0.26700402003E+03  0.27197629774E+03  0.00000000000E+00 0. -1.
         11    1    3    3    0    0  0.24245392646E+02  0.32179141112E+02 -0.23009961281E+02  0.46398216619E+02  0.00000000000E+00 0. -1.
        -12    1    3    3    0    0 -0.20370910567E+02 -0.18778027655E+02  0.22490328699E+02  0.35684775534E+02  0.00000000000E+00 0.  1.
          5    1    4    4  501    0 -0.19688571824E+03  0.30388689044E+03  0.20475449019E+03  0.41599651667E+03  0.41800000000E+01 0.  1.
         -5    1    4    4    0  501 -0.43616261862E+01 -0.30568145920E+01  0.35357803787E+02  0.36000202598E+02  0.41800000000E+01 0.  1.
</event>
<event>
11    1  0.8453735E-009  0.1592851E+03  0.7561462E-02  0.1087752E+00
         22   -1    0    0    0    0  0.00000000000E+00  0.00000000000E+00  0.49116709430E+03  0.49116709430E+03  0.00000000000E+00 0.  1.
         22   -1    0    0    0    0 -0.00000000000E+00 -0.00000000000E+00 -0.40522905560E+03  0.40522905560E+03  0.00000000000E+00 0. -1.
        -24    2    1    2    0    0 -0.33720262081E+02  0.68037317668E+02 -0.24330903906E+03  0.26692120074E+03  0.79255954031E+02 0.  0.
         25    2    1    2    0    0  0.38050348653E+02 -0.16219958451E+03 -0.63514925283E+02  0.21777909789E+03  0.12504821268E+03 0.  0.
         24    2    1    2    0    0 -0.43300865723E+01  0.94162266842E+02  0.39276200304E+03  0.41169585128E+03  0.79663045268E+02 0.  0.
        -13    1    5    5    0    0  0.26961974257E+02  0.86937214140E+02  0.30204661733E+03  0.31546344685E+03  0.00000000000E+00 0.  1.
         14    1    5    5    0    0 -0.31292060829E+02  0.72250527021E+01  0.90715385707E+02  0.96232404425E+02  0.00000000000E+00 0. -1.
         11    1    3    3    0    0 -0.24650481370E+02  0.78790227907E+02 -0.13900101281E+03  0.16166888324E+03  0.00000000000E+00 0. -1.
        -12    1    3    3    0    0 -0.90697807101E+01 -0.10752910239E+02 -0.10430802624E+03  0.10525231750E+03  0.00000000000E+00 0.  1.
          5    1    4    4  501    0 -0.44250818800E+02 -0.36238074384E+02 -0.11256882958E+02  0.58442474395E+02  0.41800000000E+01 0. -1.
         -5    1    4    4    0  501  0.82301167453E+02 -0.12596151013E+03 -0.52258042325E+02  0.15933662349E+03  0.41800000000E+01 0. -1.
</event>
<event>
11    1  0.8453735E-009  0.1402095E+03  0.7561462E-02  0.1107325E+00
         22   -1    0    0    0    0  0.00000000000E+00  0.00000000000E+00  0.28450891115E+03  0.28450891115E+03  0.00000000000E+00 0. -1.
         22   -1    0    0    0    0 -0.00000000000E+00 -0.00000000000E+00 -0.64729834800E+03  0.64729834800E+03  0.00000000000E+00 0.  1.
        -24    2    1    2    0    0 -0.43481541386E+02 -0.36510499210E+02 -0.50836792751E+03  0.51786761596E+03  0.80779062572E+02 0.  0.
         25    2    1    2    0    0 -0.21870087823E+02  0.48157286671E+02 -0.84871262300E+02  0.16015201700E+03  0.12509241537E+03 0.  0.
         24    2    1    2    0    0  0.65351629209E+02 -0.11646787461E+02  0.23044975296E+03  0.25378762619E+03  0.83033652624E+02 0.  0.
        -11    1    5    5    0    0  0.40457102078E+02  0.48338732230E+01  0.28693428684E+02  0.49834288282E+02  0.00000000000E+00 0.  1.
         12    1    5    5    0    0  0.24894527131E+02 -0.16480660684E+02  0.20175632428E+03  0.20395333791E+03  0.00000000000E+00 0. -1.
         13    1    3    3    0    0  0.22942958254E+02 -0.57927660606E+01 -0.17276608578E+03  0.17437905800E+03  0.00000000000E+00 0. -1.
        -14    1    3    3    0    0 -0.66424499640E+02 -0.30717733149E+02 -0.33560184172E+03  0.34348855796E+03  0.00000000000E+00 0.  1.
          5    1    4    4  501    0 -0.24723098985E+02 -0.33518011631E+02 -0.62666823645E+02  0.75361076910E+02  0.41800000000E+01 0.  1.
         -5    1    4    4    0  501  0.28530111628E+01  0.81675298302E+02 -0.22204438654E+02  0.84790940090E+02  0.41800000000E+01 0.  1.
</event>
<event>
11    1  0.8453735E-009  0.1453903E+03  0.7561462E-02  0.1101684E+00
         22   -1    0    0    0    0  0.00000000000E+00  0.00000000000E+00  0.43566142194E+03  0.43566142194E+03  0.00000000000E+00 0.  1.
         22   -1    0    0    0    0 -0.00000000000E+00 -0.00000000000E+00 -0.34036601794E+03  0.34036601794E+03  0.00000000000E+00 0. -1.
        -24    2    1    2    0    0 -0.22223836955E+02  0.68107542899E+02 -0.26337457130E+03  0.28479508403E+03  0.81299069802E+02 0.  0.
         25    2    1    2    0    0  0.34909890545E+02 -0.91893742303E+02  0.43750788750E+02  0.16499326098E+03  0.12508191044E+03 0.  0.
         24    2    1    2    0    0 -0.12686053590E+02  0.23786199404E+02  0.31491918655E+03  0.32623909488E+03  0.80815430020E+02 0.  0.
        -11    1    5    5    0    0 -0.30355782755E+02  0.47005466976E+02  0.20111342354E+03  0.20875247687E+03  0.00000000000E+00 0.  1.
         12    1    5    5    0    0  0.17669729165E+02 -0.23219267571E+02  0.11380576302E+03  0.11748661801E+03  0.00000000000E+00 0. -1.
         13    1    3    3    0    0 -0.24178548547E+01  0.39546234837E+02 -0.23919729064E+03  0.24245637662E+03  0.00000000000E+00 0. -1.
        -14    1    3    3    0    0 -0.19805982100E+02  0.28561308062E+02 -0.24177280656E+02  0.42338707409E+02  0.00000000000E+00 0.  1.
          5    1    4    4  501    0  0.15765761463E+02 -0.84499730930E+02  0.83597150326E+02  0.11997799675E+03  0.41800000000E+01 0. -1.
         -5    1    4    4    0  501  0.19144129082E+02 -0.73940113734E+01 -0.39846361576E+02  0.45015264226E+02  0.41800000000E+01 0. -1.
</event>
<event>
11    1  0.8643170E-009  0.2057229E+03  0.7561462E-02  0.1050549E+00
         22   -1    0    0    0    0  0.00000000000E+00  0.00000000000E+00  0.21637575757E+04  0.21637575757E+04  0.00000000000E+00 0. -1.
         22   -1    0    0    0    0 -0.00000000000E+00 -0.00000000000E+00 -0.38673007359E+03  0.38673007359E+03  0.00000000000E+00 0. -1.
        -24    2    1    2    0    0  0.24914772664E+01 -0.46899284597E+02 -0.25405985517E+03  0.27109301440E+03  0.82093008788E+02 0.  0.
         25    2    1    2    0    0  0.15056947170E+03 -0.11803077793E+02 -0.40131951229E+02  0.20017268658E+03  0.12509217597E+03 0.  0.
         24    2    1    2    0    0 -0.15306094897E+03  0.58702362390E+02  0.20712193085E+04  0.20792219483E+04  0.79629548406E+02 0.  0.
        -13    1    5    5    0    0 -0.31041757627E+01 -0.57943140131E+01  0.13272135728E+02  0.14810792309E+02  0.00000000000E+00 0.  1.
         14    1    5    5    0    0 -0.14995677320E+03  0.64496676403E+02  0.20579471728E+04  0.20644111560E+04  0.00000000000E+00 0. -1.
         11    1    3    3    0    0 -0.11961140409E+02  0.60359634659E+01 -0.17112401109E+03  0.17164768832E+03  0.00000000000E+00 0. -1.
        -12    1    3    3    0    0  0.14452617675E+02 -0.52935248063E+02 -0.82935844080E+02  0.99445326077E+02  0.00000000000E+00 0.  1.
          5    1    4    4  501    0  0.22904921837E+02  0.32958249149E+02 -0.50249135287E+02  0.64446331381E+02  0.41800000000E+01 0. -1.
         -5    1    4    4    0  501  0.12766454986E+03 -0.44761326942E+02  0.10117184058E+02  0.13572635520E+03  0.41800000000E+01 0. -1.
</event>
<event>
11    1  0.8453735E-009  0.1433708E+03  0.7561462E-02  0.1103852E+00
         22   -1    0    0    0    0  0.00000000000E+00  0.00000000000E+00  0.23525558632E+04  0.23525558632E+04  0.00000000000E+00 0.  1.
         22   -1    0    0    0    0 -0.00000000000E+00 -0.00000000000E+00 -0.19512010086E+03  0.19512010086E+03  0.00000000000E+00 0. -1.
         24    2    1    2    0    0 -0.64463534864E+02 -0.38559450829E+02 -0.16696896654E+03  0.20019681629E+03  0.80979941279E+02 0.  0.
         25    2    1    2    0    0  0.34947921444E+01 -0.14250330833E+02  0.39156998600E+03  0.41132744020E+03  0.12509166089E+03 0.  0.
        -24    2    1    2    0    0  0.60968742719E+02  0.52809781662E+02  0.19328347429E+04  0.19361517076E+04  0.79543892449E+02 0.  0.
        -11    1    3    3    0    0 -0.89058974652E+01  0.11610190634E+02 -0.95788423180E+02  0.96899605528E+02  0.00000000000E+00 0.  1.
         12    1    3    3    0    0 -0.55557637399E+02 -0.50169641464E+02 -0.71180543358E+02  0.10329721076E+03  0.00000000000E+00 0. -1.
         13    1    5    5    0    0  0.54783043748E+02 -0.15559643184E+01  0.12145710656E+04  0.12158069240E+04  0.00000000000E+00 0. -1.
        -14    1    5    5    0    0  0.61856989712E+01  0.54365745981E+02  0.71826367730E+03  0.72034478365E+03  0.00000000000E+00 0.  1.
          5    1    4    4  501    0 -0.55585233173E+02  0.29878640910E+01  0.11333530397E+03  0.12633688695E+03  0.41800000000E+01 0.  1.
         -5    1    4    4    0  501  0.59080025317E+02 -0.17238194924E+02  0.27823468203E+03  0.28499055325E+03  0.41800000000E+01 0.  1.
</event>
<event>
11    1  0.8453735E-009  0.1437141E+03  0.7561462E-02  0.1103480E+00
         22   -1    0    0    0    0  0.00000000000E+00  0.00000000000E+00  0.16597416848E+03  0.16597416848E+03  0.00000000000E+00 0. -1.
         22   -1    0    0    0    0 -0.00000000000E+00 -0.00000000000E+00 -0.15160740826E+04  0.15160740826E+04  0.00000000000E+00 0. -1.
        -24    2    1    2    0    0 -0.34576861315E+02  0.15984500804E+02 -0.12393387195E+04  0.12426526000E+04  0.82304064410E+02 0.  0.
         25    2    1    2    0    0  0.92385909646E+02  0.22067408342E+02 -0.23022208216E+03  0.27869628286E+03  0.12508910485E+03 0.  0.
         24    2    1    2    0    0 -0.57809048331E+02 -0.38051909145E+02  0.11946088755E+03  0.16069936822E+03  0.82240801507E+02 0.  0.
        -13    1    5    5    0    0 -0.70620644450E+02 -0.11337531586E+02  0.56615162586E+02  0.91220017977E+02  0.00000000000E+00 0.  1.
         14    1    5    5    0    0  0.12811596119E+02 -0.26714377560E+02  0.62845724966E+02  0.69479350242E+02  0.00000000000E+00 0. -1.
         11    1    3    3    0    0  0.93506107462E+01  0.88052269719E+01 -0.93384737280E+03  0.93393569459E+03  0.00000000000E+00 0. -1.
        -12    1    3    3    0    0 -0.43927472061E+02  0.71792738318E+01 -0.30549134669E+03  0.30871690539E+03  0.00000000000E+00 0.  1.
          5    1    4    4  501    0  0.16150772765E+02  0.31943916146E+02 -0.18693152819E+03  0.19037365855E+03  0.41800000000E+01 0. -1.
         -5    1    4    4    0  501  0.76235136881E+02 -0.98765078049E+01 -0.43290553977E+02  0.88322624312E+02  0.41800000000E+01 0. -1.
</event>
<event>
11    1  0.8453735E-009  0.3163500E+03  0.7561462E-02  0.9934995E-01
         22   -1    0    0    0    0  0.00000000000E+00  0.00000000000E+00  0.16881741459E+03  0.16881741459E+03  0.00000000000E+00 0. -1.
         22   -1    0    0    0    0 -0.00000000000E+00 -0.00000000000E+00 -0.14150503552E+04  0.14150503552E+04  0.00000000000E+00 0. -1.
        -24    2    1    2    0    0 -0.18725967538E+03  0.22475348296E+03 -0.99285977746E+03  0.10381494211E+04  0.80021051612E+02 0.  0.
         25    2    1    2    0    0  0.17290849085E+03 -0.22678281548E+03 -0.31459410183E+03  0.44265767142E+03  0.12509425870E+03 0.  0.
         24    2    1    2    0    0  0.14351184530E+02  0.20293325167E+01  0.61220938719E+02  0.10306067722E+03  0.81629805606E+02 0.  0.
        -13    1    5    5    0    0  0.38570855145E+02  0.73613208579E+01  0.25336766226E+01  0.39348690304E+02  0.00000000000E+00 0.  1.
         14    1    5    5    0    0 -0.24219670615E+02 -0.53319883413E+01  0.58687262096E+02  0.63711986915E+02  0.00000000000E+00 0. -1.
         13    1    3    3    0    0 -0.16405725118E+03  0.22463304941E+03 -0.94271024863E+03  0.98289236512E+03  0.00000000000E+00 0. -1.
        -14    1    3    3    0    0 -0.23202424199E+02  0.12043355945E+00 -0.50149528836E+02  0.55257055979E+02  0.00000000000E+00 0.  1.
          5    1    4    4  501    0 -0.12952024541E+02 -0.22790183938E+02 -0.34907763921E+01  0.26773220640E+02  0.41800000000E+01 0. -1.
         -5    1    4    4    0  501  0.18586051539E+03 -0.20399263154E+03 -0.31110332544E+03  0.41588445078E+03  0.41800000000E+01 0. -1.
</event>
<event>
11    1  0.8453735E-009  0.1356854E+03  0.7561462E-02  0.1112474E+00
         22   -1    0    0    0    0  0.00000000000E+00  0.00000000000E+00  0.30304822935E+03  0.30304822935E+03  0.00000000000E+00 0.  1.
         22   -1    0    0    0    0 -0.00000000000E+00 -0.00000000000E+00 -0.58117735542E+03  0.58117735542E+03  0.00000000000E+00 0. -1.
         24    2    1    2    0    0  0.40856225736E+02 -0.12957373161E+02 -0.30918300876E+03  0.32214660670E+03  0.79669182271E+02 0.  0.
         25    2    1    2    0    0 -0.72326631401E+02  0.53676517306E+02 -0.23442883232E+03  0.28057113299E+03  0.12510384936E+03 0.  0.
        -24    2    1    2    0    0  0.31470405665E+02 -0.40719144145E+02  0.26548271501E+03  0.28150784507E+03  0.78212273552E+02 0.  0.
        -11    1    3    3    0    0  0.35214943449E+02 -0.59337632690E+01 -0.43368253831E+02  0.56179241977E+02  0.00000000000E+00 0.  1.
         12    1    3    3    0    0  0.56412822867E+01 -0.70236098925E+01 -0.26581475493E+03  0.26596736473E+03  0.00000000000E+00 0. -1.
         11    1    5    5    0    0 -0.12314642946E+02 -0.22732472113E+02  0.23497438643E+02  0.34936304069E+02  0.00000000000E+00 0. -1.
        -12    1    5    5    0    0  0.43785048611E+02 -0.17986672031E+02  0.24198527637E+03  0.24657154100E+03  0.00000000000E+00 0.  1.
          5    1    4    4  501    0 -0.54547714876E+02  0.22073511195E+02 -0.18860656921E+02  0.61934561225E+02  0.41800000000E+01 0.  1.
         -5    1    4    4    0  501 -0.17778916525E+02  0.31603006111E+02 -0.21556817540E+03  0.21863657177E+03  0.41800000000E+01 0.  1.
</event>
<event>
11    1  0.8453735E-009  0.1607382E+03  0.7561462E-02  0.1086385E+00
         22   -1    0    0    0    0  0.00000000000E+00  0.00000000000E+00  0.99264215317E+03  0.99264215317E+03  0.00000000000E+00 0. -1.
         22   -1    0    0    0    0 -0.00000000000E+00 -0.00000000000E+00 -0.77914357431E+02  0.77914357431E+02  0.00000000000E+00 0.  1.
        -24    2    1    2    0    0  0.27429705840E+02  0.10182779988E+03  0.17371485995E+02  0.13427900590E+03  0.81288334390E+02 0.  0.
         25    2    1    2    0    0 -0.11220782005E+01 -0.82638338812E+02  0.32849887249E+03  0.36109217822E+03  0.12508276398E+03 0.  0.
         24    2    1    2    0    0 -0.26307627639E+02 -0.19189461067E+02  0.56885743725E+03  0.57518532648E+03  0.78606928417E+02 0.  0.
        -11    1    5    5    0    0 -0.16669682882E+01 -0.17284771862E+02  0.52130426977E+03  0.52159340851E+03  0.00000000000E+00 0.  1.
         12    1    5    5    0    0 -0.24640659351E+02 -0.19046892056E+01  0.47553167480E+02  0.53591917969E+02  0.00000000000E+00 0. -1.
         13    1    3    3    0    0 -0.34938274165E+01 -0.11027137482E+02 -0.86030248151E+01  0.14415846386E+02  0.00000000000E+00 0. -1.
        -14    1    3    3    0    0  0.30923533256E+02  0.11285493736E+03  0.25974510810E+02  0.11986315951E+03  0.00000000000E+00 0.  1.
          5    1    4    4  501    0  0.20471667180E+01 -0.41816550796E+02  0.14644211459E+02  0.44550422459E+02  0.41800000000E+01 0.  1.
         -5    1    4    4    0  501 -0.31692449185E+01 -0.40821788017E+02  0.31385466103E+03  0.31654175576E+03  0.41800000000E+01 0.  1.
</event>
<event>
11    1  0.8453735E-009  0.1299539E+03  0.7561462E-02  0.1119326E+00
         22   -1    0    0    0    0  0.00000000000E+00  0.00000000000E+00  0.26777644229E+03  0.26777644229E+03  0.00000000000E+00 0.  1.
         22   -1    0    0    0    0 -0.00000000000E+00 -0.00000000000E+00 -0.33778956962E+03  0.33778956962E+03  0.00000000000E+00 0.  1.
         24    2    1    2    0    0 -0.27248236358E+02 -0.23799844082E+02 -0.27503934530E+03  0.28862317394E+03  0.79673057616E+02 0.  0.
         25    2    1    2    0    0  0.28055221753E+02  0.18791253261E+01  0.42720706669E+02  0.13514174921E+03  0.12509039540E+03 0.  0.
        -24    2    1    2    0    0 -0.80698539516E+00  0.21920718756E+02  0.16230551131E+03  0.18180108876E+03  0.78913799411E+02 0.  0.
        -13    1    3    3    0    0 -0.49579087709E+02 -0.24289731362E+01 -0.21969066076E+03  0.22522871103E+03  0.00000000000E+00 0.  1.
         14    1    3    3    0    0  0.22330851351E+02 -0.21370870946E+02 -0.55348684541E+02  0.63394462909E+02  0.00000000000E+00 0. -1.
         13    1    5    5    0    0  0.13430301260E+02  0.47209246401E+01 -0.33687554276E+01  0.14629033957E+02  0.00000000000E+00 0. -1.
        -14    1    5    5    0    0 -0.14237286655E+02  0.17199794116E+02  0.16567426673E+03  0.16717205480E+03  0.00000000000E+00 0.  1.
          5    1    4    4  501    0  0.29316000671E+02 -0.45249432008E+01  0.86054923933E+02  0.91119840537E+02  0.41800000000E+01 0.  1.
         -5    1    4    4    0  501 -0.12607789179E+01  0.64040685269E+01 -0.43334217264E+02  0.44021908672E+02  0.41800000000E+01 0.  1.
</event>
<event>
11    1  0.8453735E-009  0.1556749E+03  0.7561462E-02  0.1091217E+00
         22   -1    0    0    0    0  0.00000000000E+00  0.00000000000E+00  0.11443927273E+04  0.11443927273E+04  0.00000000000E+00 0.  1.
         22   -1    0    0    0    0 -0.00000000000E+00 -0.00000000000E+00 -0.54595163311E+03  0.54595163311E+03  0.00000000000E+00 0.  1.
        -24    2    1    2    0    0  0.92229090299E+02  0.20702539104E+02 -0.47691694577E+03  0.49274465517E+03  0.80079471859E+02 0.  0.
         25    2    1    2    0    0 -0.76677437220E+02  0.20554341596E+02  0.33702674857E+02  0.15193825399E+03  0.12508977735E+03 0.  0.
         24    2    1    2    0    0 -0.15551653078E+02 -0.41256880700E+02  0.10416553651E+04  0.10456614513E+04  0.80112339189E+02 0.  0.
        -11    1    5    5    0    0  0.20812288429E+02 -0.45063761382E+02  0.76373358298E+03  0.76534494165E+03  0.00000000000E+00 0.  1.
         12    1    5    5    0    0 -0.36363941507E+02  0.38068806818E+01  0.27792178215E+03  0.28031650964E+03  0.00000000000E+00 0. -1.
         13    1    3    3    0    0  0.36017603289E+02 -0.23333867893E+02 -0.95477931854E+02  0.10467938005E+03  0.00000000000E+00 0. -1.
        -14    1    3    3    0    0  0.56211487009E+02  0.44036406997E+02 -0.38143901391E+03  0.38806527511E+03  0.00000000000E+00 0.  1.
          5    1    4    4  501    0  0.31372668869E+02  0.12795613757E+02  0.26633982970E+02  0.43299116991E+02  0.41800000000E+01 0. -1.
         -5    1    4    4    0  501 -0.10805010609E+03  0.77587278390E+01  0.70686918869E+01  0.10863913700E+03  0.41800000000E+01 0. -1.
</event>
<event>
11    1  0.8453735E-009  0.1382733E+03  0.7561462E-02  0.1109502E+00
         22   -1    0    0    0    0  0.00000000000E+00  0.00000000000E+00  0.18713177931E+04  0.18713177931E+04  0.00000000000E+00 0.  1.
         22   -1    0    0    0    0 -0.00000000000E+00 -0.00000000000E+00 -0.43715489410E+02  0.43715489410E+02  0.00000000000E+00 0.  1.
         24    2    1    2    0    0  0.41812524656E+02 -0.19885257497E+02  0.12844697678E+03  0.17309803219E+03  0.10639827169E+03 0.  0.
         25    2    1    2    0    0 -0.32929996513E+02  0.10066335530E+03  0.33445274763E+03  0.37245530258E+03  0.12508723456E+03 0.  0.
        -24    2    1    2    0    0 -0.88825281429E+01 -0.80778097799E+02  0.13647025793E+04  0.13694799477E+04  0.80362908181E+02 0.  0.
        -11    1    3    3    0    0 -0.22812343922E+02 -0.90671986665E+01 -0.44290302805E+01  0.24944607355E+02  0.00000000000E+00 0.  1.
         12    1    3    3    0    0  0.64624868578E+02 -0.10818058830E+02  0.13287600706E+03  0.14815342483E+03  0.00000000000E+00 0. -1.
         11    1    5    5    0    0  0.13184205456E+01 -0.35535784989E+01  0.15361258943E+01  0.40897231748E+01  0.00000000000E+00 0. -1.
        -12    1    5    5    0    0 -0.10200948688E+02 -0.77224519300E+02  0.13631664534E+04  0.13653902246E+04  0.00000000000E+00 0.  1.
          5    1    4    4  501    0 -0.14761236511E+02  0.12808899035E+03  0.24204307364E+03  0.27427541897E+03  0.41800000000E+01 0.  1.
         -5    1    4    4    0  501 -0.18168760002E+02 -0.27425635059E+02  0.92409673987E+02  0.98179883605E+02  0.41800000000E+01 0.  1.
</event>
<event>
11    1  0.8453735E-009  0.1334451E+03  0.7561462E-02  0.1115107E+00
         22   -1    0    0    0    0  0.00000000000E+00  0.00000000000E+00  0.12873008886E+03  0.12873008886E+03  0.00000000000E+00 0.  1.
         22   -1    0    0    0    0 -0.00000000000E+00 -0.00000000000E+00 -0.69197883046E+03  0.69197883046E+03  0.00000000000E+00 0. -1.
         24    2    1    2    0    0 -0.10739853361E+02  0.48942104182E+02 -0.41869932976E+03  0.42905285185E+03  0.79161524283E+02 0.  0.
         25    2    1    2    0    0 -0.15859441438E+02 -0.37305137213E+02 -0.23461606624E+03  0.26895320865E+03  0.12509170540E+03 0.  0.
        -24    2    1    2    0    0  0.26599294799E+02 -0.11636966970E+02  0.90066654397E+02  0.12270285883E+03  0.78109204626E+02 0.  0.
        -11    1    3    3    0    0  0.31234117055E+02  0.39660106799E+02 -0.21153931949E+03  0.21747960325E+03  0.00000000000E+00 0.  1.
         12    1    3    3    0    0 -0.41973970416E+02  0.92819973831E+01 -0.20716001027E+03  0.21157324860E+03  0.00000000000E+00 0. -1.
         11    1    5    5    0    0  0.33744709964E+02 -0.90114284302E+01  0.27285737626E+01  0.35033646794E+02  0.00000000000E+00 0. -1.
        -12    1    5    5    0    0 -0.71454151649E+01 -0.26255385395E+01  0.87338080634E+02  0.87669212038E+02  0.00000000000E+00 0.  1.
          5    1    4    4  501    0  0.41068598089E+02  0.23579109333E+02 -0.96634257512E+02  0.10769520078E+03  0.41800000000E+01 0. -1.
         -5    1    4    4    0  501 -0.56928039528E+02 -0.60884246545E+02 -0.13798180873E+03  0.16125800787E+03  0.41800000000E+01 0. -1.
</event>
<event>
11    1  0.8453735E-009  0.2320661E+03  0.7561462E-02  0.1033912E+00
         22   -1    0    0    0    0  0.00000000000E+00  0.00000000000E+00  0.28893099665E+04  0.28893099665E+04  0.00000000000E+00 0.  1.
         22   -1    0    0    0    0 -0.00000000000E+00 -0.00000000000E+00 -0.48274790930E+03  0.48274790930E+03  0.00000000000E+00 0.  1.
         24    2    1    2    0    0 -0.16013839400E+03 -0.23261677374E+02 -0.73345799129E+02  0.19540442181E+03  0.81350297765E+02 0.  0.
         25    2    1    2    0    0  0.35215187515E+03 -0.19783863574E+01 -0.24294511888E+03  0.44574013500E+03  0.12508828872E+03 0.  0.
        -24    2    1    2    0    0 -0.19201348116E+03  0.25240063731E+02  0.27228529752E+04  0.27309133190E+04  0.80330526504E+02 0.  0.
        -11    1    3    3    0    0 -0.51399577318E+02  0.25244344778E+02 -0.45461218417E+02  0.73115770335E+02  0.00000000000E+00 0.  1.
         12    1    3    3    0    0 -0.10873881668E+03 -0.48506022152E+02 -0.27884580713E+02  0.12228865147E+03  0.00000000000E+00 0. -1.
         13    1    5    5    0    0  0.27048685738E+00  0.15468528508E+02  0.31270006154E+03  0.31308254027E+03  0.00000000000E+00 0. -1.
        -14    1    5    5    0    0 -0.19228396801E+03  0.97715352237E+01  0.24101529137E+04  0.24178307787E+04  0.00000000000E+00 0.  1.
          5    1    4    4  501    0  0.31950019454E+02  0.11969338035E+02  0.11761369300E+02  0.36330028956E+02  0.41800000000E+01 0.  1.
         -5    1    4    4    0  501  0.32020185570E+03 -0.13947724393E+02 -0.25470648818E+03  0.40941010604E+03  0.41800000000E+01 0.  1.
</event>
<event>
11    1  0.8453735E-009  0.2520525E+03  0.7561462E-02  0.1022811E+00
         22   -1    0    0    0    0  0.00000000000E+00  0.00000000000E+00  0.43871927170E+03  0.43871927170E+03  0.00000000000E+00 0.  1.
         22   -1    0    0    0    0 -0.00000000000E+00 -0.00000000000E+00 -0.39035897376E+03  0.39035897376E+03  0.00000000000E+00 0.  1.
        -24    2    1    2    0    0  0.24334251660E+03 -0.90558457196E+02 -0.21148667619E+03  0.34322460937E+03  0.75233660807E+02 0.  0.
         25    2    1    2    0    0 -0.12757085390E+03 -0.41471621342E+02  0.29824234062E+02  0.18583589199E+03  0.12510505855E+03 0.  0.
         24    2    1    2    0    0 -0.11577166270E+03  0.13203007854E+03  0.23002274007E+03  0.30001774409E+03  0.79152803467E+02 0.  0.
        -13    1    5    5    0    0 -0.70494397608E+02  0.40976470638E+02  0.14956757987E+03  0.17034961752E+03  0.00000000000E+00 0.  1.
         14    1    5    5    0    0 -0.45277265091E+02  0.91053607900E+02  0.80455160194E+02  0.12966812657E+03  0.00000000000E+00 0. -1.
         13    1    3    3    0    0  0.41528420017E+02 -0.30479176969E+02 -0.79437684549E+02  0.94678063058E+02  0.00000000000E+00 0. -1.
        -14    1    3    3    0    0  0.20181409658E+03 -0.60079280227E+02 -0.13204899164E+03  0.24854654632E+03  0.00000000000E+00 0.  1.
          5    1    4    4  501    0 -0.13501159212E+01 -0.45212463694E+02 -0.20500322839E+02  0.49836987497E+02  0.41800000000E+01 0. -1.
         -5    1    4    4    0  501 -0.12622073798E+03  0.37408423526E+01  0.50324556901E+02  0.13599890450E+03  0.41800000000E+01 0. -1.
</event>
<event>
11    1  0.8453735E-009  0.6068338E+03  0.7561462E-02  0.9182123E-01
         22   -1    0    0    0    0  0.00000000000E+00  0.00000000000E+00  0.80815801277E+03  0.80815801277E+03  0.00000000000E+00 0.  1.
         22   -1    0    0    0    0 -0.00000000000E+00 -0.00000000000E+00 -0.15667257162E+04  0.15667257162E+04  0.00000000000E+00 0. -1.
         24    2    1    2    0    0  0.53389377802E+03  0.25039953234E+03 -0.12946188021E+04  0.14251995973E+04  0.86102016317E+02 0.  0.
         25    2    1    2    0    0 -0.59082606694E+03 -0.21689681770E+03  0.33882902557E+03  0.72565022768E+03  0.12507387199E+03 0.  0.
        -24    2    1    2    0    0  0.56932288919E+02 -0.33502714632E+02  0.19722207317E+03  0.22403390399E+03  0.83252186657E+02 0.  0.
        -11    1    3    3    0    0  0.30083114874E+02  0.38829614689E+02 -0.12186616448E+03  0.13139290248E+03  0.00000000000E+00 0.  1.
         12    1    3    3    0    0  0.50381066314E+03  0.21156991765E+03 -0.11727526377E+04  0.12938066948E+04  0.00000000000E+00 0. -1.
         11    1    5    5    0    0 -0.11878328352E+02 -0.35116090805E+02  0.78232004553E+02  0.86570670866E+02  0.00000000000E+00 0. -1.
        -12    1    5    5    0    0  0.68810617270E+02  0.16133761739E+01  0.11899006861E+03  0.13746323312E+03  0.00000000000E+00 0.  1.
          5    1    4    4  501    0 -0.10480611930E+03 -0.75582917985E+02  0.30032843632E+02  0.13272733038E+03  0.41800000000E+01 0. -1.
         -5    1    4    4    0  501 -0.48601994764E+03 -0.14131389972E+03  0.30879618194E+03  0.59292289730E+03  0.41800000000E+01 0. -1.
</event>
<event>
11    1  0.8453735E-009  0.1511819E+03  0.7561462E-02  0.1095677E+00
         22   -1    0    0    0    0  0.00000000000E+00  0.00000000000E+00  0.68122888001E+03  0.68122888001E+03  0.00000000000E+00 0.  1.
         22   -1    0    0    0    0 -0.00000000000E+00 -0.00000000000E+00 -0.50398734275E+03  0.50398734275E+03  0.00000000000E+00 0. -1.
        -24    2    1    2    0    0  0.18457070457E+02  0.84131232121E+02 -0.44079278622E+03  0.45627887579E+03  0.80457469786E+02 0.  0.
         25    2    1    2    0    0  0.27081536780E+02 -0.74898790709E+02  0.54702942465E+02  0.15805818792E+03  0.12508693125E+03 0.  0.
         24    2    1    2    0    0 -0.45538607237E+02 -0.92324414121E+01  0.56333138101E+03  0.57087915905E+03  0.80011040993E+02 0.  0.
        -13    1    5    5    0    0  0.32987493202E+01 -0.35314359364E+02  0.27524651210E+03  0.27752230207E+03  0.00000000000E+00 0.  1.
         14    1    5    5    0    0 -0.48837356558E+02  0.26081917952E+02  0.28808486892E+03  0.29335685698E+03  0.00000000000E+00 0. -1.
         13    1    3    3    0    0  0.32673605304E+02  0.66936938161E+01 -0.20483447549E+03  0.20753200324E+03  0.00000000000E+00 0. -1.
        -14    1    3    3    0    0 -0.14216534847E+02  0.77437538305E+02 -0.23595831073E+03  0.24874687255E+03  0.00000000000E+00 0.  1.
          5    1    4    4  501    0 -0.29106046089E+02 -0.68506424925E+01  0.62457502129E+02  0.69372222061E+02  0.41800000000E+01 0. -1.
         -5    1    4    4    0  501  0.56187582869E+02 -0.68048148216E+02 -0.77545596635E+01  0.88685965857E+02  0.41800000000E+01 0. -1.
</event>
<event>
11    1  0.8453735E-009  0.1295550E+03  0.7561462E-02  0.1119817E+00
         22   -1    0    0    0    0  0.00000000000E+00  0.00000000000E+00  0.39840350466E+03  0.39840350466E+03  0.00000000000E+00 0.  1.
         22   -1    0    0    0    0 -0.00000000000E+00 -0.00000000000E+00 -0.10139678647E+04  0.10139678647E+04  0.00000000000E+00 0. -1.
        -24    2    1    2    0    0  0.10683942091E+02  0.75314482532E+01 -0.95962171660E+03  0.96310290656E+03  0.80761997930E+02 0.  0.
         25    2    1    2    0    0  0.22806610134E+02  0.32475137287E+01  0.40727943334E+02  0.13355564893E+03  0.12509059990E+03 0.  0.
         24    2    1    2    0    0 -0.33490552225E+02 -0.10778961982E+02  0.30332941319E+03  0.31571281391E+03  0.80175088716E+02 0.  0.
        -13    1    5    5    0    0 -0.19835310974E+02 -0.28140339366E+02  0.28482418071E+03  0.28689742449E+03  0.00000000000E+00 0.  1.
         14    1    5    5    0    0 -0.13655241250E+02  0.17361377384E+02  0.18505232478E+02  0.28815389419E+02  0.00000000000E+00 0. -1.
         13    1    3    3    0    0 -0.27803476655E+02  0.26869727343E+02 -0.47456787074E+03  0.47614039894E+03  0.00000000000E+00 0. -1.
        -14    1    3    3    0    0  0.38487418746E+02 -0.19338279090E+02 -0.48505384586E+03  0.48696250762E+03  0.00000000000E+00 0.  1.
          5    1    4    4  501    0  0.42957115653E+02 -0.36238932680E+02  0.62359358449E+02  0.84051983993E+02  0.41800000000E+01 0. -1.
         -5    1    4    4    0  501 -0.20150505519E+02  0.39486446409E+02 -0.21631415115E+02  0.49503664940E+02  0.41800000000E+01 0. -1.
</event>
<event>
11    1  0.8453735E-009  0.1477452E+03  0.7561462E-02  0.1099205E+00
         22   -1    0    0    0    0  0.00000000000E+00  0.00000000000E+00  0.13034744614E+04  0.13034744614E+04  0.00000000000E+00 0. -1.
         22   -1    0    0    0    0 -0.00000000000E+00 -0.00000000000E+00 -0.25871435890E+03  0.25871435890E+03  0.00000000000E+00 0.  1.
        -24    2    1    2    0    0  0.26277590097E+01  0.68992187854E+02 -0.18837795048E+03  0.21691177133E+03  0.82447784776E+02 0.  0.
         25    2    1    2    0    0 -0.53283419628E+02 -0.56689870921E+01  0.33342728498E+02  0.14010961156E+03  0.12509078897E+03 0.  0.
         24    2    1    2    0    0  0.50655660618E+02 -0.63323200762E+02  0.11997953245E+04  0.12051674374E+04  0.79648652447E+02 0.  0.
        -11    1    5    5    0    0  0.23611978483E+02  0.12457699805E+02  0.15533532112E+03  0.15761275900E+03  0.00000000000E+00 0.  1.
         12    1    5    5    0    0  0.27043682136E+02 -0.75780900567E+02  0.10444600034E+04  0.10475546784E+04  0.00000000000E+00 0. -1.
         11    1    3    3    0    0  0.23845882010E+02 -0.83877433609E+01 -0.28958073067E+02  0.38438916781E+02  0.00000000000E+00 0. -1.
        -12    1    3    3    0    0 -0.21218123000E+02  0.77379931215E+02 -0.15941987741E+03  0.17847285455E+03  0.00000000000E+00 0.  1.
          5    1    4    4  501    0  0.28180190266E+02 -0.34267564685E+02 -0.63137417852E+01  0.45008053148E+02  0.41800000000E+01 0. -1.
         -5    1    4    4    0  501 -0.81463609894E+02  0.28598577593E+02  0.39656470284E+02  0.95101558413E+02  0.41800000000E+01 0. -1.
</event>
<event>
11    1  0.8453735E-009  0.1434009E+03  0.7561462E-02  0.1103819E+00
         22   -1    0    0    0    0  0.00000000000E+00  0.00000000000E+00  0.89539436380E+02  0.89539436380E+02  0.00000000000E+00 0. -1.
         22   -1    0    0    0    0 -0.00000000000E+00 -0.00000000000E+00 -0.13039063275E+04  0.13039063275E+04  0.00000000000E+00 0.  1.
         24    2    1    2    0    0 -0.14583357085E+01  0.16695070243E+02 -0.10980946228E+04  0.11014857272E+04  0.84723990611E+02 0.  0.
         25    2    1    2    0    0  0.39976465150E+02 -0.70655808431E+02 -0.11360572950E+03  0.18746526711E+03  0.12508638443E+03 0.  0.
        -24    2    1    2    0    0 -0.38518129442E+02  0.53960738188E+02 -0.26665388230E+01  0.10449476952E+03  0.80725701402E+02 0.  0.
        -11    1    3    3    0    0 -0.33757405752E+01  0.47330913720E-01 -0.10583156976E+04  0.10583210825E+04  0.00000000000E+00 0.  1.
         12    1    3    3    0    0  0.19174048667E+01  0.16647739330E+02 -0.39778925188E+02  0.43164644738E+02  0.00000000000E+00 0. -1.
         11    1    5    5    0    0 -0.23091462060E+01  0.62042982862E+02  0.14280834493E+02  0.63707190430E+02  0.00000000000E+00 0. -1.
        -12    1    5    5    0    0 -0.36208983236E+02 -0.80822446750E+01 -0.16947373316E+02  0.40787579093E+02  0.00000000000E+00 0.  1.
          5    1    4    4  501    0  0.72408966008E+02 -0.54156789822E+02 -0.11997188619E+03  0.15028886226E+03  0.41800000000E+01 0. -1.
         -5    1    4    4    0  501 -0.32432500857E+02 -0.16499018609E+02  0.63661566960E+01  0.37176404856E+02  0.41800000000E+01 0. -1.
</event>
<event>
11    1  0.8453735E-009  0.2030326E+03  0.7561462E-02  0.1052400E+00
         22   -1    0    0    0    0  0.00000000000E+00  0.00000000000E+00  0.78095837216E+03  0.78095837216E+03  0.00000000000E+00 0.  1.
         22   -1    0    0    0    0 -0.00000000000E+00 -0.00000000000E+00 -0.21365239707E+03  0.21365239707E+03  0.00000000000E+00 0. -1.
        -24    2    1    2    0    0 -0.15778337233E+02  0.15059435781E+03 -0.70531062825E+02  0.18571519044E+03  0.81165784704E+02 0.  0.
         25    2    1    2    0    0 -0.10287238792E+03 -0.19308680859E+03  0.13840191265E+03  0.28752025603E+03  0.12509022487E+03 0.  0.
         24    2    1    2    0    0  0.11865072515E+03  0.42492450777E+02  0.49943512527E+03  0.52137532276E+03  0.80704274224E+02 0.  0.
        -13    1    5    5    0    0  0.60509378188E+02  0.46562276219E+01  0.36588579379E+03  0.37088472522E+03  0.00000000000E+00 0.  1.
         14    1    5    5    0    0  0.58141346962E+02  0.37836223155E+02  0.13354933148E+03  0.15049059754E+03  0.00000000000E+00 0. -1.
         13    1    3    3    0    0 -0.13887198823E+02  0.13598512901E+03 -0.88225298006E+02  0.16269146508E+03  0.00000000000E+00 0. -1.
        -14    1    3    3    0    0 -0.18911384102E+01  0.14609228800E+02  0.17694235181E+02  0.23023725356E+02  0.00000000000E+00 0.  1.
          5    1    4    4  501    0 -0.52581336858E+02 -0.18564833522E+03  0.77240151397E+02  0.20787884631E+03  0.41800000000E+01 0.  1.
         -5    1    4    4    0  501 -0.50291051058E+02 -0.74384733655E+01  0.61161761249E+02  0.79641409717E+02  0.41800000000E+01 0.  1.
</event>
<event>
11    1  0.8453735E-009  0.1379822E+03  0.7561462E-02  0.1109833E+00
         22   -1    0    0    0    0  0.00000000000E+00  0.00000000000E+00  0.37535705499E+03  0.37535705499E+03  0.00000000000E+00 0. -1.
         22   -1    0    0    0    0 -0.00000000000E+00 -0.00000000000E+00 -0.12022728991E+04  0.12022728991E+04  0.00000000000E+00 0. -1.
         24    2    1    2    0    0 -0.35890879398E+02  0.47690534851E+02 -0.10538813132E+04  0.10586350558E+04  0.80497309472E+02 0.  0.
         25    2    1    2    0    0  0.54964449912E+02 -0.47672526564E+01 -0.10680323757E+03  0.17349018704E+03  0.12509234985E+03 0.  0.
        -24    2    1    2    0    0 -0.19073570514E+02 -0.42923282195E+02  0.33376870658E+03  0.34550471127E+03  0.75932514580E+02 0.  0.
        -11    1    3    3    0    0 -0.26788405862E+02 -0.13721683211E+02 -0.17547725363E+03  0.17803979842E+03  0.00000000000E+00 0.  1.
         12    1    3    3    0    0 -0.91024735363E+01  0.61412218062E+02 -0.87840405954E+03  0.88059525740E+03  0.00000000000E+00 0. -1.
         11    1    5    5    0    0  0.26245797995E+02 -0.40068295594E+01  0.14816751244E+03  0.15052743384E+03  0.00000000000E+00 0. -1.
        -12    1    5    5    0    0 -0.45319368509E+02 -0.38916452636E+02  0.18560119414E+03  0.19497727743E+03  0.00000000000E+00 0.  1.
          5    1    4    4  501    0  0.22577461563E+02 -0.64572616510E+02 -0.51334342159E+02  0.85627400162E+02  0.41800000000E+01 0. -1.
         -5    1    4    4    0  501  0.32386988349E+02  0.59805363853E+02 -0.55468895406E+02  0.87862786875E+02  0.41800000000E+01 0. -1.
</event>
<event>
11    1  0.8453735E-009  0.1571461E+03  0.7561462E-02  0.1089793E+00
         22   -1    0    0    0    0  0.00000000000E+00  0.00000000000E+00  0.18515517161E+04  0.18515517161E+04  0.00000000000E+00 0. -1.
         22   -1    0    0    0    0 -0.00000000000E+00 -0.00000000000E+00 -0.17338977532E+03  0.17338977532E+03  0.00000000000E+00 0. -1.
         24    2    1    2    0    0  0.54446434436E+02 -0.78313169090E+02 -0.14327288293E+03  0.18518768502E+03  0.68337347219E+02 0.  0.
         25    2    1    2    0    0 -0.28126761995E+02  0.84285659724E+02  0.78834340260E+03  0.80313579482E+03  0.12508635949E+03 0.  0.
        -24    2    1    2    0    0 -0.26319672441E+02 -0.59724906332E+01  0.10330914211E+04  0.10366180115E+04  0.81059371735E+02 0.  0.
        -13    1    3    3    0    0  0.73594765352E+01  0.10464996826E+02 -0.39219503086E+01  0.13381320849E+02  0.00000000000E+00 0.  1.
         14    1    3    3    0    0  0.47086957901E+02 -0.88778165917E+02 -0.13935093262E+03  0.17180636417E+03  0.00000000000E+00 0. -1.
         13    1    5    5    0    0  0.20675540149E+02  0.15697348938E+01  0.68198489689E+03  0.68230003783E+03  0.00000000000E+00 0. -1.
        -14    1    5    5    0    0 -0.46995212590E+02 -0.75422255270E+01  0.35110652417E+03  0.35431797370E+03  0.00000000000E+00 0.  1.
          5    1    4    4  501    0 -0.76971139219E+02  0.63698516405E+02  0.53674698234E+03  0.54598246558E+03  0.41800000000E+01 0.  1.
         -5    1    4    4    0  501  0.48844377224E+02  0.20587143319E+02  0.25159642025E+03  0.25715332924E+03  0.41800000000E+01 0.  1.
</event>
<event>
11    1  0.8453735E-009  0.1364963E+03  0.7561462E-02  0.1111535E+00
         22   -1    0    0    0    0  0.00000000000E+00  0.00000000000E+00  0.12011831196E+04  0.12011831196E+04  0.00000000000E+00 0.  1.
         22   -1    0    0    0    0 -0.00000000000E+00 -0.00000000000E+00 -0.22012873368E+03  0.22012873368E+03  0.00000000000E+00 0.  1.
         24    2    1    2    0    0  0.20308686097E+02  0.49843511433E+02 -0.17854539183E+03  0.20322584148E+03  0.80780364826E+02 0.  0.
         25    2    1    2    0    0  0.11411120314E+02 -0.76917067563E+02  0.17292278490E+03  0.22714606495E+03  0.12508635552E+03 0.  0.
        -24    2    1    2    0    0 -0.31719806411E+02  0.27073556131E+02  0.98667699288E+03  0.99093994687E+03  0.81800773003E+02 0.  0.
        -11    1    3    3    0    0  0.33458247193E+02  0.53707165552E+02 -0.17864472126E+03  0.18952005269E+03  0.00000000000E+00 0.  1.
         12    1    3    3    0    0 -0.13149561097E+02 -0.38636541198E+01  0.99329432571E-01  0.13705788796E+02  0.00000000000E+00 0. -1.
         13    1    5    5    0    0  0.22174281461E+02  0.28151390294E+02  0.29570610962E+03  0.29786960704E+03  0.00000000000E+00 0. -1.
        -14    1    5    5    0    0 -0.53894087871E+02 -0.10778341630E+01  0.69097088326E+03  0.69307033983E+03  0.00000000000E+00 0.  1.
          5    1    4    4  501    0 -0.19318225808E+02 -0.27341334050E+02  0.16466929628E+03  0.16808983293E+03  0.41800000000E+01 0.  1.
         -5    1    4    4    0  501  0.30729346122E+02 -0.49575733513E+02  0.82534886176E+01  0.59056232023E+02  0.41800000000E+01 0.  1.
</event>
<event>
11    1  0.8453735E-009  0.1363804E+03  0.7561462E-02  0.1111669E+00
         22   -1    0    0    0    0  0.00000000000E+00  0.00000000000E+00  0.11709727248E+03  0.11709727248E+03  0.00000000000E+00 0. -1.
         22   -1    0    0    0    0 -0.00000000000E+00 -0.00000000000E+00 -0.69235483196E+03  0.69235483196E+03  0.00000000000E+00 0.  1.
        -24    2    1    2    0    0  0.98601474377E+01 -0.18312989356E+02 -0.55460750123E+03  0.56064539435E+03  0.79380033341E+02 0.  0.
         25    2    1    2    0    0  0.46676984798E+02  0.80248514606E+01 -0.55932646776E+02  0.14498408704E+03  0.12509510529E+03 0.  0.
         24    2    1    2    0    0 -0.56537132236E+02  0.10288137895E+02  0.35282588526E+02  0.10382262306E+03  0.78942909135E+02 0.  0.
        -11    1    5    5    0    0 -0.11324281860E+02 -0.32911135938E+01 -0.24771210214E+02  0.27435080532E+02  0.00000000000E+00 0.  1.
         12    1    5    5    0    0 -0.45212850376E+02  0.13579251489E+02  0.60053798740E+02  0.76387542526E+02  0.00000000000E+00 0. -1.
         11    1    3    3    0    0  0.84304370896E+00  0.25629058672E+02 -0.82052968827E+02  0.85966557826E+02  0.00000000000E+00 0. -1.
        -12    1    3    3    0    0  0.90171037287E+01 -0.43942048028E+02 -0.47255453240E+03  0.47467883652E+03  0.00000000000E+00 0.  1.
          5    1    4    4  501    0  0.69360218427E+02 -0.39722080010E+02 -0.40818446008E+02  0.89845987529E+02  0.41800000000E+01 0. -1.
         -5    1    4    4    0  501 -0.22683233629E+02  0.47746931471E+02 -0.15114200768E+02  0.55138099510E+02  0.41800000000E+01 0. -1.
</event>
<event>
11    1  0.8453735E-009  0.1339802E+03  0.7561462E-02  0.1114473E+00
         22   -1    0    0    0    0  0.00000000000E+00  0.00000000000E+00  0.15066228190E+03  0.15066228190E+03  0.00000000000E+00 0. -1.
         22   -1    0    0    0    0 -0.00000000000E+00 -0.00000000000E+00 -0.20156374252E+04  0.20156374252E+04  0.00000000000E+00 0. -1.
        -24    2    1    2    0    0 -0.61882327051E+01 -0.46262412619E+02 -0.17608662895E+04  0.17632619353E+04  0.79145801579E+02 0.  0.
         25    2    1    2    0    0 -0.23789066808E+02  0.76953899953E+02 -0.21561491541E+03  0.26196189325E+03  0.12508564805E+03 0.  0.
         24    2    1    2    0    0  0.29977299513E+02 -0.30691487335E+02  0.11150606161E+03  0.14107587856E+03  0.75021302680E+02 0.  0.
        -13    1    5    5    0    0  0.16084320359E+02  0.18632950897E+02  0.85242987746E+01  0.26049105361E+02  0.00000000000E+00 0.  1.
         14    1    5    5    0    0  0.13892979154E+02 -0.49324438232E+02  0.10298176284E+03  0.11502677320E+03  0.00000000000E+00 0. -1.
         13    1    3    3    0    0  0.11169270662E+02 -0.56378026214E+02 -0.16145751927E+04  0.16155978111E+04  0.00000000000E+00 0. -1.
        -14    1    3    3    0    0 -0.17357503367E+02  0.10115613595E+02 -0.14629109680E+03  0.14766412416E+03  0.00000000000E+00 0.  1.
          5    1    4    4  501    0  0.13570617897E+02 -0.17331411819E+02  0.13306007082E+01  0.22445097549E+02  0.41800000000E+01 0. -1.
         -5    1    4    4    0  501 -0.37359684704E+02  0.94285311773E+02 -0.21694551612E+03  0.23951679570E+03  0.41800000000E+01 0. -1.
</event>
<event>
11    1  0.8453735E-009  0.1849684E+03  0.7561462E-02  0.1065693E+00
         22   -1    0    0    0    0  0.00000000000E+00  0.00000000000E+00  0.90310791999E+03  0.90310791999E+03  0.00000000000E+00 0. -1.
         22   -1    0    0    0    0 -0.00000000000E+00 -0.00000000000E+00 -0.36937850593E+03  0.36937850593E+03  0.00000000000E+00 0.  1.
         24    2    1    2    0    0  0.29854090241E+02  0.13657361901E+03 -0.32584713581E+03  0.36230105573E+03  0.74445140560E+02 0.  0.
         25    2    1    2    0    0 -0.63649559040E+02 -0.65533652176E+02  0.27919694596E+03  0.31928727289E+03  0.12508997588E+03 0.  0.
        -24    2    1    2    0    0  0.33795468799E+02 -0.71039966834E+02  0.58037960391E+03  0.59089809730E+03  0.78302402005E+02 0.  0.
        -13    1    3    3    0    0  0.29660314553E+02  0.12236187557E+02 -0.46098052675E+02  0.56164837806E+02  0.00000000000E+00 0.  1.
         14    1    3    3    0    0  0.19377568792E+00  0.12433743145E+03 -0.27974908314E+03  0.30613621793E+03  0.00000000000E+00 0. -1.
         11    1    5    5    0    0  0.19037418870E+02 -0.34927574064E+02  0.49970895746E+03  0.50128973749E+03  0.00000000000E+00 0. -1.
        -12    1    5    5    0    0  0.14758049929E+02 -0.36112392771E+02  0.80670646454E+02  0.89608359814E+02  0.00000000000E+00 0.  1.
          5    1    4    4  501    0 -0.32644135481E+01 -0.20290046455E+02  0.22576196700E+03  0.22673394215E+03  0.41800000000E+01 0.  1.
         -5    1    4    4    0  501 -0.60385145492E+02 -0.45243605721E+02  0.53434978965E+02  0.92553330743E+02  0.41800000000E+01 0.  1.
</event>
<event>
11    1  0.8453735E-009  0.1447830E+03  0.7561462E-02  0.1102332E+00
         22   -1    0    0    0    0  0.00000000000E+00  0.00000000000E+00  0.10549683936E+04  0.10549683936E+04  0.00000000000E+00 0. -1.
         22   -1    0    0    0    0 -0.00000000000E+00 -0.00000000000E+00 -0.18191979671E+03  0.18191979671E+03  0.00000000000E+00 0.  1.
         24    2    1    2    0    0  0.45750424178E+01  0.10741002289E+02 -0.96296757026E+02  0.12650825929E+03  0.81209445945E+02 0.  0.
         25    2    1    2    0    0 -0.75258588366E+02 -0.27296701194E+02  0.14323066597E+02  0.14920447740E+03  0.12509140986E+03 0.  0.
        -24    2    1    2    0    0  0.70683545948E+02  0.16555698905E+02  0.95502228728E+03  0.96117545358E+03  0.80749170491E+02 0.  0.
        -13    1    3    3    0    0  0.60809770131E+01  0.16249152893E+02 -0.11015850424E+03  0.11151640824E+03  0.00000000000E+00 0.  1.
         14    1    3    3    0    0 -0.15059345953E+01 -0.55081506037E+01  0.13861747210E+02  0.14991851047E+02  0.00000000000E+00 0. -1.
         11    1    5    5    0    0  0.44837585071E+02  0.31824120050E+02  0.85448601276E+03  0.85625319249E+03  0.00000000000E+00 0. -1.
        -12    1    5    5    0    0  0.25845960877E+02 -0.15268421145E+02  0.10053627452E+03  0.10492226109E+03  0.00000000000E+00 0.  1.
          5    1    4    4  501    0 -0.17572208711E+02 -0.50699185554E+02  0.53211647531E+02  0.75684488290E+02  0.41800000000E+01 0.  1.
         -5    1    4    4    0  501 -0.57686379655E+02  0.23402484359E+02 -0.38888580934E+02  0.73519989111E+02  0.41800000000E+01 0.  1.
</event>
<event>
11    1  0.8453735E-009  0.2069848E+03  0.7561462E-02  0.1049691E+00
         22   -1    0    0    0    0  0.00000000000E+00  0.00000000000E+00  0.41672972599E+03  0.41672972599E+03  0.00000000000E+00 0.  1.
         22   -1    0    0    0    0 -0.00000000000E+00 -0.00000000000E+00 -0.55920665226E+03  0.55920665226E+03  0.00000000000E+00 0.  1.
        -24    2    1    2    0    0  0.63973390634E+02 -0.16312197367E+03 -0.41964343741E+03  0.46178536950E+03  0.80272909020E+02 0.  0.
         25    2    1    2    0    0 -0.19448257127E+03  0.44494417523E+02  0.11946456152E+03  0.26405376143E+03  0.12509749697E+03 0.  0.
         24    2    1    2    0    0  0.13050918064E+03  0.11862755615E+03  0.15770194962E+03  0.25009724732E+03  0.81077647313E+02 0.  0.
        -13    1    5    5    0    0  0.11246754367E+03  0.11629362336E+03  0.10140719089E+03  0.19093604578E+03  0.00000000000E+00 0.  1.
         14    1    5    5    0    0  0.18041636969E+02  0.23339327822E+01  0.56294758733E+02  0.59161201539E+02  0.00000000000E+00 0. -1.
         11    1    3    3    0    0  0.44530769550E+02 -0.69211743187E+02 -0.28385866673E+03  0.29554863814E+03  0.00000000000E+00 0. -1.
        -12    1    3    3    0    0  0.19442621084E+02 -0.93910230482E+02 -0.13578477068E+03  0.16623673136E+03  0.00000000000E+00 0.  1.
          5    1    4    4  501    0 -0.14407066534E+03  0.81108608176E+02  0.54969586632E+02  0.17428164214E+03  0.41800000000E+01 0. -1.
         -5    1    4    4    0  501 -0.50411905927E+02 -0.36614190652E+02  0.64494974883E+02  0.89772119288E+02  0.41800000000E+01 0. -1.
</event>
<event>
11    1  0.8453735E-009  0.1859122E+03  0.7561462E-02  0.1064958E+00
         22   -1    0    0    0    0  0.00000000000E+00  0.00000000000E+00  0.18343326029E+04  0.18343326029E+04  0.00000000000E+00 0.  1.
         22   -1    0    0    0    0 -0.00000000000E+00 -0.00000000000E+00 -0.32825408632E+02  0.32825408632E+02  0.00000000000E+00 0.  1.
        -24    2    1    2    0    0 -0.65483172235E+02 -0.12306755953E+03  0.32860001781E+03  0.36573497662E+03  0.79689593808E+02 0.  0.
         25    2    1    2    0    0  0.44804881732E+02  0.12710828210E+03  0.68914227062E+03  0.71325278120E+03  0.12509383653E+03 0.  0.
         24    2    1    2    0    0  0.20678290502E+02 -0.40407225758E+01  0.78376490586E+03  0.78817025373E+03  0.80504671126E+02 0.  0.
        -11    1    5    5    0    0 -0.65975445833E+01  0.25729999407E+02  0.57042656974E+03  0.57104468471E+03  0.00000000000E+00 0.  1.
         12    1    5    5    0    0  0.27275835086E+02 -0.29770721983E+02  0.21333833612E+03  0.21712556902E+03  0.00000000000E+00 0. -1.
         13    1    3    3    0    0 -0.21270809372E+01  0.61577909764E+01  0.65673615344E+02  0.65995959084E+02  0.00000000000E+00 0. -1.
        -14    1    3    3    0    0 -0.63356091297E+02 -0.12922535050E+03  0.26292640247E+03  0.29973901753E+03  0.00000000000E+00 0.  1.
          5    1    4    4  501    0 -0.22103896578E+02  0.10531284372E+03  0.49839273662E+03  0.50989427298E+03  0.41800000000E+01 0.  1.
         -5    1    4    4    0  501  0.66908778310E+02  0.21795438378E+02  0.19074953399E+03  0.20335850823E+03  0.41800000000E+01 0.  1.
</event>
<event>
11    1  0.8453735E-009  0.1342535E+03  0.7561462E-02  0.1114151E+00
         22   -1    0    0    0    0  0.00000000000E+00  0.00000000000E+00  0.14032127274E+04  0.14032127274E+04  0.00000000000E+00 0. -1.
         22   -1    0    0    0    0 -0.00000000000E+00 -0.00000000000E+00 -0.39771304327E+02  0.39771304327E+02  0.00000000000E+00 0. -1.
         24    2    1    2    0    0  0.29242409205E+02  0.36881661689E+02  0.63558659583E+02  0.11012858374E+03  0.76636977261E+02 0.  0.
         25    2    1    2    0    0 -0.40145255473E+02 -0.38211756254E+02  0.30070883743E+03  0.33036614047E+03  0.12507678446E+03 0.  0.
        -24    2    1    2    0    0  0.10902846267E+02  0.13300945655E+01  0.99917392602E+03  0.10024893075E+04  0.80719489267E+02 0.  0.
        -13    1    3    3    0    0  0.21060726270E+01  0.51149656861E+02  0.60597741187E+02  0.79327228464E+02  0.00000000000E+00 0.  1.
         14    1    3    3    0    0  0.27136336578E+02 -0.14267995172E+02  0.29609183961E+01  0.30801355277E+02  0.00000000000E+00 0. -1.
         13    1    5    5    0    0 -0.42056020344E+01 -0.12149133370E+02  0.93727217902E+03  0.93736035018E+03  0.00000000000E+00 0. -1.
        -14    1    5    5    0    0  0.15108448302E+02  0.13479227936E+02  0.61901747003E+02  0.65128957292E+02  0.00000000000E+00 0.  1.
          5    1    4    4  501    0  0.21006310525E+02 -0.31463493209E+02  0.20063327766E+02  0.43025876026E+02  0.41800000000E+01 0.  1.
         -5    1    4    4    0  501 -0.61151565998E+02 -0.67482630453E+01  0.28064550966E+03  0.28734026445E+03  0.41800000000E+01 0.  1.
</event>
<event>
11    1  0.8453735E-009  0.1292603E+03  0.7561462E-02  0.1120181E+00
         22   -1    0    0    0    0  0.00000000000E+00  0.00000000000E+00  0.12614941739E+04  0.12614941739E+04  0.00000000000E+00 0.  1.
         22   -1    0    0    0    0 -0.00000000000E+00 -0.00000000000E+00 -0.32262937048E+03  0.32262937048E+03  0.00000000000E+00 0.  1.
         24    2    1    2    0    0 -0.43100513276E+01  0.22162380489E+01 -0.28273778898E+03  0.29397040451E+03  0.80339611385E+02 0.  0.
         25    2    1    2    0    0 -0.75367216305E+01 -0.32535259191E+02  0.96938591354E+02  0.16173820007E+03  0.12508720800E+03 0.  0.
        -24    2    1    2    0    0  0.11846772958E+02  0.30319021142E+02  0.11246640011E+04  0.11284149398E+04  0.85974252354E+02 0.  0.
        -13    1    3    3    0    0 -0.33774490664E+02  0.67870046372E+01 -0.23620708937E+03  0.23870602992E+03  0.00000000000E+00 0.  1.
         14    1    3    3    0    0  0.29464439337E+02 -0.45707665883E+01 -0.46530699603E+02  0.55264374584E+02  0.00000000000E+00 0. -1.
         11    1    5    5    0    0 -0.36734374227E+01  0.12449955261E+02  0.22343852151E+02  0.25840728655E+02  0.00000000000E+00 0. -1.
        -12    1    5    5    0    0  0.15520210381E+02  0.17869065881E+02  0.11023201489E+04  0.11025742112E+04  0.00000000000E+00 0.  1.
          5    1    4    4  501    0 -0.50169648482E+02 -0.58557733953E+02  0.44186289037E+02  0.88971357039E+02  0.41800000000E+01 0. -1.
         -5    1    4    4    0  501  0.42632926852E+02  0.26022474762E+02  0.52752302318E+02  0.72766843029E+02  0.41800000000E+01 0. -1.
</event>
<event>
11    1  0.8453735E-009  0.3218309E+03  0.7561462E-02  0.9913530E-01
         22   -1    0    0    0    0  0.00000000000E+00  0.00000000000E+00  0.52237737036E+03  0.52237737036E+03  0.00000000000E+00 0.  1.
         22   -1    0    0    0    0 -0.00000000000E+00 -0.00000000000E+00 -0.18526142905E+04  0.18526142905E+04  0.00000000000E+00 0.  1.
         24    2    1    2    0    0  0.76460014929E+02  0.16033065274E+03 -0.33205405003E+03  0.38494930826E+03  0.79837495570E+02 0.  0.
         25    2    1    2    0    0 -0.62433541986E+02 -0.45127505950E+03 -0.14055290902E+04  0.14828036248E+04  0.12508972791E+03 0.  0.
        -24    2    1    2    0    0 -0.14026472943E+02  0.29094440676E+03  0.40734622001E+03  0.50723872780E+03  0.80714275443E+02 0.  0.
        -11    1    3    3    0    0  0.11613933385E+02  0.14977099957E+02 -0.26876318268E+01  0.19142108991E+02  0.00000000000E+00 0.  1.
         12    1    3    3    0    0  0.64846081543E+02  0.14535355279E+03 -0.32936641820E+03  0.36580719927E+03  0.00000000000E+00 0. -1.
         13    1    5    5    0    0 -0.15103096510E+02  0.46693674600E+02  0.29316047952E+02  0.57164966888E+02  0.00000000000E+00 0. -1.
        -14    1    5    5    0    0  0.10766235670E+01  0.24425073216E+03  0.37803017206E+03  0.45007376092E+03  0.00000000000E+00 0.  1.
          5    1    4    4  501    0  0.11013968070E+02 -0.82341674439E+02 -0.14314975946E+03  0.16556202727E+03  0.41800000000E+01 0.  1.
         -5    1    4    4    0  501 -0.73447510056E+02 -0.36893338507E+03 -0.12623793307E+04  0.13172415976E+04  0.41800000000E+01 0.  1.
</event>
<event>
11    1  0.8453735E-009  0.1370161E+03  0.7561462E-02  0.1110937E+00
         22   -1    0    0    0    0  0.00000000000E+00  0.00000000000E+00  0.20166503986E+04  0.20166503986E+04  0.00000000000E+00 0. -1.
         22   -1    0    0    0    0 -0.00000000000E+00 -0.00000000000E+00 -0.12948839020E+03  0.12948839020E+03  0.00000000000E+00 0.  1.
         24    2    1    2    0    0  0.11227086948E+02  0.25876995760E+01 -0.10710063919E+03  0.13584371438E+03  0.82766080910E+02 0.  0.
         25    2    1    2    0    0  0.26953999067E+02  0.41225330494E+02  0.73508170214E+03  0.74727451849E+03  0.12509217093E+03 0.  0.
        -24    2    1    2    0    0 -0.38181086016E+02 -0.43813030070E+02  0.12591809455E+04  0.12630205560E+04  0.79415957896E+02 0.  0.
        -11    1    3    3    0    0 -0.28083394750E+02  0.18297611833E+02 -0.76764119831E+02  0.83762818439E+02  0.00000000000E+00 0.  1.
         12    1    3    3    0    0  0.39310481698E+02 -0.15709912257E+02 -0.30336519363E+02  0.52080895936E+02  0.00000000000E+00 0. -1.
         11    1    5    5    0    0 -0.35781785417E+02  0.11798765174E+01  0.93929164419E+03  0.93997368108E+03  0.00000000000E+00 0. -1.
        -12    1    5    5    0    0 -0.23993005982E+01 -0.44992906587E+02  0.31988930131E+03  0.32304687489E+03  0.00000000000E+00 0.  1.
          5    1    4    4  501    0 -0.12473551594E+02 -0.23127094872E+02  0.49184710305E+03  0.49256623634E+03  0.41800000000E+01 0.  1.
         -5    1    4    4    0  501  0.39427550662E+02  0.64352425365E+02  0.24323459909E+03  0.25470828215E+03  0.41800000000E+01 0.  1.
</event>
<event>
11    1  0.8453735E-009  0.2748464E+03  0.7561462E-02  0.1011437E+00
         22   -1    0    0    0    0  0.00000000000E+00  0.00000000000E+00  0.15408948732E+03  0.15408948732E+03  0.00000000000E+00 0. -1.
         22   -1    0    0    0    0 -0.00000000000E+00 -0.00000000000E+00 -0.18225619868E+04  0.18225619868E+04  0.00000000000E+00 0.  1.
        -24    2    1    2    0    0 -0.12190575413E+03 -0.73521944415E+02 -0.32552369855E+03  0.36429075938E+03  0.80471049780E+02 0.  0.
         25    2    1    2    0    0  0.46887503229E+02  0.30289705421E+03 -0.13166165548E+04  0.13575980093E+04  0.12509252260E+03 0.  0.
         24    2    1    2    0    0  0.75018250904E+02 -0.22937510980E+03 -0.26332246168E+02  0.25476270543E+03  0.77265580460E+02 0.  0.
        -13    1    5    5    0    0  0.47170339782E+02 -0.46362177009E+02  0.75449825385E+01  0.66568905456E+02  0.00000000000E+00 0.  1.
         14    1    5    5    0    0  0.27847911123E+02 -0.18301293279E+03 -0.33877228706E+02  0.18819379997E+03  0.00000000000E+00 0. -1.
         13    1    3    3    0    0 -0.14166900010E+02  0.14630384417E+02 -0.74703268917E+02  0.77429500780E+02  0.00000000000E+00 0. -1.
        -14    1    3    3    0    0 -0.10773885412E+03 -0.88152328832E+02 -0.25082042963E+03  0.28686125860E+03  0.00000000000E+00 0.  1.
          5    1    4    4  501    0  0.88412301001E+02  0.16888826033E+03 -0.75194550197E+03  0.77574447454E+03  0.41800000000E+01 0. -1.
         -5    1    4    4    0  501 -0.41524797772E+02  0.13400879389E+03 -0.56467105279E+03  0.58185353478E+03  0.41800000000E+01 0. -1.
</event>
<event>
11    1  0.8453735E-009  0.1416724E+03  0.7561462E-02  0.1105705E+00
         22   -1    0    0    0    0  0.00000000000E+00  0.00000000000E+00  0.16056180908E+04  0.16056180908E+04  0.00000000000E+00 0. -1.
         22   -1    0    0    0    0 -0.00000000000E+00 -0.00000000000E+00 -0.40627129317E+02  0.40627129317E+02  0.00000000000E+00 0.  1.
        -24    2    1    2    0    0  0.60197391931E+02  0.18793534588E+02  0.62395175172E+02  0.12009254063E+03  0.80945274685E+02 0.  0.
         25    2    1    2    0    0 -0.89721443896E+02 -0.13192671847E+02  0.60586170195E+03  0.62525179131E+03  0.12508963411E+03 0.  0.
         24    2    1    2    0    0  0.29524051966E+02 -0.56008627410E+01  0.89673408440E+03  0.90090088821E+03  0.81162509489E+02 0.  0.
        -13    1    5    5    0    0 -0.13417779837E+02 -0.18596843781E+02  0.88509452468E+02  0.91431956069E+02  0.00000000000E+00 0.  1.
         14    1    5    5    0    0  0.42941831803E+02  0.12995981040E+02  0.80822463193E+03  0.80946893214E+03  0.00000000000E+00 0. -1.
         11    1    3    3    0    0 -0.95773353432E+01  0.30049955506E+02  0.24210313030E+02  0.39760085955E+02  0.00000000000E+00 0. -1.
        -12    1    3    3    0    0  0.69774727274E+02 -0.11256420918E+02  0.38184862143E+02  0.80332454680E+02  0.00000000000E+00 0.  1.
          5    1    4    4  501    0 -0.10624637290E+03  0.26850319326E+02  0.46833265130E+03  0.48100122253E+03  0.41800000000E+01 0. -1.
         -5    1    4    4    0  501  0.16524929001E+02 -0.40042991172E+02  0.13752905065E+03  0.14425056878E+03  0.41800000000E+01 0. -1.
</event>
<event>
11    1  0.8453735E-009  0.1458359E+03  0.7561462E-02  0.1101211E+00
         22   -1    0    0    0    0  0.00000000000E+00  0.00000000000E+00  0.12207531556E+04  0.12207531556E+04  0.00000000000E+00 0. -1.
         22   -1    0    0    0    0 -0.00000000000E+00 -0.00000000000E+00 -0.32315963218E+03  0.32315963218E+03  0.00000000000E+00 0. -1.
         24    2    1    2    0    0  0.30775116081E+02  0.73572016952E+02 -0.26538039066E+03  0.28841222725E+03  0.79968191378E+02 0.  0.
         25    2    1    2    0    0 -0.49989685345E+02 -0.12437088556E+02  0.59952327645E+02  0.14796760292E+03  0.12508589094E+03 0.  0.
        -24    2    1    2    0    0  0.19214569264E+02 -0.61134928396E+02  0.11030215864E+04  0.11075329576E+04  0.76589508915E+02 0.  0.
        -11    1    3    3    0    0 -0.10773443280E+02  0.83528770440E+01 -0.18338894517E+01  0.13755027646E+02  0.00000000000E+00 0.  1.
         12    1    3    3    0    0  0.41548559360E+02  0.65219139908E+02 -0.26354650121E+03  0.27465719961E+03  0.00000000000E+00 0. -1.
         13    1    5    5    0    0  0.14187411517E+02 -0.23603634950E+02  0.93037643611E+03  0.93078393148E+03  0.00000000000E+00 0. -1.
        -14    1    5    5    0    0  0.50271577463E+01 -0.37531293446E+02  0.17264515033E+03  0.17674902612E+03  0.00000000000E+00 0.  1.
          5    1    4    4  501    0 -0.89636482079E+02 -0.20503632114E+02  0.27900432648E+02  0.96182141748E+02  0.41800000000E+01 0. -1.
         -5    1    4    4    0  501  0.39646796734E+02  0.80665435581E+01  0.32051894997E+02  0.51785461176E+02  0.41800000000E+01 0. -1.
</event>
<event>
11    1  0.8453735E-009  0.1546094E+03  0.7561462E-02  0.1092260E+00
         22   -1    0    0    0    0  0.00000000000E+00  0.00000000000E+00  0.16749458377E+04  0.16749458377E+04  0.00000000000E+00 0.  1.
         22   -1    0    0    0    0 -0.00000000000E+00 -0.00000000000E+00 -0.18106558852E+03  0.18106558852E+03  0.00000000000E+00 0.  1.
        -24    2    1    2    0    0 -0.36222469828E+02  0.87661472020E+02 -0.88386047766E+02  0.15256129448E+03  0.80413022184E+02 0.  0.
         25    2    1    2    0    0 -0.77891364908E+01 -0.86049990454E+02  0.38411049767E+02  0.15680607001E+03  0.12508982110E+03 0.  0.
         24    2    1    2    0    0  0.44011606319E+02 -0.16114815654E+01  0.15438552471E+04  0.15466440617E+04  0.81726440585E+02 0.  0.
        -11    1    5    5    0    0  0.35638906214E+02 -0.27006089399E+02  0.13713438433E+04  0.13720726647E+04  0.00000000000E+00 0.  1.
         12    1    5    5    0    0  0.83727001045E+01  0.25394607834E+02  0.17251140382E+03  0.17457139703E+03  0.00000000000E+00 0. -1.
         13    1    3    3    0    0 -0.59165093475E+02  0.42352709354E+02 -0.60464713425E+02  0.94605717825E+02  0.00000000000E+00 0. -1.
        -14    1    3    3    0    0  0.22942623648E+02  0.45308762666E+02 -0.27921334341E+02  0.57955576656E+02  0.00000000000E+00 0.  1.
          5    1    4    4  501    0  0.32306853510E+02  0.63933956389E+00  0.50852759769E+02  0.60395505751E+02  0.41800000000E+01 0. -1.
         -5    1    4    4    0  501 -0.40095990001E+02 -0.86689330018E+02 -0.12441710002E+02  0.96410564260E+02  0.41800000000E+01 0. -1.
</event>
<event>
11    1  0.8453735E-009  0.1533035E+03  0.7561462E-02  0.1093550E+00
         22   -1    0    0    0    0  0.00000000000E+00  0.00000000000E+00  0.75045320775E+03  0.75045320775E+03  0.00000000000E+00 0.  1.
         22   -1    0    0    0    0 -0.00000000000E+00 -0.00000000000E+00 -0.34465769097E+03  0.34465769097E+03  0.00000000000E+00 0.  1.
         24    2    1    2    0    0 -0.65160352889E+02  0.16663371929E+02 -0.23282251120E+03  0.25566169150E+03  0.81443472589E+02 0.  0.
         25    2    1    2    0    0  0.10517952294E+03  0.61428030814E+02 -0.14756617222E+02  0.17521876871E+03  0.12509086353E+03 0.  0.
        -24    2    1    2    0    0 -0.40019170055E+02 -0.78091402743E+02  0.65337464520E+03  0.66423043852E+03  0.81264059167E+02 0.  0.
        -11    1    3    3    0    0 -0.50372322007E+02  0.20990594576E+02 -0.23393288761E+03  0.24021359618E+03  0.00000000000E+00 0.  1.
         12    1    3    3    0    0 -0.14788030882E+02 -0.43272226470E+01  0.11103764112E+01  0.15448095319E+02  0.00000000000E+00 0. -1.
         11    1    5    5    0    0  0.58029675733E-01  0.16204202642E+02  0.64214691953E+02  0.66227684644E+02  0.00000000000E+00 0. -1.
        -12    1    5    5    0    0 -0.40077199731E+02 -0.94295605385E+02  0.58915995324E+03  0.59800275387E+03  0.00000000000E+00 0.  1.
          5    1    4    4  501    0 -0.62830594915E+01  0.20219972052E+02 -0.47253242973E+02  0.51948681194E+02  0.41800000000E+01 0.  1.
         -5    1    4    4    0  501  0.11146258244E+03  0.41208058762E+02  0.32496625751E+02  0.12327008751E+03  0.41800000000E+01 0.  1.
</event>
<event>
11    1  0.8453735E-009  0.1338818E+03  0.7561462E-02  0.1114589E+00
         22   -1    0    0    0    0  0.00000000000E+00  0.00000000000E+00  0.17240903701E+04  0.17240903701E+04  0.00000000000E+00 0.  1.
         22   -1    0    0    0    0 -0.00000000000E+00 -0.00000000000E+00 -0.27230570118E+03  0.27230570118E+03  0.00000000000E+00 0.  1.
         24    2    1    2    0    0  0.84151212820E+01 -0.85066807368E+01 -0.24557093709E+03  0.25849531676E+03  0.79822088172E+02 0.  0.
         25    2    1    2    0    0 -0.50275634237E+02  0.29353688652E+02  0.23692321784E+03  0.27417578152E+03  0.12510183686E+03 0.  0.
        -24    2    1    2    0    0  0.41860512955E+02 -0.20847007915E+02  0.14604323882E+04  0.14637249730E+04  0.86262018912E+02 0.  0.
        -13    1    3    3    0    0 -0.47994721604E+01 -0.13646330882E+01 -0.24324382291E+03  0.24329499489E+03  0.00000000000E+00 0.  1.
         14    1    3    3    0    0  0.13214593442E+02 -0.71420476486E+01 -0.23271141813E+01  0.15200321867E+02  0.00000000000E+00 0. -1.
         13    1    5    5    0    0 -0.15596005201E+02 -0.17903317756E+01  0.61120230347E+02  0.63104066618E+02  0.00000000000E+00 0. -1.
        -14    1    5    5    0    0  0.57456518156E+02 -0.19056676140E+02  0.13993121578E+04  0.14006209064E+04  0.00000000000E+00 0.  1.
          5    1    4    4  501    0 -0.32598029144E+02  0.12664976268E+02  0.24553501576E+03  0.24804828057E+03  0.41800000000E+01 0.  1.
         -5    1    4    4    0  501 -0.17677605093E+02  0.16688712384E+02 -0.86117979170E+01  0.26127500957E+02  0.41800000000E+01 0.  1.
</event>
<event>
11    1  0.8453735E-009  0.1451378E+03  0.7561462E-02  0.1101953E+00
         22   -1    0    0    0    0  0.00000000000E+00  0.00000000000E+00  0.25282544157E+03  0.25282544157E+03  0.00000000000E+00 0. -1.
         22   -1    0    0    0    0 -0.00000000000E+00 -0.00000000000E+00 -0.42199786517E+03  0.42199786517E+03  0.00000000000E+00 0.  1.
        -24    2    1    2    0    0 -0.92280227725E+01  0.16804205340E+02 -0.34382880850E+03  0.35356627409E+03  0.80145635543E+02 0.  0.
         25    2    1    2    0    0  0.67773060340E+02 -0.53286047286E+02  0.55095495798E+02  0.16160558908E+03  0.12509301428E+03 0.  0.
         24    2    1    2    0    0 -0.58545037568E+02  0.36481841946E+02  0.11956088910E+03  0.15965144356E+03  0.80220514918E+02 0.  0.
        -13    1    5    5    0    0 -0.29081774316E+02 -0.23925380427E+02  0.53384669632E+02  0.65330669503E+02  0.00000000000E+00 0.  1.
         14    1    5    5    0    0 -0.29463263252E+02  0.60407222373E+02  0.66176219468E+02  0.94320774061E+02  0.00000000000E+00 0. -1.
         11    1    3    3    0    0  0.42110101750E+00 -0.30406003837E+02 -0.84651730078E+02  0.89947861568E+02  0.00000000000E+00 0. -1.
        -12    1    3    3    0    0 -0.96491237900E+01  0.47210209177E+02 -0.25917707842E+03  0.26361841252E+03  0.00000000000E+00 0.  1.
          5    1    4    4  501    0  0.25532324858E+02  0.38517398092E+02  0.35881043395E+02  0.58655018912E+02  0.41800000000E+01 0.  1.
         -5    1    4    4    0  501  0.42240735483E+02 -0.91803445378E+02  0.19214452403E+02  0.10295057017E+03  0.41800000000E+01 0.  1.
</event>
<event>
11    1  0.8453735E-009  0.1617810E+03  0.7561462E-02  0.1085414E+00
         22   -1    0    0    0    0  0.00000000000E+00  0.00000000000E+00  0.70712885404E+03  0.70712885404E+03  0.00000000000E+00 0. -1.
         22   -1    0    0    0    0 -0.00000000000E+00 -0.00000000000E+00 -0.51144795621E+03  0.51144795621E+03  0.00000000000E+00 0.  1.
         24    2    1    2    0    0  0.44309848914E+02 -0.94934988242E+02 -0.46278185536E+03  0.48201869036E+03  0.84846670525E+02 0.  0.
         25    2    1    2    0    0 -0.44127371856E+02  0.56240857255E+02  0.11011797446E+03  0.18133798880E+03  0.12508892402E+03 0.  0.
        -24    2    1    2    0    0 -0.18247705785E+00  0.38694130986E+02  0.54834477873E+03  0.55522013109E+03  0.78039275571E+02 0.  0.
        -13    1    3    3    0    0  0.51707614819E+02 -0.47122153490E+02 -0.37786096622E+03  0.38428255825E+03  0.00000000000E+00 0.  1.
         14    1    3    3    0    0 -0.73977659055E+01 -0.47812834751E+02 -0.84920889136E+02  0.97736132106E+02  0.00000000000E+00 0. -1.
         11    1    5    5    0    0  0.32794137771E+02  0.17473424339E+02  0.40195791532E+03  0.40367182429E+03  0.00000000000E+00 0. -1.
        -12    1    5    5    0    0 -0.32976614829E+02  0.21220706648E+02  0.14638686341E+03  0.15154830680E+03  0.00000000000E+00 0.  1.
          5    1    4    4  501    0  0.87915913853E+01 -0.31744637634E+02  0.37066838133E+01  0.33409968609E+02  0.41800000000E+01 0.  1.
         -5    1    4    4    0  501 -0.52918963241E+02  0.87985494889E+02  0.10641129064E+03  0.14792802019E+03  0.41800000000E+01 0.  1.
</event>
<event>
11    1  0.8875233E-009  0.1451111E+03  0.7561462E-02  0.1101982E+00
         22   -1    0    0    0    0  0.00000000000E+00  0.00000000000E+00  0.58566601966E+03  0.58566601966E+03  0.00000000000E+00 0. -1.
         22   -1    0    0    0    0 -0.00000000000E+00 -0.00000000000E+00 -0.64121952929E+03  0.64121952929E+03  0.00000000000E+00 0.  1.
        -24    2    1    2    0    0 -0.15963397158E+02  0.44436122292E+02 -0.45281733954E+03  0.46220392901E+03  0.79746661307E+02 0.  0.
         25    2    1    2    0    0  0.56622615843E+02 -0.10407444935E+03 -0.13656270060E+03  0.21985154619E+03  0.12509084513E+03 0.  0.
         24    2    1    2    0    0 -0.40659218684E+02  0.59638327063E+02  0.53382653052E+03  0.54483007374E+03  0.81603568844E+02 0.  0.
        -13    1    5    5    0    0 -0.17301792601E+02  0.75728292790E+01  0.18788346247E+02  0.26640227574E+02  0.00000000000E+00 0.  1.
         14    1    5    5    0    0 -0.23357426084E+02  0.52065497784E+02  0.51503818428E+03  0.51818984617E+03  0.00000000000E+00 0. -1.
         11    1    3    3    0    0 -0.44019127072E+01  0.12125786075E+02 -0.62756385410E+01  0.14345562468E+02  0.00000000000E+00 0. -1.
        -12    1    3    3    0    0 -0.11561484451E+02  0.32310336217E+02 -0.44654170100E+03  0.44785836654E+03  0.00000000000E+00 0.  1.
          5    1    4    4  501    0  0.95287383896E+02 -0.57573778772E+02 -0.94211914860E+02  0.14590333387E+03  0.41800000000E+01 0.  1.
         -5    1    4    4    0  501 -0.38664768053E+02 -0.46500670583E+02 -0.42350785744E+02  0.73948212327E+02  0.41800000000E+01 0.  1.
</event>
<event>
11    1  0.8453735E-009  0.1541319E+03  0.7561462E-02  0.1092730E+00
         22   -1    0    0    0    0  0.00000000000E+00  0.00000000000E+00  0.11722599395E+04  0.11722599395E+04  0.00000000000E+00 0.  1.
         22   -1    0    0    0    0 -0.00000000000E+00 -0.00000000000E+00 -0.82848718876E+02  0.82848718876E+02  0.00000000000E+00 0.  1.
        -24    2    1    2    0    0 -0.19159214317E+02  0.15680480866E+02 -0.93836198553E+01  0.84234023931E+02  0.79964776574E+02 0.  0.
         25    2    1    2    0    0  0.83436890478E+02  0.46906409379E+02  0.16039276002E+03  0.22480096434E+03  0.12509080769E+03 0.  0.
         24    2    1    2    0    0 -0.64277676160E+02 -0.62586890245E+02  0.93840208047E+03  0.94607367012E+03  0.80051147265E+02 0.  0.
        -13    1    5    5    0    0 -0.15482097298E+02  0.17699744794E+02  0.28247920915E+03  0.28345631040E+03  0.00000000000E+00 0.  1.
         14    1    5    5    0    0 -0.48795578862E+02 -0.80286635039E+02  0.65592287132E+03  0.66261735972E+03  0.00000000000E+00 0. -1.
         13    1    3    3    0    0  0.13049677080E+02 -0.11056750602E+02  0.24843484147E+02  0.30161971260E+02  0.00000000000E+00 0. -1.
        -14    1    3    3    0    0 -0.32208891397E+02  0.26737231468E+02 -0.34227104002E+02  0.54072052670E+02  0.00000000000E+00 0.  1.
          5    1    4    4  501    0 -0.31330468168E+02  0.16988637411E+02  0.20412769811E+02  0.41283963086E+02  0.41800000000E+01 0. -1.
         -5    1    4    4    0  501  0.11476735865E+03  0.29917771968E+02  0.13997999021E+03  0.18351700126E+03  0.41800000000E+01 0. -1.
</event>
<event>
11    1  0.8453735E-009  0.1882450E+03  0.7561462E-02  0.1063162E+00
         22   -1    0    0    0    0  0.00000000000E+00  0.00000000000E+00  0.19384454939E+03  0.19384454939E+03  0.00000000000E+00 0. -1.
         22   -1    0    0    0    0 -0.00000000000E+00 -0.00000000000E+00 -0.22060944429E+04  0.22060944429E+04  0.00000000000E+00 0. -1.
         24    2    1    2    0    0 -0.78729127719E+02  0.59361762980E+01 -0.20111847648E+04  0.20142856760E+04  0.79051329377E+02 0.  0.
         25    2    1    2    0    0  0.13034662540E+03  0.11582358847E+03 -0.58352283888E+02  0.22239030642E+03  0.12508842055E+03 0.  0.
        -24    2    1    2    0    0 -0.51617497676E+02 -0.12175976477E+03  0.57287155177E+02  0.16326300985E+03  0.76701928609E+02 0.  0.
        -13    1    3    3    0    0 -0.12949084892E+01  0.22599212898E+02 -0.89858937425E+03  0.89887444325E+03  0.00000000000E+00 0.  1.
         14    1    3    3    0    0 -0.77434219230E+02 -0.16663036600E+02 -0.11125953906E+04  0.11154112328E+04  0.00000000000E+00 0. -1.
         11    1    5    5    0    0 -0.45012529698E+02 -0.52514919777E+02  0.62883955082E+02  0.93479069506E+02  0.00000000000E+00 0. -1.
        -12    1    5    5    0    0 -0.66049679785E+01 -0.69244844995E+02 -0.55967999043E+01  0.69783940342E+02  0.00000000000E+00 0.  1.
          5    1    4    4  501    0  0.12170541790E+03  0.14025024710E+03 -0.39025046065E+02  0.18979664691E+03  0.41800000000E+01 0.  1.
         -5    1    4    4    0  501  0.86412074971E+01 -0.24426658626E+02 -0.19327237823E+02  0.32593659514E+02  0.41800000000E+01 0.  1.
</event>
<event>
11    1  0.8453735E-009  0.1430819E+03  0.7561462E-02  0.1104165E+00
         22   -1    0    0    0    0  0.00000000000E+00  0.00000000000E+00  0.25161439638E+03  0.25161439638E+03  0.00000000000E+00 0. -1.
         22   -1    0    0    0    0 -0.00000000000E+00 -0.00000000000E+00 -0.12406985122E+04  0.12406985122E+04  0.00000000000E+00 0.  1.
         24    2    1    2    0    0 -0.58148689153E+02  0.38103046504E+02 -0.99211013636E+03  0.99787658066E+03  0.81498683174E+02 0.  0.
         25    2    1    2    0    0  0.31732104170E+02 -0.74437408386E+02 -0.21296948094E+03  0.25990804915E+03  0.12509332516E+03 0.  0.
        -24    2    1    2    0    0  0.26416584983E+02  0.36334361882E+02  0.21599550147E+03  0.23452827877E+03  0.79570315259E+02 0.  0.
        -11    1    3    3    0    0 -0.40897951365E+02  0.45103015415E+02 -0.94858754714E+03  0.95053945684E+03  0.00000000000E+00 0.  1.
         12    1    3    3    0    0 -0.17250737787E+02 -0.69999689108E+01 -0.43522589224E+02  0.47337123822E+02  0.00000000000E+00 0. -1.
         13    1    5    5    0    0  0.23568049430E+02  0.21164611352E+02  0.21677171741E+03  0.21907389437E+03  0.00000000000E+00 0. -1.
        -14    1    5    5    0    0  0.28485355522E+01  0.15169750530E+02 -0.77621593405E+00  0.15454384397E+02  0.00000000000E+00 0.  1.
          5    1    4    4  501    0 -0.17144612089E+02  0.17276030913E+02 -0.11292430515E+03  0.11559312290E+03  0.41800000000E+01 0. -1.
         -5    1    4    4    0  501  0.48876716259E+02 -0.91713439299E+02 -0.10004517579E+03  0.14431492625E+03  0.41800000000E+01 0. -1.
</event>
<event>
11    1  0.8453735E-009  0.1444322E+03  0.7561462E-02  0.1102708E+00
         22   -1    0    0    0    0  0.00000000000E+00  0.00000000000E+00  0.33718704369E+04  0.33718704369E+04  0.00000000000E+00 0. -1.
         22   -1    0    0    0    0 -0.00000000000E+00 -0.00000000000E+00 -0.22632424909E+03  0.22632424909E+03  0.00000000000E+00 0. -1.
        -24    2    1    2    0    0 -0.49651488224E+02 -0.55605703437E+02 -0.20035252747E+03  0.22745981844E+03  0.77714665319E+02 0.  0.
         25    2    1    2    0    0  0.27503804829E+00  0.17424591540E+02  0.33417689928E+03  0.35724068989E+03  0.12507205309E+03 0.  0.
         24    2    1    2    0    0  0.49376450176E+02  0.38181111898E+02  0.30117218160E+04  0.30134941777E+04  0.82359156298E+02 0.  0.
        -13    1    5    5    0    0 -0.10852569649E+02  0.21801960982E+02  0.27935380212E+03  0.28041335654E+03  0.00000000000E+00 0.  1.
         14    1    5    5    0    0  0.60229019826E+02  0.16379150916E+02  0.27323680139E+04  0.27330808211E+04  0.00000000000E+00 0. -1.
         11    1    3    3    0    0  0.18936226689E+02 -0.15084756146E+02 -0.76139912941E+02  0.79896288348E+02  0.00000000000E+00 0. -1.
        -12    1    3    3    0    0 -0.68587714913E+02 -0.40520947292E+02 -0.12421261453E+03  0.14756353009E+03  0.00000000000E+00 0.  1.
          5    1    4    4  501    0  0.21197532118E+02  0.96676057715E+00 -0.35011977240E+00  0.21630186725E+02  0.41800000000E+01 0.  1.
         -5    1    4    4    0  501 -0.20922494069E+02  0.16457830962E+02  0.33452701906E+03  0.33561050317E+03  0.41800000000E+01 0.  1.
</event>
<event>
11    1  0.8453735E-009  0.2763505E+03  0.7561462E-02  0.1010729E+00
         22   -1    0    0    0    0  0.00000000000E+00  0.00000000000E+00  0.17301031148E+04  0.17301031148E+04  0.00000000000E+00 0.  1.
         22   -1    0    0    0    0 -0.00000000000E+00 -0.00000000000E+00 -0.52908013890E+03  0.52908013890E+03  0.00000000000E+00 0.  1.
        -24    2    1    2    0    0  0.71066907012E+02  0.14842189467E+02 -0.20903513502E+03  0.23598653037E+03  0.81994871682E+02 0.  0.
         25    2    1    2    0    0 -0.28524343766E+03 -0.13195243628E+03 -0.19985346152E+03  0.39289447536E+03  0.12509755600E+03 0.  0.
         24    2    1    2    0    0  0.21417653065E+03  0.11711024681E+03  0.16099115725E+04  0.16303022480E+04  0.80521751267E+02 0.  0.
        -13    1    5    5    0    0  0.16447603241E+03  0.11276571919E+03  0.10977588132E+04  0.11157252729E+04  0.00000000000E+00 0.  1.
         14    1    5    5    0    0  0.49700498241E+02  0.43445276166E+01  0.51215275931E+03  0.51457697511E+03  0.00000000000E+00 0. -1.
         13    1    3    3    0    0 -0.73740520353E+01 -0.80654861857E+01  0.64303200183E+00  0.10947246274E+02  0.00000000000E+00 0. -1.
        -14    1    3    3    0    0  0.78440959047E+02  0.22907675653E+02 -0.20967816702E+03  0.22503928410E+03  0.00000000000E+00 0.  1.
          5    1    4    4  501    0 -0.26983434037E+03 -0.12209215245E+03 -0.21723017940E+03  0.36731932725E+03  0.41800000000E+01 0. -1.
         -5    1    4    4    0  501 -0.15409097291E+02 -0.98602838237E+01  0.17376717875E+02  0.25575148103E+02  0.41800000000E+01 0. -1.
</event>
<event>
11    1  0.1498318E-008  0.1861460E+03  0.7561462E-02  0.1064777E+00
         22   -1    0    0    0    0  0.00000000000E+00  0.00000000000E+00  0.23306753941E+04  0.23306753941E+04  0.00000000000E+00 0.  1.
         22   -1    0    0    0    0 -0.00000000000E+00 -0.00000000000E+00 -0.22560498165E+03  0.22560498165E+03  0.00000000000E+00 0.  1.
         24    2    1    2    0    0  0.67833583850E+01  0.48487705484E+01 -0.11882647804E+03  0.13695469197E+03  0.67582033418E+02 0.  0.
         25    2    1    2    0    0  0.93237368137E+01  0.13222217050E+03 -0.69169685325E+01  0.18239596734E+03  0.12510319744E+03 0.  0.
        -24    2    1    2    0    0 -0.16107095199E+02 -0.13707094105E+03  0.22308138590E+04  0.22369297164E+04  0.90973629697E+02 0.  0.
        -11    1    3    3    0    0 -0.67659321975E+00 -0.94315005743E+01 -0.12039625580E+03  0.12076700456E+03  0.00000000000E+00 0.  1.
         12    1    3    3    0    0  0.74599516047E+01  0.14280271123E+02  0.15697777533E+01  0.16187687404E+02  0.00000000000E+00 0. -1.
         13    1    5    5    0    0 -0.45841998650E+01 -0.11827970609E+03  0.11878835138E+04  0.11937664538E+04  0.00000000000E+00 0. -1.
        -14    1    5    5    0    0 -0.11522895334E+02 -0.18791234961E+02  0.10429303452E+04  0.10431632626E+04  0.00000000000E+00 0.  1.
          5    1    4    4  501    0 -0.14098408026E+02  0.71275706661E+02  0.55844939724E+02  0.91733969508E+02  0.41800000000E+01 0. -1.
         -5    1    4    4    0  501  0.23422144840E+02  0.60946463841E+02 -0.62761908256E+02  0.90661997836E+02  0.41800000000E+01 0. -1.
</event>
<event>
11    1  0.8453735E-009  0.2159509E+03  0.7561462E-02  0.1043784E+00
         22   -1    0    0    0    0  0.00000000000E+00  0.00000000000E+00  0.34933486281E+03  0.34933486281E+03  0.00000000000E+00 0.  1.
         22   -1    0    0    0    0 -0.00000000000E+00 -0.00000000000E+00 -0.28731767937E+03  0.28731767937E+03  0.00000000000E+00 0. -1.
        -24    2    1    2    0    0  0.62181979689E+02 -0.13217792417E+03 -0.62402148347E+02  0.17725264867E+03  0.78656666016E+02 0.  0.
         25    2    1    2    0    0 -0.12770301658E+03  0.21896152117E+03  0.11751434683E+02  0.28290984013E+03  0.12509066004E+03 0.  0.
         24    2    1    2    0    0  0.65521036886E+02 -0.86783597001E+02  0.11266789710E+03  0.17649005338E+03  0.81426561524E+02 0.  0.
        -13    1    5    5    0    0  0.17052138383E+02 -0.21323385516E+02  0.86856980733E+02  0.91047225633E+02  0.00000000000E+00 0.  1.
         14    1    5    5    0    0  0.48468898503E+02 -0.65460211485E+02  0.25810916370E+02  0.85442827748E+02  0.00000000000E+00 0. -1.
         13    1    3    3    0    0  0.25439891769E+01 -0.84028546981E+02 -0.10582260137E+02  0.84730471604E+02  0.00000000000E+00 0. -1.
        -14    1    3    3    0    0  0.59637990512E+02 -0.48149377186E+02 -0.51819888210E+02  0.92522177070E+02  0.00000000000E+00 0.  1.
          5    1    4    4  501    0 -0.11793176798E+03  0.14382159580E+03  0.56977760716E+02  0.19456744572E+03  0.41800000000E+01 0. -1.
         -5    1    4    4    0  501 -0.97712485972E+01  0.75139925368E+02 -0.45226326033E+02  0.88342394409E+02  0.41800000000E+01 0. -1.
</event>
<event>
11    1  0.8453735E-009  0.1854819E+03  0.7561462E-02  0.1065293E+00
         22   -1    0    0    0    0  0.00000000000E+00  0.00000000000E+00  0.53102112994E+02  0.53102112994E+02  0.00000000000E+00 0. -1.
         22   -1    0    0    0    0 -0.00000000000E+00 -0.00000000000E+00 -0.13797457037E+04  0.13797457037E+04  0.00000000000E+00 0. -1.
        -24    2    1    2    0    0 -0.11513949421E+03 -0.71834097407E+02 -0.68739055920E+03  0.70531356017E+03  0.80896208826E+02 0.  0.
         25    2    1    2    0    0  0.11912802557E+03  0.71437619104E+02 -0.61133283484E+03  0.63927289499E+03  0.12508868621E+03 0.  0.
         24    2    1    2    0    0 -0.39885313605E+01  0.39647830228E+00 -0.27920196618E+02  0.88261361486E+02  0.83632918009E+02 0.  0.
        -13    1    5    5    0    0  0.36496237947E+02  0.50687090432E+01 -0.29911751767E+02  0.47459246616E+02  0.00000000000E+00 0.  1.
         14    1    5    5    0    0 -0.40484769307E+02 -0.46722307409E+01  0.19915551491E+01  0.40802114870E+02  0.00000000000E+00 0. -1.
         11    1    3    3    0    0 -0.34927727562E+02 -0.50260116726E+02 -0.44266108373E+03  0.44687230898E+03  0.00000000000E+00 0. -1.
        -12    1    3    3    0    0 -0.80211766644E+02 -0.21573980681E+02 -0.24472947548E+03  0.25844125119E+03  0.00000000000E+00 0.  1.
          5    1    4    4  501    0 -0.81382196064E+01 -0.21563031549E+02 -0.37886594841E+02  0.44542804319E+02  0.41800000000E+01 0.  1.
         -5    1    4    4    0  501  0.12726624517E+03  0.93000650654E+02 -0.57344624000E+03  0.59473009067E+03  0.41800000000E+01 0.  1.
</event>
<event>
11    1  0.8453735E-009  0.1467120E+03  0.7561462E-02  0.1100287E+00
         22   -1    0    0    0    0  0.00000000000E+00  0.00000000000E+00  0.80305979384E+03  0.80305979384E+03  0.00000000000E+00 0. -1.
         22   -1    0    0    0    0 -0.00000000000E+00 -0.00000000000E+00 -0.30914231921E+03  0.30914231921E+03  0.00000000000E+00 0.  1.
         24    2    1    2    0    0 -0.59977005302E+02 -0.31417301187E+02 -0.21720229905E+03  0.24115207564E+03  0.79957469270E+02 0.  0.
         25    2    1    2    0    0  0.32298944829E+02  0.10219220174E+03  0.16617563479E+02  0.16556838667E+03  0.12510107639E+03 0.  0.
        -24    2    1    2    0    0  0.27678060474E+02 -0.70774900549E+02  0.69450221021E+03  0.70548165075E+03  0.97958552370E+02 0.  0.
        -13    1    3    3    0    0 -0.63774836005E+02 -0.52912092254E+02 -0.17562495179E+03  0.19419331323E+03  0.00000000000E+00 0.  1.
         14    1    3    3    0    0  0.37978307028E+01  0.21494791066E+02 -0.41577347268E+02  0.46958762408E+02  0.00000000000E+00 0. -1.
         13    1    5    5    0    0  0.33438917062E+02 -0.83772129004E+02  0.67676806772E+03  0.68275247950E+03  0.00000000000E+00 0. -1.
        -14    1    5    5    0    0 -0.57608565884E+01  0.12997228454E+02  0.17734142487E+02  0.22729171254E+02  0.00000000000E+00 0.  1.
          5    1    4    4  501    0  0.56711731635E+02  0.55374077677E+01  0.30604450587E+02  0.64815030553E+02  0.41800000000E+01 0. -1.
         -5    1    4    4    0  501 -0.24412786806E+02  0.96654793969E+02 -0.13986887108E+02  0.10075335611E+03  0.41800000000E+01 0. -1.
</event>
<event>
11    1  0.8453735E-009  0.2331824E+03  0.7561462E-02  0.1033260E+00
         22   -1    0    0    0    0  0.00000000000E+00  0.00000000000E+00  0.16663869922E+04  0.16663869922E+04  0.00000000000E+00 0. -1.
         22   -1    0    0    0    0 -0.00000000000E+00 -0.00000000000E+00 -0.36174828967E+03  0.36174828967E+03  0.00000000000E+00 0. -1.
        -24    2    1    2    0    0  0.47984195625E+02  0.44133446035E+01 -0.28033442738E+03  0.29485651208E+03  0.77659583450E+02 0.  0.
         25    2    1    2    0    0 -0.13776855673E+03 -0.17634891859E+03  0.18167294505E+03  0.31421624364E+03  0.12509065709E+03 0.  0.
         24    2    1    2    0    0  0.89784361106E+02  0.17193557399E+03  0.14033001849E+04  0.14190625262E+04  0.82849086728E+02 0.  0.
        -13    1    5    5    0    0  0.24349346098E+02  0.18179942593E+02  0.86091784429E+02  0.91297296314E+02  0.00000000000E+00 0.  1.
         14    1    5    5    0    0  0.65435015008E+02  0.15375563139E+03  0.13172084004E+04  0.13277652298E+04  0.00000000000E+00 0. -1.
         13    1    3    3    0    0  0.59024892178E+02 -0.21723435319E+02 -0.20020670706E+03  0.20985368973E+03  0.00000000000E+00 0. -1.
        -14    1    3    3    0    0 -0.11040696553E+02  0.26136779922E+02 -0.80127720320E+02  0.85002822358E+02  0.00000000000E+00 0.  1.
          5    1    4    4  501    0  0.11001129534E+01  0.10997660112E+02  0.39113520142E+02  0.40859498704E+02  0.41800000000E+01 0. -1.
         -5    1    4    4    0  501 -0.13886866969E+03 -0.18734657870E+03  0.14255942491E+03  0.27335674494E+03  0.41800000000E+01 0. -1.
</event>
<event>
11    1  0.8453735E-009  0.2635883E+03  0.7561462E-02  0.1016900E+00
         22   -1    0    0    0    0  0.00000000000E+00  0.00000000000E+00  0.74608406429E+03  0.74608406429E+03  0.00000000000E+00 0. -1.
         22   -1    0    0    0    0 -0.00000000000E+00 -0.00000000000E+00 -0.13797418662E+03  0.13797418662E+03  0.00000000000E+00 0. -1.
         24    2    1    2    0    0 -0.37763203481E+02 -0.49682804256E+02  0.19575960958E+02  0.10325161086E+03  0.79895158318E+02 0.  0.
         25    2    1    2    0    0 -0.12612601430E+03 -0.15821995027E+03  0.26365749149E+03  0.35511143273E+03  0.12509009831E+03 0.  0.
        -24    2    1    2    0    0  0.16388921778E+03  0.20790275452E+03  0.32487642522E+03  0.42569520732E+03  0.74756182511E+02 0.  0.
        -13    1    3    3    0    0 -0.56274954069E+02 -0.32215639176E+02 -0.84515948468E+01  0.65392257327E+02  0.00000000000E+00 0.  1.
         14    1    3    3    0    0  0.18511750588E+02 -0.17467165080E+02  0.28027555805E+02  0.37859353536E+02  0.00000000000E+00 0. -1.
         11    1    5    5    0    0  0.92534562882E+02  0.12542681397E+03  0.24553284570E+03  0.29082797201E+03  0.00000000000E+00 0. -1.
        -12    1    5    5    0    0  0.71354654896E+02  0.82475940555E+02  0.79343579526E+02  0.13486723530E+03  0.00000000000E+00 0.  1.
          5    1    4    4  501    0 -0.37813859726E+02 -0.12405484884E+03  0.92128768017E+02  0.15913728603E+03  0.41800000000E+01 0. -1.
         -5    1    4    4    0  501 -0.88312154572E+02 -0.34165101424E+02  0.17152872347E+03  0.19597414670E+03  0.41800000000E+01 0. -1.
</event>
<event>
11    1  0.8453735E-009  0.1406652E+04  0.7561462E-02  0.8366362E-01
         22   -1    0    0    0    0  0.00000000000E+00  0.00000000000E+00  0.34740104695E+03  0.34740104695E+03  0.00000000000E+00 0.  1.
         22   -1    0    0    0    0 -0.00000000000E+00 -0.00000000000E+00 -0.14239090083E+04  0.14239090083E+04  0.00000000000E+00 0.  1.
        -24    2    1    2    0    0  0.16893442859E+02 -0.18672873611E+02 -0.86088880486E+02  0.12312713480E+03  0.84350052524E+02 0.  0.
         25    2    1    2    0    0 -0.63962984826E+03  0.14230506016E+03 -0.40161114795E+03  0.77866259087E+03  0.12508734279E+03 0.  0.
         24    2    1    2    0    0  0.62273640540E+03 -0.12363218655E+03 -0.58880793289E+03  0.86952032956E+03  0.79279716952E+02 0.  0.
        -13    1    5    5    0    0  0.37058823687E+03 -0.11060490836E+03 -0.37444829711E+03  0.53831274764E+03  0.00000000000E+00 0.  1.
         14    1    5    5    0    0  0.25214816854E+03 -0.13027278185E+02 -0.21435963577E+03  0.33120758192E+03  0.00000000000E+00 0. -1.
         13    1    3    3    0    0  0.14922482370E+01 -0.30294932730E+02  0.43598454342E+01  0.30643400694E+02  0.00000000000E+00 0. -1.
        -14    1    3    3    0    0  0.15401194622E+02  0.11622059119E+02 -0.90448725920E+02  0.92483734108E+02  0.00000000000E+00 0.  1.
          5    1    4    4  501    0 -0.36995421989E+03  0.68389351479E+02 -0.29969365774E+03  0.48101662040E+03  0.41800000000E+01 0.  1.
         -5    1    4    4    0  501 -0.26967562837E+03  0.73915708679E+02 -0.10191749022E+03  0.29764597047E+03  0.41800000000E+01 0.  1.
</event>
<event>
11    1  0.8453735E-009  0.8585027E+03  0.7561462E-02  0.8826633E-01
         22   -1    0    0    0    0  0.00000000000E+00  0.00000000000E+00  0.24522270042E+04  0.24522270042E+04  0.00000000000E+00 0. -1.
         22   -1    0    0    0    0 -0.00000000000E+00 -0.00000000000E+00 -0.52876036294E+03  0.52876036294E+03  0.00000000000E+00 0. -1.
         24    2    1    2    0    0  0.21254839219E+03  0.33978569902E+03  0.58130166859E+02  0.41300660537E+03  0.81019747564E+02 0.  0.
         25    2    1    2    0    0 -0.96085293502E+03 -0.98345013945E+02  0.10452209489E+04  0.14286507190E+04  0.12508373334E+03 0.  0.
        -24    2    1    2    0    0  0.74830454283E+03 -0.24144068508E+03  0.82011552544E+03  0.11393300427E+04  0.85030453110E+02 0.  0.
        -11    1    3    3    0    0  0.38725962039E+02  0.32202041776E+02  0.29916330896E+02  0.58580359206E+02  0.00000000000E+00 0.  1.
         12    1    3    3    0    0  0.17382243015E+03  0.30758365725E+03  0.28213835963E+02  0.35442624616E+03  0.00000000000E+00 0. -1.
         11    1    5    5    0    0  0.36605994779E+03 -0.16177512262E+03  0.40220183555E+03  0.56739526980E+03  0.00000000000E+00 0. -1.
        -12    1    5    5    0    0  0.38224459504E+03 -0.79665562455E+02  0.41791368989E+03  0.57193477292E+03  0.00000000000E+00 0.  1.
          5    1    4    4  501    0 -0.23331305147E+03  0.29084845576E+02  0.26340765992E+03  0.35310335022E+03  0.41800000000E+01 0. -1.
         -5    1    4    4    0  501 -0.72753988355E+03 -0.12742985952E+03  0.78181328903E+03  0.10755473688E+04  0.41800000000E+01 0. -1.
</event>
<event>
11    1  0.8453735E-009  0.6220206E+03  0.7561462E-02  0.9155833E-01
         22   -1    0    0    0    0  0.00000000000E+00  0.00000000000E+00  0.59165286426E+03  0.59165286426E+03  0.00000000000E+00 0. -1.
         22   -1    0    0    0    0 -0.00000000000E+00 -0.00000000000E+00 -0.99324003454E+03  0.99324003454E+03  0.00000000000E+00 0. -1.
         24    2    1    2    0    0  0.15876920419E+03  0.11537730835E+03 -0.23914005947E+03  0.31948337512E+03  0.79762619373E+02 0.  0.
         25    2    1    2    0    0 -0.64353336817E+03  0.18224958081E+03 -0.81936481431E+02  0.68535468925E+03  0.12508939778E+03 0.  0.
        -24    2    1    2    0    0  0.48476416397E+03 -0.29762688916E+03 -0.80510629377E+02  0.58005483443E+03  0.80022432356E+02 0.  0.
        -11    1    3    3    0    0  0.66159769859E+01 -0.70788214422E+01  0.12306726990E+01  0.97670578877E+01  0.00000000000E+00 0.  1.
         12    1    3    3    0    0  0.15215322721E+03  0.12245612979E+03 -0.24037073217E+03  0.30971631723E+03  0.00000000000E+00 0. -1.
         13    1    5    5    0    0  0.35523839612E+03 -0.25452337833E+03 -0.47278708241E+02  0.43955857908E+03  0.00000000000E+00 0. -1.
        -14    1    5    5    0    0  0.12952576786E+03 -0.43103510832E+02 -0.33231921136E+02  0.14049625535E+03  0.00000000000E+00 0.  1.
          5    1    4    4  501    0 -0.43511562657E+03  0.14475986703E+03 -0.11029601131E+03  0.47166058782E+03  0.41800000000E+01 0. -1.
         -5    1    4    4    0  501 -0.20841774160E+03  0.37489713787E+02  0.28359529884E+02  0.21369410144E+03  0.41800000000E+01 0. -1.
</event>
<event>
11    1  0.8453735E-009  0.1927029E+03  0.7561462E-02  0.1059807E+00
         22   -1    0    0    0    0  0.00000000000E+00  0.00000000000E+00  0.58272450773E+03  0.58272450773E+03  0.00000000000E+00 0.  1.
         22   -1    0    0    0    0 -0.00000000000E+00 -0.00000000000E+00 -0.27023608171E+03  0.27023608171E+03  0.00000000000E+00 0. -1.
        -24    2    1    2    0    0 -0.26318990210E+02  0.52221354577E+02 -0.15687538857E+03  0.18586922374E+03  0.80732407836E+02 0.  0.
         25    2    1    2    0    0  0.13005054671E+03  0.55250713464E+02  0.23620270093E+02  0.19018707936E+03  0.12508965568E+03 0.  0.
         24    2    1    2    0    0 -0.10373155650E+03 -0.10747206804E+03  0.44574354449E+03  0.47690428635E+03  0.80249047723E+02 0.  0.
        -13    1    5    5    0    0 -0.10918803261E+03 -0.86583998832E+02  0.31579073039E+03  0.34517039375E+03  0.00000000000E+00 0.  1.
         14    1    5    5    0    0  0.54564761185E+01 -0.20888069209E+02  0.12995281411E+03  0.13173389261E+03  0.00000000000E+00 0. -1.
         13    1    3    3    0    0 -0.52624264860E+02  0.40553375286E+02 -0.81254616957E+02  0.10495809771E+03  0.00000000000E+00 0. -1.
        -14    1    3    3    0    0  0.26305274651E+02  0.11667979291E+02 -0.75620771613E+02  0.80911126025E+02  0.00000000000E+00 0.  1.
          5    1    4    4  501    0  0.46592683633E+02  0.69409901307E+02 -0.31111544837E+02  0.89297330250E+02  0.41800000000E+01 0. -1.
         -5    1    4    4    0  501  0.83457863073E+02 -0.14159187843E+02  0.54731814930E+02  0.10088974911E+03  0.41800000000E+01 0. -1.
</event>
<event>
11    1  0.8453735E-009  0.1431620E+03  0.7561462E-02  0.1104078E+00
         22   -1    0    0    0    0  0.00000000000E+00  0.00000000000E+00  0.20140683732E+03  0.20140683732E+03  0.00000000000E+00 0. -1.
         22   -1    0    0    0    0 -0.00000000000E+00 -0.00000000000E+00 -0.95800765185E+03  0.95800765185E+03  0.00000000000E+00 0. -1.
         24    2    1    2    0    0  0.74864796909E+02 -0.74345908174E+01 -0.82502055848E+03  0.83237271598E+03  0.80779981563E+02 0.  0.
         25    2    1    2    0    0 -0.12486546554E+02  0.21566645015E+02 -0.77433973994E+02  0.14921567404E+03  0.12509301751E+03 0.  0.
        -24    2    1    2    0    0 -0.62378250355E+02 -0.14132054197E+02  0.14585371794E+03  0.17782609915E+03  0.79107859465E+02 0.  0.
        -11    1    3    3    0    0  0.28262960322E+02  0.33846851413E+02 -0.23714031864E+03  0.24120517201E+03  0.00000000000E+00 0.  1.
         12    1    3    3    0    0  0.46601836587E+02 -0.41281442230E+02 -0.58788023984E+03  0.59116754397E+03  0.00000000000E+00 0. -1.
         13    1    5    5    0    0 -0.30690811114E+02 -0.46910639639E+02  0.76919722821E+02  0.95179712949E+02  0.00000000000E+00 0. -1.
        -14    1    5    5    0    0 -0.31687439241E+02  0.32778585442E+02  0.68933995123E+02  0.82646386206E+02  0.00000000000E+00 0.  1.
          5    1    4    4  501    0 -0.10157824701E+02 -0.33125367861E+01  0.33507978365E+02  0.35417669555E+02  0.41800000000E+01 0. -1.
         -5    1    4    4    0  501 -0.23287218531E+01  0.24879181801E+02 -0.11094195236E+03  0.11379800449E+03  0.41800000000E+01 0. -1.
</event>
<event>
11    1  0.9799098E-009  0.1760136E+03  0.7561462E-02  0.1072914E+00
         22   -1    0    0    0    0  0.00000000000E+00  0.00000000000E+00  0.11479669206E+04  0.11479669206E+04  0.00000000000E+00 0. -1.
         22   -1    0    0    0    0 -0.00000000000E+00 -0.00000000000E+00 -0.46657165719E+03  0.46657165719E+03  0.00000000000E+00 0. -1.
         24    2    1    2    0    0 -0.57903049464E+01  0.25659408520E+02 -0.25941038087E+03  0.27329537348E+03  0.81882126148E+02 0.  0.
         25    2    1    2    0    0 -0.10480493284E+03 -0.80997264512E+02 -0.15274750288E+03  0.23774884200E+03  0.12509229165E+03 0.  0.
        -24    2    1    2    0    0  0.11059523779E+03  0.55337855992E+02  0.10935531471E+04  0.11034943623E+04  0.80918088717E+02 0.  0.
        -13    1    3    3    0    0 -0.51598812706E+01 -0.26634624782E+02 -0.44539743849E+02  0.52151858971E+02  0.00000000000E+00 0.  1.
         14    1    3    3    0    0 -0.63042367578E+00  0.52294033303E+02 -0.21487063702E+03  0.22114351451E+03  0.00000000000E+00 0. -1.
         11    1    5    5    0    0  0.82102491321E+02  0.18223071445E+02  0.91692169537E+03  0.92077048979E+03  0.00000000000E+00 0. -1.
        -12    1    5    5    0    0  0.28492746470E+02  0.37114784546E+02  0.17663145173E+03  0.18272387248E+03  0.00000000000E+00 0.  1.
          5    1    4    4  501    0 -0.12399217197E+03 -0.77030917443E+02 -0.15983279704E+03  0.21649899852E+03  0.41800000000E+01 0.  1.
         -5    1    4    4    0  501  0.19187239127E+02 -0.39663470687E+01  0.70852941654E+01  0.21249843477E+02  0.41800000000E+01 0.  1.
</event>
<event>
11    1  0.8453735E-009  0.1481271E+03  0.7561462E-02  0.1098808E+00
         22   -1    0    0    0    0  0.00000000000E+00  0.00000000000E+00  0.24094585243E+03  0.24094585243E+03  0.00000000000E+00 0.  1.
         22   -1    0    0    0    0 -0.00000000000E+00 -0.00000000000E+00 -0.57182945630E+03  0.57182945630E+03  0.00000000000E+00 0.  1.
         24    2    1    2    0    0 -0.37566338187E+01  0.79227963434E+02 -0.34248268818E+03  0.35993457970E+03  0.77248478779E+02 0.  0.
         25    2    1    2    0    0  0.13065204898E+02 -0.78718654831E+02 -0.18687925493E+03  0.23861858979E+03  0.12509056428E+03 0.  0.
        -24    2    1    2    0    0 -0.93085710792E+01 -0.50930860263E+00  0.19847833924E+03  0.21422213924E+03  0.80066003404E+02 0.  0.
        -13    1    3    3    0    0 -0.27747708048E+02  0.13573684035E+02 -0.18602481313E+03  0.18857203212E+03  0.00000000000E+00 0.  1.
         14    1    3    3    0    0  0.23991074229E+02  0.65654279398E+02 -0.15645787506E+03  0.17136254758E+03  0.00000000000E+00 0. -1.
         11    1    5    5    0    0  0.39196552824E+01  0.74678912448E+01 -0.52332369604E+01  0.99257174179E+01  0.00000000000E+00 0. -1.
        -12    1    5    5    0    0 -0.13228226362E+02 -0.79771998474E+01  0.20371157620E+03  0.20429642182E+03  0.00000000000E+00 0.  1.
          5    1    4    4  501    0  0.38122111087E+02 -0.85990131642E+02 -0.66243340897E+02  0.11512276363E+03  0.41800000000E+01 0. -1.
         -5    1    4    4    0  501 -0.25056906190E+02  0.72714768112E+01 -0.12063591403E+03  0.12349582615E+03  0.41800000000E+01 0. -1.
</event>
<event>
11    1  0.8453735E-009  0.2249282E+03  0.7561462E-02  0.1038173E+00
         22   -1    0    0    0    0  0.00000000000E+00  0.00000000000E+00  0.19096007320E+04  0.19096007320E+04  0.00000000000E+00 0.  1.
         22   -1    0    0    0    0 -0.00000000000E+00 -0.00000000000E+00 -0.12348349814E+04  0.12348349814E+04  0.00000000000E+00 0. -1.
         24    2    1    2    0    0  0.60771273364E+02  0.17577977319E+03 -0.11707370102E+04  0.11881282256E+04  0.80198858590E+02 0.  0.
         25    2    1    2    0    0 -0.65306218008E+02 -0.20906910456E+03  0.23930438365E+03  0.34769073222E+03  0.12508982630E+03 0.  0.
        -24    2    1    2    0    0  0.45349446440E+01  0.33289331369E+02  0.16061983772E+04  0.16086167556E+04  0.81522355328E+02 0.  0.
        -13    1    3    3    0    0  0.61301615300E+02  0.70067690543E+02 -0.43631000923E+03  0.44613203589E+03  0.00000000000E+00 0.  1.
         14    1    3    3    0    0 -0.53034193602E+00  0.10571208264E+03 -0.73442700100E+03  0.74199618966E+03  0.00000000000E+00 0. -1.
         13    1    5    5    0    0 -0.15444542675E+02 -0.23251999145E+02  0.45114471138E+03  0.45200745565E+03  0.00000000000E+00 0. -1.
        -14    1    5    5    0    0  0.19979487319E+02  0.56541330514E+02  0.11550536658E+04  0.11566093000E+04  0.00000000000E+00 0.  1.
          5    1    4    4  501    0 -0.10061304635E+03 -0.12930729531E+03  0.14098253574E+03  0.21618720938E+03  0.41800000000E+01 0.  1.
         -5    1    4    4    0  501  0.35306828340E+02 -0.79761809249E+02  0.98321847916E+02  0.13150352284E+03  0.41800000000E+01 0.  1.
</event>
<event>
11    1  0.8453735E-009  0.1662304E+03  0.7561462E-02  0.1081359E+00
         22   -1    0    0    0    0  0.00000000000E+00  0.00000000000E+00  0.34205650451E+03  0.34205650451E+03  0.00000000000E+00 0.  1.
         22   -1    0    0    0    0 -0.00000000000E+00 -0.00000000000E+00 -0.12133349283E+04  0.12133349283E+04  0.00000000000E+00 0. -1.
        -24    2    1    2    0    0 -0.10427037125E+03 -0.36279186838E+02 -0.11399029334E+04  0.11480029489E+04  0.79646615062E+02 0.  0.
         25    2    1    2    0    0  0.83572171626E+02  0.28539031801E+02  0.29251024379E+02  0.15589120603E+03  0.12509061310E+03 0.  0.
         24    2    1    2    0    0  0.20698199623E+02  0.77401550368E+01  0.23937348521E+03  0.25149727794E+03  0.73911365314E+02 0.  0.
        -11    1    5    5    0    0 -0.18303354814E+02 -0.31177024469E+01  0.17123781803E+03  0.17224146768E+03  0.00000000000E+00 0.  1.
         12    1    5    5    0    0  0.39001554437E+02  0.10857857484E+02  0.68135667182E+02  0.79255810260E+02  0.00000000000E+00 0. -1.
         11    1    3    3    0    0 -0.68540394082E+02 -0.54264891002E+02 -0.94515024565E+03  0.94918462423E+03  0.00000000000E+00 0. -1.
        -12    1    3    3    0    0 -0.35729977167E+02  0.17985704165E+02 -0.19475268776E+03  0.19881832464E+03  0.00000000000E+00 0.  1.
          5    1    4    4  501    0 -0.14758037004E+02 -0.31091935168E+02  0.20972037167E+02  0.40519215585E+02  0.41800000000E+01 0. -1.
         -5    1    4    4    0  501  0.98330208629E+02  0.59630966969E+02  0.82789872125E+01  0.11537199045E+03  0.41800000000E+01 0. -1.
</event>
<event>
11    1  0.8453735E-009  0.1417404E+03  0.7561462E-02  0.1105630E+00
         22   -1    0    0    0    0  0.00000000000E+00  0.00000000000E+00  0.64874579688E+03  0.64874579688E+03  0.00000000000E+00 0.  1.
         22   -1    0    0    0    0 -0.00000000000E+00 -0.00000000000E+00 -0.92646871001E+03  0.92646871001E+03  0.00000000000E+00 0.  1.
         24    2    1    2    0    0 -0.72969059472E+01  0.82352544868E+02 -0.89600999041E+03  0.90371426057E+03  0.83847333628E+02 0.  0.
         25    2    1    2    0    0  0.31295544238E+02  0.81680877753E+01  0.22697383704E+03  0.26117559982E+03  0.12509773176E+03 0.  0.
        -24    2    1    2    0    0 -0.23998638291E+02 -0.90520632644E+02  0.39131324024E+03  0.41032464650E+03  0.80438448305E+02 0.  0.
        -13    1    3    3    0    0  0.53906518357E+01  0.34360971299E+02 -0.71995924563E+03  0.72079889765E+03  0.00000000000E+00 0.  1.
         14    1    3    3    0    0 -0.12687557783E+02  0.47991573570E+02 -0.17605074478E+03  0.18291536293E+03  0.00000000000E+00 0. -1.
         11    1    5    5    0    0 -0.34284626896E+02 -0.25153470885E+02  0.67184320682E+02  0.79510160889E+02  0.00000000000E+00 0. -1.
        -12    1    5    5    0    0  0.10285988606E+02 -0.65367161758E+02  0.32412891955E+03  0.33081448561E+03  0.00000000000E+00 0.  1.
          5    1    4    4  501    0 -0.17929777846E+02 -0.48655474895E+02  0.71437839282E+02  0.88372334201E+02  0.41800000000E+01 0.  1.
         -5    1    4    4    0  501  0.49225322084E+02  0.56823562670E+02  0.15553599776E+03  0.17280326562E+03  0.41800000000E+01 0.  1.
</event>
<event>
11    1  0.8453735E-009  0.1874896E+03  0.7561462E-02  0.1063741E+00
         22   -1    0    0    0    0  0.00000000000E+00  0.00000000000E+00  0.23613759655E+03  0.23613759655E+03  0.00000000000E+00 0.  1.
         22   -1    0    0    0    0 -0.00000000000E+00 -0.00000000000E+00 -0.13980408612E+04  0.13980408612E+04  0.00000000000E+00 0.  1.
        -24    2    1    2    0    0 -0.13952364084E+02  0.29714311763E+02 -0.12003853551E+04  0.12037052872E+04  0.83089161994E+02 0.  0.
         25    2    1    2    0    0 -0.32826569702E+02  0.10840407768E+03 -0.11414518225E+03  0.20372970754E+03  0.12509054068E+03 0.  0.
         24    2    1    2    0    0  0.46778933786E+02 -0.13811838945E+03  0.15262727270E+03  0.22674346305E+03  0.82780163781E+02 0.  0.
        -13    1    5    5    0    0  0.69264015329E+02 -0.82910067544E+02  0.10059952729E+03  0.14762062190E+03  0.00000000000E+00 0.  1.
         14    1    5    5    0    0 -0.22485081543E+02 -0.55208321902E+02  0.52027745403E+02  0.79122841145E+02  0.00000000000E+00 0. -1.
         13    1    3    3    0    0 -0.10919342901E+02  0.36275504151E+01 -0.20349291264E+02  0.23377014916E+02  0.00000000000E+00 0. -1.
        -14    1    3    3    0    0 -0.30330211829E+01  0.26086761348E+02 -0.11800360639E+04  0.11803282723E+04  0.00000000000E+00 0.  1.
          5    1    4    4  501    0  0.31651188197E+02  0.10067871709E+02 -0.70836607744E+02  0.78348306629E+02  0.41800000000E+01 0. -1.
         -5    1    4    4    0  501 -0.64477757898E+02  0.98336205974E+02 -0.43308574508E+02  0.12538140091E+03  0.41800000000E+01 0. -1.
</event>
<event>
11    1  0.8453735E-009  0.1490184E+03  0.7561462E-02  0.1097886E+00
         22   -1    0    0    0    0  0.00000000000E+00  0.00000000000E+00  0.93153634035E+03  0.93153634035E+03  0.00000000000E+00 0.  1.
         22   -1    0    0    0    0 -0.00000000000E+00 -0.00000000000E+00 -0.14171250704E+03  0.14171250704E+03  0.00000000000E+00 0. -1.
        -24    2    1    2    0    0 -0.74932763412E+02  0.45465416181E+02 -0.86615005531E+02  0.14773888834E+03  0.81502127851E+02 0.  0.
         25    2    1    2    0    0  0.25935450339E+02 -0.28973644480E+02  0.17916674518E+03  0.22194566680E+03  0.12508811604E+03 0.  0.
         24    2    1    2    0    0  0.48997313073E+02 -0.16491771700E+02  0.69727209365E+03  0.70356429225E+03  0.78368523760E+02 0.  0.
        -11    1    5    5    0    0  0.66178790542E+02  0.49805650267E+01  0.48657381488E+03  0.49107893019E+03  0.00000000000E+00 0.  1.
         12    1    5    5    0    0 -0.17181477469E+02 -0.21472336727E+02  0.21069827877E+03  0.21248536206E+03  0.00000000000E+00 0. -1.
         13    1    3    3    0    0 -0.42196833983E+02  0.64502333501E+02 -0.76376696415E+02  0.10851047682E+03  0.00000000000E+00 0. -1.
        -14    1    3    3    0    0 -0.32735929429E+02 -0.19036917320E+02 -0.10238309117E+02  0.39228411518E+02  0.00000000000E+00 0.  1.
          5    1    4    4  501    0  0.65826370073E+01 -0.58158146750E+02  0.24975345390E+02  0.63772575773E+02  0.41800000000E+01 0. -1.
         -5    1    4    4    0  501  0.19352813332E+02  0.29184502270E+02  0.15419139979E+03  0.15817309103E+03  0.41800000000E+01 0. -1.
</event>
<event>
11    1  0.8453735E-009  0.1463132E+03  0.7561462E-02  0.1100707E+00
         22   -1    0    0    0    0  0.00000000000E+00  0.00000000000E+00  0.74171884133E+03  0.74171884133E+03  0.00000000000E+00 0.  1.
         22   -1    0    0    0    0 -0.00000000000E+00 -0.00000000000E+00 -0.25374469616E+03  0.25374469616E+03  0.00000000000E+00 0.  1.
        -24    2    1    2    0    0 -0.45623964001E+02  0.69003736188E+02 -0.14786284621E+03  0.18723885344E+03  0.79698840961E+02 0.  0.
         25    2    1    2    0    0 -0.21055819885E+01 -0.64742348821E+02 -0.23007365458E+02  0.14273268394E+03  0.12508906824E+03 0.  0.
         24    2    1    2    0    0  0.47729545989E+02 -0.42613873671E+01  0.65884435683E+03  0.66549200011E+03  0.80668746697E+02 0.  0.
        -11    1    5    5    0    0  0.69841982398E+02 -0.10801839003E+02  0.50940427546E+03  0.51428328584E+03  0.00000000000E+00 0.  1.
         12    1    5    5    0    0 -0.22112436408E+02  0.65404516362E+01  0.14944008137E+03  0.15120871427E+03  0.00000000000E+00 0. -1.
         13    1    3    3    0    0 -0.22653889463E+01 -0.26830023352E+01  0.88588510138E+01  0.95294139323E+01  0.00000000000E+00 0. -1.
        -14    1    3    3    0    0 -0.43358575054E+02  0.71686738523E+02 -0.15672169722E+03  0.17770943951E+03  0.00000000000E+00 0.  1.
          5    1    4    4  501    0 -0.41580137810E+02 -0.91832725816E+01  0.33308075749E+02  0.54223063964E+02  0.41800000000E+01 0. -1.
         -5    1    4    4    0  501  0.39474555821E+02 -0.55559076239E+02 -0.56315441207E+02  0.88509619975E+02  0.41800000000E+01 0. -1.
</event>
<event>
11    1  0.8453735E-009  0.1799620E+03  0.7561462E-02  0.1069674E+00
         22   -1    0    0    0    0  0.00000000000E+00  0.00000000000E+00  0.10502955990E+04  0.10502955990E+04  0.00000000000E+00 0.  1.
         22   -1    0    0    0    0 -0.00000000000E+00 -0.00000000000E+00 -0.20684667604E+03  0.20684667604E+03  0.00000000000E+00 0. -1.
        -24    2    1    2    0    0 -0.44851603460E+02  0.20720898318E+02 -0.12062840176E+03  0.15341653042E+03  0.80897456912E+02 0.  0.
         25    2    1    2    0    0 -0.59652453635E+02 -0.10044500554E+03  0.52125211620E+02  0.17891911151E+03  0.12508955357E+03 0.  0.
         24    2    1    2    0    0  0.10450405710E+03  0.79724107226E+02  0.91195211307E+03  0.92480663307E+03  0.79584048818E+02 0.  0.
        -13    1    5    5    0    0  0.14210277258E+02 -0.15756691221E+02  0.16833182983E+03  0.16966381533E+03  0.00000000000E+00 0.  1.
         14    1    5    5    0    0  0.90293779837E+02  0.95480798447E+02  0.74362028324E+03  0.75514281774E+03  0.00000000000E+00 0. -1.
         11    1    3    3    0    0 -0.21356523901E+02  0.46359872777E+02 -0.37590906401E+02  0.63390970659E+02  0.00000000000E+00 0. -1.
        -12    1    3    3    0    0 -0.23495079560E+02 -0.25638974459E+02 -0.83037495360E+02  0.90025559762E+02  0.00000000000E+00 0.  1.
          5    1    4    4  501    0  0.19405063846E+02 -0.58044264581E+02 -0.19150974342E+02  0.64264495422E+02  0.41800000000E+01 0. -1.
         -5    1    4    4    0  501 -0.79057517481E+02 -0.42400740964E+02  0.71276185962E+02  0.11465461609E+03  0.41800000000E+01 0. -1.
</event>
<event>
11    1  0.8453735E-009  0.1638600E+03  0.7561462E-02  0.1083502E+00
         22   -1    0    0    0    0  0.00000000000E+00  0.00000000000E+00  0.31568401770E+03  0.31568401770E+03  0.00000000000E+00 0.  1.
         22   -1    0    0    0    0 -0.00000000000E+00 -0.00000000000E+00 -0.31651686429E+03  0.31651686429E+03  0.00000000000E+00 0.  1.
        -24    2    1    2    0    0  0.40699571878E+02  0.11650871318E+02 -0.17639193965E+03  0.19884631053E+03  0.81446552323E+02 0.  0.
         25    2    1    2    0    0 -0.14080568723E+03 -0.11478388452E+02 -0.30399380953E+02  0.19112728618E+03  0.12509005637E+03 0.  0.
         24    2    1    2    0    0  0.10010611535E+03 -0.17248286578E+00  0.20595847402E+03  0.24222728527E+03  0.78955054492E+02 0.  0.
        -13    1    5    5    0    0  0.82417021122E+02 -0.33274603155E+02  0.12968253978E+03  0.15721744722E+03  0.00000000000E+00 0.  1.
         14    1    5    5    0    0  0.17689094227E+02  0.33102120289E+02  0.76275934237E+02  0.85009838054E+02  0.00000000000E+00 0. -1.
         11    1    3    3    0    0  0.68780501216E+01 -0.24339330884E+01  0.80130863336E+01  0.10837027099E+02  0.00000000000E+00 0. -1.
        -12    1    3    3    0    0  0.33821521757E+02  0.14084804407E+02 -0.18440502598E+03  0.18800928343E+03  0.00000000000E+00 0.  1.
          5    1    4    4  501    0  0.62850176780E+00  0.27196570969E+02  0.22132660322E+02  0.35318204086E+02  0.41800000000E+01 0. -1.
         -5    1    4    4    0  501 -0.14143418900E+03 -0.38674959422E+02 -0.52532041275E+02  0.15580908210E+03  0.41800000000E+01 0. -1.
</event>
<event>
11    1  0.8453735E-009  0.1375093E+03  0.7561462E-02  0.1110372E+00
         22   -1    0    0    0    0  0.00000000000E+00  0.00000000000E+00  0.67987812752E+02  0.67987812752E+02  0.00000000000E+00 0.  1.
         22   -1    0    0    0    0 -0.00000000000E+00 -0.00000000000E+00 -0.22719822286E+04  0.22719822286E+04  0.00000000000E+00 0. -1.
        -24    2    1    2    0    0  0.54771681627E+02  0.51172382692E+01 -0.18370119056E+04  0.18395778805E+04  0.80049447217E+02 0.  0.
         25    2    1    2    0    0 -0.80694765574E+02  0.60901624787E+01 -0.38337000892E+03  0.41130165566E+03  0.12509097863E+03 0.  0.
         24    2    1    2    0    0  0.25923083947E+02 -0.11207400748E+02  0.16387498635E+02  0.89090505199E+02  0.82891229285E+02 0.  0.
        -13    1    5    5    0    0 -0.12691069330E+02 -0.26164259692E+02  0.33432633381E+02  0.44309961642E+02  0.00000000000E+00 0.  1.
         14    1    5    5    0    0  0.38614153277E+02  0.14956858944E+02 -0.17045134746E+02  0.44780543557E+02  0.00000000000E+00 0. -1.
         11    1    3    3    0    0  0.54439327983E+02  0.85514566657E+01 -0.18344573242E+04  0.18352848395E+04  0.00000000000E+00 0. -1.
        -12    1    3    3    0    0  0.33235364419E+00 -0.34342183965E+01 -0.25545813636E+01  0.42930409831E+01  0.00000000000E+00 0.  1.
          5    1    4    4  501    0 -0.38554631180E+02  0.39899311541E+02 -0.54111875292E+02  0.77614316299E+02  0.41800000000E+01 0. -1.
         -5    1    4    4    0  501 -0.42140134394E+02 -0.33809149062E+02 -0.32925813363E+03  0.33368733936E+03  0.41800000000E+01 0. -1.
</event>
<event>
11    1  0.8453735E-009  0.1914822E+03  0.7561462E-02  0.1060716E+00
         22   -1    0    0    0    0  0.00000000000E+00  0.00000000000E+00  0.20470098406E+04  0.20470098406E+04  0.00000000000E+00 0.  1.
         22   -1    0    0    0    0 -0.00000000000E+00 -0.00000000000E+00 -0.34820943690E+03  0.34820943690E+03  0.00000000000E+00 0. -1.
        -24    2    1    2    0    0  0.35732856627E+02 -0.61924495302E+02 -0.31353940771E+03  0.33143027680E+03  0.80172239821E+02 0.  0.
         25    2    1    2    0    0 -0.11746038501E+03 -0.63973337291E+02  0.37143955082E+03  0.41413099255E+03  0.12509040390E+03 0.  0.
         24    2    1    2    0    0  0.81727528384E+02  0.12589783259E+03  0.16409002606E+04  0.16496580081E+04  0.79298332167E+02 0.  0.
        -11    1    5    5    0    0  0.83515475199E+02  0.10973466584E+03  0.15952230907E+04  0.16011724581E+04  0.00000000000E+00 0.  1.
         12    1    5    5    0    0 -0.17879468153E+01  0.16163166756E+02  0.45677169826E+02  0.48485549978E+02  0.00000000000E+00 0. -1.
         13    1    3    3    0    0  0.53928582498E+02 -0.57803766631E+02 -0.29388166181E+03  0.30432876728E+03  0.00000000000E+00 0. -1.
        -14    1    3    3    0    0 -0.18195725872E+02 -0.41207286706E+01 -0.19657745895E+02  0.27101509524E+02  0.00000000000E+00 0.  1.
          5    1    4    4  501    0 -0.27919050872E+02 -0.85033937368E+02  0.20926348758E+03  0.22763770237E+03  0.41800000000E+01 0. -1.
         -5    1    4    4    0  501 -0.89541334139E+02  0.21060600076E+02  0.16217606324E+03  0.18649329018E+03  0.41800000000E+01 0. -1.
</event>
<event>
11    1  0.8453735E-009  0.1888260E+03  0.7561462E-02  0.1062719E+00
         22   -1    0    0    0    0  0.00000000000E+00  0.00000000000E+00  0.40487978975E+03  0.40487978975E+03  0.00000000000E+00 0. -1.
         22   -1    0    0    0    0 -0.00000000000E+00 -0.00000000000E+00 -0.71218518509E+03  0.71218518509E+03  0.00000000000E+00 0. -1.
         24    2    1    2    0    0 -0.33628308362E+02  0.13804729237E+03 -0.62366704305E+03  0.64484485963E+03  0.81709206035E+02 0.  0.
         25    2    1    2    0    0  0.24470190871E+02 -0.13236471919E+03  0.45606460608E+02  0.18933139602E+03  0.12508884499E+03 0.  0.
        -24    2    1    2    0    0  0.91581174911E+01 -0.56825731874E+01  0.27075518710E+03  0.28288871920E+03  0.81249574487E+02 0.  0.
        -13    1    3    3    0    0  0.27229407310E+02  0.46667364229E+02 -0.19618379634E+03  0.20348799830E+03  0.00000000000E+00 0.  1.
         14    1    3    3    0    0 -0.60857715672E+02  0.91379928144E+02 -0.42748324671E+03  0.44135686133E+03  0.00000000000E+00 0. -1.
         13    1    5    5    0    0  0.34725518806E+02  0.24357991875E+02  0.13340555311E+03  0.13998648158E+03  0.00000000000E+00 0. -1.
        -14    1    5    5    0    0 -0.25567401315E+02 -0.30040565062E+02  0.13734963399E+03  0.14290223762E+03  0.00000000000E+00 0.  1.
          5    1    4    4  501    0  0.59111714532E+02 -0.13577863634E+03  0.42564130877E+02  0.15414023005E+03  0.41800000000E+01 0.  1.
         -5    1    4    4    0  501 -0.34641523661E+02  0.34139171571E+01  0.30423297309E+01  0.35191165967E+02  0.41800000000E+01 0.  1.
</event>
<event>
11    1  0.8453735E-009  0.1442270E+03  0.7561462E-02  0.1102928E+00
         22   -1    0    0    0    0  0.00000000000E+00  0.00000000000E+00  0.76608648366E+03  0.76608648366E+03  0.00000000000E+00 0.  1.
         22   -1    0    0    0    0 -0.00000000000E+00 -0.00000000000E+00 -0.74563947268E+03  0.74563947268E+03  0.00000000000E+00 0. -1.
         24    2    1    2    0    0  0.20751978206E+02  0.54656730038E+02 -0.71308073841E+03  0.71984066565E+03  0.79173491061E+02 0.  0.
         25    2    1    2    0    0 -0.60122731513E+02 -0.10118682907E+03  0.29042808835E+03  0.33741543015E+03  0.12508869165E+03 0.  0.
        -24    2    1    2    0    0  0.39370753306E+02  0.46530099036E+02  0.44309966105E+03  0.45446986054E+03  0.80563255822E+02 0.  0.
        -11    1    3    3    0    0  0.44325738535E+01  0.36644914132E+02 -0.10544553510E+03  0.11171955207E+03  0.00000000000E+00 0.  1.
         12    1    3    3    0    0  0.16319404353E+02  0.18011815905E+02 -0.60763520332E+03  0.60812111358E+03  0.00000000000E+00 0. -1.
         13    1    5    5    0    0  0.24116993888E+02 -0.19286259032E+02  0.95604812842E+02  0.10046825081E+03  0.00000000000E+00 0. -1.
        -14    1    5    5    0    0  0.15253759418E+02  0.65816358069E+02  0.34749484821E+03  0.35400160974E+03  0.00000000000E+00 0.  1.
          5    1    4    4  501    0 -0.92668381759E+02 -0.69603206085E+02  0.14886705039E+03  0.18870852224E+03  0.41800000000E+01 0. -1.
         -5    1    4    4    0  501  0.32545650246E+02 -0.31583622989E+02  0.14156103796E+03  0.14870690791E+03  0.41800000000E+01 0. -1.
</event>
<event>
11    1  0.8453735E-009  0.1624451E+03  0.7561462E-02  0.1084800E+00
         22   -1    0    0    0    0  0.00000000000E+00  0.00000000000E+00  0.25923780247E+04  0.25923780247E+04  0.00000000000E+00 0.  1.
         22   -1    0    0    0    0 -0.00000000000E+00 -0.00000000000E+00 -0.13415332961E+04  0.13415332961E+04  0.00000000000E+00 0.  1.
        -24    2    1    2    0    0 -0.41556106427E+00 -0.93680063493E+02 -0.13193910072E+04  0.13251131657E+04  0.79725436330E+02 0.  0.
         25    2    1    2    0    0 -0.77665254164E+02  0.15432444302E+02  0.30113272993E+03  0.33555768847E+03  0.12509192306E+03 0.  0.
         24    2    1    2    0    0  0.78080815228E+02  0.78247619191E+02  0.22691030058E+04  0.22732404666E+04  0.81083071155E+02 0.  0.
        -11    1    5    5    0    0  0.84109792988E+02  0.35921011600E+02  0.17457118651E+04  0.17481060300E+04  0.00000000000E+00 0.  1.
         12    1    5    5    0    0 -0.60289777600E+01  0.42326607592E+02  0.52339114075E+03  0.52513443660E+03  0.00000000000E+00 0. -1.
         13    1    3    3    0    0  0.39605917982E+02 -0.49121749184E+02 -0.66475285345E+03  0.66774091619E+03  0.00000000000E+00 0. -1.
        -14    1    3    3    0    0 -0.40021479047E+02 -0.44558314309E+02 -0.65463815374E+03  0.65737224956E+03  0.00000000000E+00 0.  1.
          5    1    4    4  501    0  0.29044632340E+01  0.37690090903E+02  0.20323090872E+03  0.20675892609E+03  0.41800000000E+01 0. -1.
         -5    1    4    4    0  501 -0.80569717398E+02 -0.22257646601E+02  0.97901821205E+02  0.12879876237E+03  0.41800000000E+01 0. -1.
</event>
<event>
11    1  0.8453735E-009  0.1356297E+03  0.7561462E-02  0.1112539E+00
         22   -1    0    0    0    0  0.00000000000E+00  0.00000000000E+00  0.35246401886E+04  0.35246401886E+04  0.00000000000E+00 0.  1.
         22   -1    0    0    0    0 -0.00000000000E+00 -0.00000000000E+00 -0.14282640843E+03  0.14282640843E+03  0.00000000000E+00 0.  1.
        -24    2    1    2    0    0 -0.50229863300E+02 -0.17791255932E+02 -0.11654780472E+03  0.15034951048E+03  0.78625800867E+02 0.  0.
         25    2    1    2    0    0  0.34062266430E+02 -0.12654971508E+02  0.47621181487E+03  0.49370412344E+03  0.12508270297E+03 0.  0.
         24    2    1    2    0    0  0.16167596870E+02  0.30446227440E+02  0.30221497701E+04  0.30234129632E+04  0.80301613912E+02 0.  0.
        -11    1    5    5    0    0  0.47335326635E+01  0.47525124653E+02  0.27747265252E+04  0.27751375341E+04  0.00000000000E+00 0.  1.
         12    1    5    5    0    0  0.11434064207E+02 -0.17078897214E+02  0.24742324488E+03  0.24827542903E+03  0.00000000000E+00 0. -1.
         11    1    3    3    0    0 -0.40590826415E+02 -0.23987175368E+02 -0.16962514649E+02  0.50107151928E+02  0.00000000000E+00 0. -1.
        -12    1    3    3    0    0 -0.96390368858E+01  0.61959194364E+01 -0.99585290067E+02  0.10024235855E+03  0.00000000000E+00 0.  1.
          5    1    4    4  501    0  0.45165425362E+02 -0.16943353813E+02  0.59102118146E+02  0.76403701847E+02  0.41800000000E+01 0. -1.
         -5    1    4    4    0  501 -0.11103158932E+02  0.42883823056E+01  0.41710969672E+03  0.41730042159E+03  0.41800000000E+01 0. -1.
</event>
<event>
11    1  0.8453735E-009  0.1458231E+03  0.7561462E-02  0.1101225E+00
         22   -1    0    0    0    0  0.00000000000E+00  0.00000000000E+00  0.29354217200E+04  0.29354217200E+04  0.00000000000E+00 0.  1.
         22   -1    0    0    0    0 -0.00000000000E+00 -0.00000000000E+00 -0.33866559435E+03  0.33866559435E+03  0.00000000000E+00 0.  1.
         24    2    1    2    0    0 -0.32593240922E+02  0.64345810701E+02 -0.29098389978E+03  0.31176635472E+03  0.85579946821E+02 0.  0.
         25    2    1    2    0    0  0.64192967957E+02 -0.12706572254E+03  0.21159345939E+03  0.28404965398E+03  0.12508388742E+03 0.  0.
        -24    2    1    2    0    0 -0.31599727035E+02  0.62719911834E+02  0.26761465661E+04  0.26782713057E+04  0.80277105083E+02 0.  0.
        -13    1    3    3    0    0 -0.68534571433E-01  0.75521176726E+02 -0.22535139976E+03  0.23766932113E+03  0.00000000000E+00 0.  1.
         14    1    3    3    0    0 -0.32524706350E+02 -0.11175366025E+02 -0.65632500016E+02  0.74097033593E+02  0.00000000000E+00 0. -1.
         13    1    5    5    0    0  0.22643534341E+02  0.15964353550E+01  0.38577453121E+03  0.38644180310E+03  0.00000000000E+00 0. -1.
        -14    1    5    5    0    0 -0.54243261375E+02  0.61123476479E+02  0.22903720348E+04  0.22918295026E+04  0.00000000000E+00 0.  1.
          5    1    4    4  501    0  0.43313185016E+02  0.11616347894E+02  0.28194115457E+02  0.53135224484E+02  0.41800000000E+01 0. -1.
         -5    1    4    4    0  501  0.20879782941E+02 -0.13868207043E+03  0.18339934394E+03  0.23091442950E+03  0.41800000000E+01 0. -1.
</event>
<event>
11    1  0.8453735E-009  0.1834160E+03  0.7561462E-02  0.1066913E+00
         22   -1    0    0    0    0  0.00000000000E+00  0.00000000000E+00  0.73781328025E+03  0.73781328025E+03  0.00000000000E+00 0. -1.
         22   -1    0    0    0    0 -0.00000000000E+00 -0.00000000000E+00 -0.21238917992E+03  0.21238917992E+03  0.00000000000E+00 0.  1.
         24    2    1    2    0    0  0.12238388737E+03 -0.21746016436E+02 -0.11416343420E+03  0.18714334908E+03  0.80861846849E+02 0.  0.
         25    2    1    2    0    0 -0.19867497497E+03  0.55813039048E+02  0.21038289109E+03  0.32015495567E+03  0.12510553052E+03 0.  0.
        -24    2    1    2    0    0  0.76291087596E+02 -0.34067022612E+02  0.42920464343E+03  0.44290415543E+03  0.70473916292E+02 0.  0.
        -13    1    3    3    0    0  0.12651121081E+03 -0.20564859491E+02 -0.76561685063E+02  0.14929732592E+03  0.00000000000E+00 0.  1.
         14    1    3    3    0    0 -0.41273234409E+01 -0.11811569459E+01 -0.37601749137E+02  0.37846023156E+02  0.00000000000E+00 0. -1.
         11    1    5    5    0    0  0.34839711694E+02 -0.49929302344E+02  0.30475890598E+03  0.31078084161E+03  0.00000000000E+00 0. -1.
        -12    1    5    5    0    0  0.41451375902E+02  0.15862279732E+02  0.12444573746E+03  0.13212331381E+03  0.00000000000E+00 0.  1.
          5    1    4    4  501    0 -0.60263793662E+02 -0.37565671042E+02  0.40205841828E+02  0.81712218086E+02  0.41800000000E+01 0.  1.
         -5    1    4    4    0  501 -0.13841118131E+03  0.93378710091E+02  0.17017704927E+03  0.23844273758E+03  0.41800000000E+01 0.  1.
</event>
<event>
11    1  0.8453735E-009  0.1300970E+03  0.7561462E-02  0.1119150E+00
         22   -1    0    0    0    0  0.00000000000E+00  0.00000000000E+00  0.15063990789E+04  0.15063990789E+04  0.00000000000E+00 0.  1.
         22   -1    0    0    0    0 -0.00000000000E+00 -0.00000000000E+00 -0.19941371185E+03  0.19941371185E+03  0.00000000000E+00 0.  1.
         24    2    1    2    0    0  0.39928718621E+01 -0.11088254320E+02 -0.14998577044E+03  0.17046682280E+03  0.80151818010E+02 0.  0.
         25    2    1    2    0    0  0.24059564627E+02  0.33027693816E+02  0.76405903070E+02  0.15216966100E+03  0.12509217600E+03 0.  0.
        -24    2    1    2    0    0 -0.28052436489E+02 -0.21939439496E+02  0.13805652344E+04  0.13831763069E+04  0.77123611112E+02 0.  0.
        -11    1    3    3    0    0  0.28390903721E+02  0.22011146014E+02 -0.96718714007E+02  0.10317482058E+03  0.00000000000E+00 0.  1.
         12    1    3    3    0    0 -0.24398031859E+02 -0.33099400334E+02 -0.53267056436E+02  0.67292002217E+02  0.00000000000E+00 0. -1.
         11    1    5    5    0    0 -0.91606890929E+01 -0.32179061282E+02  0.23101339325E+03  0.23342364505E+03  0.00000000000E+00 0. -1.
        -12    1    5    5    0    0 -0.18891747396E+02  0.10239621786E+02  0.11495518412E+04  0.11497526619E+04  0.00000000000E+00 0.  1.
          5    1    4    4  501    0 -0.19622052815E+02  0.31944693826E+02 -0.22526815223E+02  0.43936524947E+02  0.41800000000E+01 0.  1.
         -5    1    4    4    0  501  0.43681617441E+02  0.10829999898E+01  0.98932718293E+02  0.10823313605E+03  0.41800000000E+01 0.  1.
</event>
<event>
11    1  0.8453735E-009  0.1857303E+03  0.7561462E-02  0.1065100E+00
         22   -1    0    0    0    0  0.00000000000E+00  0.00000000000E+00  0.22380111432E+03  0.22380111432E+03  0.00000000000E+00 0.  1.
         22   -1    0    0    0    0 -0.00000000000E+00 -0.00000000000E+00 -0.15775739797E+04  0.15775739797E+04  0.00000000000E+00 0. -1.
         24    2    1    2    0    0  0.17289264270E+02 -0.16829863772E+02 -0.10912921904E+04  0.10944877092E+04  0.80015860482E+02 0.  0.
         25    2    1    2    0    0  0.54850519621E+02  0.13323771939E+03 -0.43337995768E+03  0.47352476803E+03  0.12508656540E+03 0.  0.
        -24    2    1    2    0    0 -0.72139783890E+02 -0.11640785562E+03  0.17089928263E+03  0.23336261680E+03  0.80601543709E+02 0.  0.
        -11    1    3    3    0    0  0.11524502415E+01  0.20964068485E+02 -0.80370964359E+03  0.80398383784E+03  0.00000000000E+00 0.  1.
         12    1    3    3    0    0  0.16136814028E+02 -0.37793932256E+02 -0.28758254679E+03  0.29050387140E+03  0.00000000000E+00 0. -1.
         13    1    5    5    0    0 -0.27039113343E+02  0.64286897199E+01  0.25041709433E+02  0.37410278176E+02  0.00000000000E+00 0. -1.
        -14    1    5    5    0    0 -0.45100670547E+02 -0.12283654534E+03  0.14585757320E+03  0.19595233863E+03  0.00000000000E+00 0.  1.
          5    1    4    4  501    0  0.21362887251E+02 -0.15489210830E+02 -0.14359179345E+03  0.14605603086E+03  0.41800000000E+01 0. -1.
         -5    1    4    4    0  501  0.33487632370E+02  0.14872693022E+03 -0.28978816423E+03  0.32746873717E+03  0.41800000000E+01 0. -1.
</event>
<event>
11    1  0.8453735E-009  0.1325088E+03  0.7561462E-02  0.1116224E+00
         22   -1    0    0    0    0  0.00000000000E+00  0.00000000000E+00  0.27701552545E+03  0.27701552545E+03  0.00000000000E+00 0. -1.
         22   -1    0    0    0    0 -0.00000000000E+00 -0.00000000000E+00 -0.54939103214E+03  0.54939103214E+03  0.00000000000E+00 0. -1.
         24    2    1    2    0    0  0.43224238667E+02  0.59635955239E+01 -0.40613569007E+03  0.41636109401E+03  0.80662646709E+02 0.  0.
         25    2    1    2    0    0 -0.38779340651E+02 -0.34100578328E+02 -0.95187089422E+02  0.16545400169E+03  0.12509099879E+03 0.  0.
        -24    2    1    2    0    0 -0.44448980167E+01  0.28136982804E+02  0.22894727280E+03  0.24459146190E+03  0.81219964247E+02 0.  0.
        -13    1    3    3    0    0  0.44911650862E+02 -0.35799618594E+01 -0.95709473886E+02  0.10578362776E+03  0.00000000000E+00 0.  1.
         14    1    3    3    0    0 -0.16874121947E+01  0.95435573834E+01 -0.31042621618E+03  0.31057746625E+03  0.00000000000E+00 0. -1.
         11    1    5    5    0    0 -0.19576921299E+01  0.19222138865E+02  0.23348536571E+03  0.23428345904E+03  0.00000000000E+00 0. -1.
        -12    1    5    5    0    0 -0.24872058868E+01  0.89148439391E+01 -0.45380929114E+01  0.10308002855E+02  0.00000000000E+00 0.  1.
          5    1    4    4  501    0  0.10690832261E+02 -0.64188300658E+02 -0.83992040484E+02  0.10633234268E+03  0.41800000000E+01 0. -1.
         -5    1    4    4    0  501 -0.49470172911E+02  0.30087722330E+02 -0.11195048939E+02  0.59121659006E+02  0.41800000000E+01 0. -1.
</event>
<event>
11    1  0.8453735E-009  0.1338575E+03  0.7561462E-02  0.1114618E+00
         22   -1    0    0    0    0  0.00000000000E+00  0.00000000000E+00  0.54206227979E+03  0.54206227979E+03  0.00000000000E+00 0. -1.
         22   -1    0    0    0    0 -0.00000000000E+00 -0.00000000000E+00 -0.28871673283E+03  0.28871673283E+03  0.00000000000E+00 0.  1.
        -24    2    1    2    0    0  0.20986262149E+02 -0.42016958416E+02 -0.24857018836E+03  0.26629405949E+03  0.83183769934E+02 0.  0.
         25    2    1    2    0    0 -0.34774177439E+02  0.51006854113E+02  0.15696178257E+03  0.20999492820E+03  0.12509966466E+03 0.  0.
         24    2    1    2    0    0  0.13787915290E+02 -0.89898956968E+01  0.34495395276E+03  0.35449002494E+03  0.79993896168E+02 0.  0.
        -11    1    5    5    0    0 -0.27776807942E+02  0.16487246148E+02  0.11670125406E+03  0.12108907071E+03  0.00000000000E+00 0.  1.
         12    1    5    5    0    0  0.41564723232E+02 -0.25477141845E+02  0.22825269869E+03  0.23340095423E+03  0.00000000000E+00 0. -1.
         11    1    3    3    0    0  0.29632259525E+02 -0.36355694431E+02 -0.54310150298E+02  0.71759318193E+02  0.00000000000E+00 0. -1.
        -12    1    3    3    0    0 -0.86459973758E+01 -0.56612639856E+01 -0.19426003807E+03  0.19453474129E+03  0.00000000000E+00 0.  1.
          5    1    4    4  501    0 -0.39525914345E+02  0.50875231808E+02  0.12952999758E+02  0.65847093474E+02  0.41800000000E+01 0. -1.
         -5    1    4    4    0  501  0.47517369059E+01  0.13162230494E+00  0.14400878282E+03  0.14414783473E+03  0.41800000000E+01 0. -1.
</event>
<event>
11    1  0.8453735E-009  0.1296107E+03  0.7561462E-02  0.1119748E+00
         22   -1    0    0    0    0  0.00000000000E+00  0.00000000000E+00  0.63502210512E+03  0.63502210512E+03  0.00000000000E+00 0. -1.
         22   -1    0    0    0    0 -0.00000000000E+00 -0.00000000000E+00 -0.33047501888E+03  0.33047501888E+03  0.00000000000E+00 0. -1.
         24    2    1    2    0    0 -0.37886524912E+02 -0.32301669470E+02 -0.21956888688E+03  0.23916654231E+03  0.80692950446E+02 0.  0.
         25    2    1    2    0    0  0.26512861865E+02 -0.17739041345E+01 -0.53897216520E+02  0.13877481116E+03  0.12508980647E+03 0.  0.
        -24    2    1    2    0    0  0.11373663047E+02  0.34075573605E+02  0.57801318964E+03  0.58755577054E+03  0.99156599225E+02 0.  0.
        -13    1    3    3    0    0  0.24906707353E+02 -0.13975638999E+02 -0.82159576231E+02  0.86981943661E+02  0.00000000000E+00 0.  1.
         14    1    3    3    0    0 -0.62793232265E+02 -0.18326030471E+02 -0.13740931065E+03  0.15218459864E+03  0.00000000000E+00 0. -1.
         13    1    5    5    0    0 -0.18358918703E+02 -0.22025686010E+02  0.34040758464E+03  0.34161309170E+03  0.00000000000E+00 0. -1.
        -14    1    5    5    0    0  0.29732581750E+02  0.56101259615E+02  0.23760560500E+03  0.24594267884E+03  0.00000000000E+00 0.  1.
          5    1    4    4  501    0  0.31725012078E+02 -0.22783546054E+02 -0.89022561362E+02  0.97303932056E+02  0.41800000000E+01 0. -1.
         -5    1    4    4    0  501 -0.52121502126E+01  0.21009641920E+02  0.35125344842E+02  0.41470879105E+02  0.41800000000E+01 0. -1.
</event>
<event>
11    1  0.8453735E-009  0.1947493E+03  0.7561462E-02  0.1058300E+00
         22   -1    0    0    0    0  0.00000000000E+00  0.00000000000E+00  0.11471318304E+04  0.11471318304E+04  0.00000000000E+00 0. -1.
         22   -1    0    0    0    0 -0.00000000000E+00 -0.00000000000E+00 -0.13050292253E+04  0.13050292253E+04  0.00000000000E+00 0.  1.
        -24    2    1    2    0    0 -0.47066026707E+02  0.50990424131E+02 -0.11897038207E+04  0.11941362476E+04  0.75835102539E+02 0.  0.
         25    2    1    2    0    0  0.12551746588E+03  0.77308973835E+02 -0.17871124730E+02  0.19416729705E+03  0.12510096111E+03 0.  0.
         24    2    1    2    0    0 -0.78451439174E+02 -0.12829939797E+03  0.10496775506E+04  0.10638575110E+04  0.85758263975E+02 0.  0.
        -13    1    5    5    0    0  0.17090184198E+02 -0.16816412615E+02  0.21855178271E+03  0.21986302066E+03  0.00000000000E+00 0.  1.
         14    1    5    5    0    0 -0.95541623372E+02 -0.11148298535E+03  0.83112576784E+03  0.84399449038E+03  0.00000000000E+00 0. -1.
         11    1    3    3    0    0 -0.40843634885E+02  0.59144154812E+02 -0.59241769548E+03  0.59676206270E+03  0.00000000000E+00 0. -1.
        -12    1    3    3    0    0 -0.62223918222E+01 -0.81537306811E+01 -0.59728612518E+03  0.59737418493E+03  0.00000000000E+00 0.  1.
          5    1    4    4  501    0  0.88299508089E+02  0.87045561332E+02 -0.59275591258E+02  0.13749473079E+03  0.41800000000E+01 0.  1.
         -5    1    4    4    0  501  0.37217957792E+02 -0.97365874980E+01  0.41404466528E+02  0.56672566263E+02  0.41800000000E+01 0.  1.
</event>
<event>
11    1  0.8453735E-009  0.1474879E+03  0.7561462E-02  0.1099474E+00
         22   -1    0    0    0    0  0.00000000000E+00  0.00000000000E+00  0.86128632677E+03  0.86128632677E+03  0.00000000000E+00 0.  1.
         22   -1    0    0    0    0 -0.00000000000E+00 -0.00000000000E+00 -0.76970604223E+03  0.76970604223E+03  0.00000000000E+00 0.  1.
        -24    2    1    2    0    0 -0.56494370601E+02 -0.39090832187E+02 -0.72812947002E+03  0.73585295211E+03  0.81162398612E+02 0.  0.
         25    2    1    2    0    0  0.12359894784E+03  0.98692976536E+01  0.20258212830E+03  0.26844244979E+03  0.12509087576E+03 0.  0.
         24    2    1    2    0    0 -0.67104577239E+02  0.29221534533E+02  0.61712762627E+03  0.62669696710E+03  0.80905247666E+02 0.  0.
        -11    1    5    5    0    0 -0.64611377690E+02  0.18831219994E+02  0.61033759016E+03  0.61403682213E+03  0.00000000000E+00 0.  1.
         12    1    5    5    0    0 -0.24931995485E+01  0.10390314539E+02  0.67900361105E+01  0.12660144967E+02  0.00000000000E+00 0. -1.
         11    1    3    3    0    0  0.23743061708E+01  0.34945286959E+01 -0.11970625292E+00  0.42265104029E+01  0.00000000000E+00 0. -1.
        -12    1    3    3    0    0 -0.58868676772E+02 -0.42585360883E+02 -0.72800976377E+03  0.73162644171E+03  0.00000000000E+00 0.  1.
          5    1    4    4  501    0  0.14175429568E+03  0.21537108183E+02  0.13352406140E+03  0.19597008635E+03  0.41800000000E+01 0.  1.
         -5    1    4    4    0  501 -0.18155347843E+02 -0.11667810530E+02  0.69058066898E+02  0.72472363433E+02  0.41800000000E+01 0.  1.
</event>
<event>
11    1  0.8453735E-009  0.1542610E+03  0.7561462E-02  0.1092603E+00
         22   -1    0    0    0    0  0.00000000000E+00  0.00000000000E+00  0.25253263927E+03  0.25253263927E+03  0.00000000000E+00 0. -1.
         22   -1    0    0    0    0 -0.00000000000E+00 -0.00000000000E+00 -0.12182116733E+04  0.12182116733E+04  0.00000000000E+00 0. -1.
         24    2    1    2    0    0  0.86319277992E+02 -0.10525287539E+02 -0.93644973571E+03  0.94409730432E+03  0.82582159629E+02 0.  0.
         25    2    1    2    0    0 -0.11483451157E+03 -0.61681790152E+01 -0.24275094193E+03  0.29630973694E+03  0.12508568632E+03 0.  0.
        -24    2    1    2    0    0  0.28515233577E+02  0.16693466554E+02  0.21352164360E+03  0.23033727131E+03  0.79824657223E+02 0.  0.
        -11    1    3    3    0    0  0.10203477231E+02 -0.21017795116E+02 -0.61631577234E+02  0.65911379682E+02  0.00000000000E+00 0.  1.
         12    1    3    3    0    0  0.76115800761E+02  0.10492507576E+02 -0.87481815848E+03  0.87818592464E+03  0.00000000000E+00 0. -1.
         13    1    5    5    0    0  0.10433100614E+02  0.13068353459E+02  0.21107197995E+03  0.21173335158E+03  0.00000000000E+00 0. -1.
        -14    1    5    5    0    0  0.18082132963E+02  0.36251130957E+01  0.24496636424E+01  0.18603919732E+02  0.00000000000E+00 0.  1.
          5    1    4    4  501    0 -0.79666917153E+02  0.56468968041E+02 -0.14722762259E+03  0.17671730898E+03  0.41800000000E+01 0. -1.
         -5    1    4    4    0  501 -0.35167594415E+02 -0.62637147057E+02 -0.95523319334E+02  0.11959242796E+03  0.41800000000E+01 0. -1.
</event>
<event>
11    1  0.8453735E-009  0.1576984E+03  0.7561462E-02  0.1089262E+00
         22   -1    0    0    0    0  0.00000000000E+00  0.00000000000E+00  0.97903905452E+02  0.97903905452E+02  0.00000000000E+00 0.  1.
         22   -1    0    0    0    0 -0.00000000000E+00 -0.00000000000E+00 -0.17013594452E+04  0.17013594452E+04  0.00000000000E+00 0. -1.
        -24    2    1    2    0    0  0.89513610233E+02  0.83944876423E+00 -0.11898135911E+04  0.11958466570E+04  0.79871486706E+02 0.  0.
         25    2    1    2    0    0 -0.13346339478E+03  0.20239010369E+01 -0.46469650219E+03  0.49940757565E+03  0.12509401880E+03 0.  0.
         24    2    1    2    0    0  0.43949784551E+02 -0.28633498012E+01  0.51054553514E+02  0.10400911804E+03  0.79193098607E+02 0.  0.
        -13    1    5    5    0    0  0.56060789252E+02  0.24047532301E+02  0.32040576554E+02  0.68903515493E+02  0.00000000000E+00 0.  1.
         14    1    5    5    0    0 -0.12111004701E+02 -0.26910882102E+02  0.19013976960E+02  0.35105602548E+02  0.00000000000E+00 0. -1.
         11    1    3    3    0    0  0.89201602534E+02 -0.90800496830E-01 -0.11909837539E+04  0.11943195704E+04  0.00000000000E+00 0. -1.
        -12    1    3    3    0    0  0.31200769837E+00  0.93024926106E+00  0.11701628109E+01  0.15270866038E+01  0.00000000000E+00 0.  1.
          5    1    4    4  501    0 -0.37617726381E+02  0.33383589862E+02 -0.31401979474E+03  0.31804946361E+03  0.41800000000E+01 0.  1.
         -5    1    4    4    0  501 -0.95845668403E+02 -0.31359688825E+02 -0.15067670745E+03  0.18135811204E+03  0.41800000000E+01 0.  1.
</event>
<event>
11    1  0.8453735E-009  0.1474628E+03  0.7561462E-02  0.1099500E+00
         22   -1    0    0    0    0  0.00000000000E+00  0.00000000000E+00  0.32067075175E+03  0.32067075175E+03  0.00000000000E+00 0.  1.
         22   -1    0    0    0    0 -0.00000000000E+00 -0.00000000000E+00 -0.18063076958E+04  0.18063076958E+04  0.00000000000E+00 0.  1.
        -24    2    1    2    0    0  0.12283650018E+02  0.56534201786E+01 -0.12990870888E+04  0.13016288074E+04  0.80171308825E+02 0.  0.
         25    2    1    2    0    0 -0.61264449954E+02  0.55072590195E+02 -0.48436698009E+03  0.50699669563E+03  0.12509178612E+03 0.  0.
         24    2    1    2    0    0  0.48980799936E+02 -0.60726010374E+02  0.29781712488E+03  0.31835294449E+03  0.81035734703E+02 0.  0.
        -11    1    5    5    0    0  0.57577344527E+02 -0.23595211867E+02  0.24766525208E+03  0.25536241249E+03  0.00000000000E+00 0.  1.
         12    1    5    5    0    0 -0.85965445912E+01 -0.37130798507E+02  0.50151872797E+02  0.62990532001E+02  0.00000000000E+00 0. -1.
         13    1    3    3    0    0 -0.17890903758E+01 -0.43972830797E+01 -0.34311150990E+01  0.58574306379E+01  0.00000000000E+00 0. -1.
        -14    1    3    3    0    0  0.14072740394E+02  0.10050703258E+02 -0.12956559737E+04  0.12957713768E+04  0.00000000000E+00 0.  1.
          5    1    4    4  501    0  0.36869101806E+01  0.22048520551E+02 -0.37393630657E+03  0.37462723384E+03  0.41800000000E+01 0. -1.
         -5    1    4    4    0  501 -0.64951360134E+02  0.33024069645E+02 -0.11043067353E+03  0.13236946179E+03  0.41800000000E+01 0. -1.
</event>
<event>
11    1  0.8453735E-009  0.1308385E+03  0.7561462E-02  0.1118243E+00
         22   -1    0    0    0    0  0.00000000000E+00  0.00000000000E+00  0.11762984064E+04  0.11762984064E+04  0.00000000000E+00 0.  1.
         22   -1    0    0    0    0 -0.00000000000E+00 -0.00000000000E+00 -0.72079237633E+03  0.72079237633E+03  0.00000000000E+00 0. -1.
         24    2    1    2    0    0 -0.35970823350E+02  0.14435599859E+02 -0.70106435894E+03  0.70671362898E+03  0.80315822447E+02 0.  0.
         25    2    1    2    0    0 -0.32723171359E+01 -0.15006137043E+02  0.25524698425E+03  0.28466162100E+03  0.12508126675E+03 0.  0.
        -24    2    1    2    0    0  0.39243140486E+02  0.57053718379E+00  0.90132340473E+03  0.90571553273E+03  0.79977476350E+02 0.  0.
        -11    1    3    3    0    0  0.42805284956E+01 -0.65449624328E+01 -0.52475641551E+01  0.94178759288E+01  0.00000000000E+00 0.  1.
         12    1    3    3    0    0 -0.40251351846E+02  0.20980562292E+02 -0.69581679478E+03  0.69729575305E+03  0.00000000000E+00 0. -1.
         11    1    5    5    0    0 -0.18463561037E+02 -0.44274713185E+01  0.48619901961E+03  0.48656961707E+03  0.00000000000E+00 0. -1.
        -12    1    5    5    0    0  0.57706701523E+02  0.49980085023E+01  0.41512438513E+03  0.41914591566E+03  0.00000000000E+00 0.  1.
          5    1    4    4  501    0  0.46759468389E+02 -0.21687233186E+02  0.45481714062E+02  0.68868299539E+02  0.41800000000E+01 0.  1.
         -5    1    4    4    0  501 -0.50031785525E+02  0.66810961426E+01  0.20976527019E+03  0.21579332146E+03  0.41800000000E+01 0.  1.
</event>
<event>
11    1  0.8453735E-009  0.1279321E+03  0.7561462E-02  0.1121836E+00
         22   -1    0    0    0    0  0.00000000000E+00  0.00000000000E+00  0.35870432018E+03  0.35870432018E+03  0.00000000000E+00 0. -1.
         22   -1    0    0    0    0 -0.00000000000E+00 -0.00000000000E+00 -0.85989572007E+03  0.85989572007E+03  0.00000000000E+00 0.  1.
         24    2    1    2    0    0  0.51446854743E+01  0.13074180576E+02 -0.76898364619E+03  0.77336813594E+03  0.81024833105E+02 0.  0.
         25    2    1    2    0    0 -0.30266427589E+02 -0.20649147991E+02 -0.31570644552E+02  0.13411252049E+03  0.12508804341E+03 0.  0.
        -24    2    1    2    0    0  0.25121742115E+02  0.75749674149E+01  0.29936289086E+03  0.31111938382E+03  0.80552147752E+02 0.  0.
        -11    1    3    3    0    0  0.23785376769E+02  0.11609910373E+02 -0.72613796720E+03  0.72662017697E+03  0.00000000000E+00 0.  1.
         12    1    3    3    0    0 -0.18640691294E+02  0.14642702030E+01 -0.42845678990E+02  0.46747958964E+02  0.00000000000E+00 0. -1.
         11    1    5    5    0    0 -0.23957546593E+02 -0.15095698056E+02  0.14003215800E+03  0.14286654407E+03  0.00000000000E+00 0. -1.
        -12    1    5    5    0    0  0.49079288708E+02  0.22670665471E+02  0.15933073286E+03  0.16825283975E+03  0.00000000000E+00 0.  1.
          5    1    4    4  501    0 -0.95865730135E+01 -0.39151147446E+02  0.40181728052E+02  0.57068015540E+02  0.41800000000E+01 0. -1.
         -5    1    4    4    0  501 -0.20679854576E+02  0.18501999455E+02 -0.71752372604E+02  0.77044504953E+02  0.41800000000E+01 0. -1.
</event>
<event>
11    1  0.8453735E-009  0.2050009E+03  0.7561462E-02  0.1051043E+00
         22   -1    0    0    0    0  0.00000000000E+00  0.00000000000E+00  0.98736867342E+03  0.98736867342E+03  0.00000000000E+00 0. -1.
         22   -1    0    0    0    0 -0.00000000000E+00 -0.00000000000E+00 -0.29561080380E+04  0.29561080380E+04  0.00000000000E+00 0. -1.
        -24    2    1    2    0    0  0.34352368662E+00 -0.30489272786E+02 -0.26004740677E+04  0.26018675185E+04  0.79495241471E+02 0.  0.
         25    2    1    2    0    0  0.11390324079E+03 -0.85685600635E+02 -0.32055606162E+03  0.37244905531E+03  0.12508453036E+03 0.  0.
         24    2    1    2    0    0 -0.11424676448E+03  0.11617487342E+03  0.95229076473E+03  0.96916013760E+03  0.76581638245E+02 0.  0.
        -13    1    5    5    0    0  0.74657873412E+01  0.27868805216E+02  0.12225267156E+03  0.12561100266E+03  0.00000000000E+00 0.  1.
         14    1    5    5    0    0 -0.12171255182E+03  0.88306068206E+02  0.83003809317E+03  0.84354913494E+03  0.00000000000E+00 0. -1.
         13    1    3    3    0    0 -0.25139439843E+02 -0.15117813436E+02 -0.22322659593E+04  0.22324587012E+04  0.00000000000E+00 0. -1.
        -14    1    3    3    0    0  0.25482963529E+02 -0.15371459350E+02 -0.36820810841E+03  0.36940881729E+03  0.00000000000E+00 0.  1.
          5    1    4    4  501    0  0.48139885352E+02 -0.10535019401E+02 -0.23720450167E+03  0.24230535117E+03  0.41800000000E+01 0.  1.
         -5    1    4    4    0  501  0.65763355440E+02 -0.75150581234E+02 -0.83351559959E+02  0.13014370414E+03  0.41800000000E+01 0.  1.
</event>
<event>
11    1  0.8453735E-009  0.1962505E+03  0.7561462E-02  0.1057207E+00
         22   -1    0    0    0    0  0.00000000000E+00  0.00000000000E+00  0.12063849303E+04  0.12063849303E+04  0.00000000000E+00 0. -1.
         22   -1    0    0    0    0 -0.00000000000E+00 -0.00000000000E+00 -0.96112859333E+03  0.96112859333E+03  0.00000000000E+00 0. -1.
         24    2    1    2    0    0 -0.64978629255E+01  0.26145062695E+02 -0.72651576623E+03  0.73140300353E+03  0.79996302814E+02 0.  0.
         25    2    1    2    0    0 -0.14437204748E+03 -0.37982726355E+02 -0.18390596964E+03  0.26787227687E+03  0.12509266745E+03 0.  0.
        -24    2    1    2    0    0  0.15086991040E+03  0.11837663660E+02  0.11556780728E+04  0.11682382432E+04  0.79290130399E+02 0.  0.
        -13    1    3    3    0    0 -0.79485645397E-01  0.53909186606E+02 -0.54558481786E+03  0.54824173519E+03  0.00000000000E+00 0.  1.
         14    1    3    3    0    0 -0.64183772801E+01 -0.27764123911E+02 -0.18093094836E+03  0.18316126834E+03  0.00000000000E+00 0. -1.
         13    1    5    5    0    0  0.99423206770E+02 -0.30631000572E+02  0.72365002711E+03  0.73109000402E+03  0.00000000000E+00 0. -1.
        -14    1    5    5    0    0  0.51446703634E+02  0.42468664232E+02  0.43202804569E+03  0.43714823918E+03  0.00000000000E+00 0.  1.
          5    1    4    4  501    0 -0.13100065139E+03 -0.56438165703E+02 -0.84590809349E+02  0.16589006793E+03  0.41800000000E+01 0.  1.
         -5    1    4    4    0  501 -0.13371396089E+02  0.18455439348E+02 -0.99315160293E+02  0.10198220893E+03  0.41800000000E+01 0.  1.
</event>
<event>
11    1  0.8453735E-009  0.1500352E+03  0.7561462E-02  0.1096843E+00
         22   -1    0    0    0    0  0.00000000000E+00  0.00000000000E+00  0.82857488086E+02  0.82857488086E+02  0.00000000000E+00 0. -1.
         22   -1    0    0    0    0 -0.00000000000E+00 -0.00000000000E+00 -0.53342466415E+03  0.53342466415E+03  0.00000000000E+00 0. -1.
         24    2    1    2    0    0 -0.80665910632E+01 -0.87399146039E+02 -0.26036827410E+03  0.28599639519E+03  0.79363841152E+02 0.  0.
         25    2    1    2    0    0  0.65079374125E+02  0.59229430749E+02 -0.16784924952E+03  0.22707749342E+03  0.12508943621E+03 0.  0.
        -24    2    1    2    0    0 -0.57012783061E+02  0.28169715290E+02 -0.22349652445E+02  0.10320826363E+03  0.78156563540E+02 0.  0.
        -11    1    3    3    0    0  0.26014356833E+02 -0.15038649173E+02 -0.12679100773E+03  0.13030298297E+03  0.00000000000E+00 0.  1.
         12    1    3    3    0    0 -0.34080947896E+02 -0.72360496866E+02 -0.13357726637E+03  0.15569341222E+03  0.00000000000E+00 0. -1.
         13    1    5    5    0    0 -0.64482416524E+02  0.19475128795E-02  0.30454428740E+01  0.64554293172E+02  0.00000000000E+00 0. -1.
        -14    1    5    5    0    0  0.74696334628E+01  0.28167767777E+02 -0.25395095319E+02  0.38653970454E+02  0.00000000000E+00 0.  1.
          5    1    4    4  501    0  0.44791963194E+02  0.88810546768E+02 -0.67111846399E+02  0.12006292313E+03  0.41800000000E+01 0.  1.
         -5    1    4    4    0  501  0.20287410931E+02 -0.29581116020E+02 -0.10073740312E+03  0.10701457029E+03  0.41800000000E+01 0.  1.
</event>
<event>
11    1  0.8453735E-009  0.1568389E+03  0.7561462E-02  0.1090089E+00
         22   -1    0    0    0    0  0.00000000000E+00  0.00000000000E+00  0.50273500451E+03  0.50273500451E+03  0.00000000000E+00 0. -1.
         22   -1    0    0    0    0 -0.00000000000E+00 -0.00000000000E+00 -0.37948925439E+03  0.37948925439E+03  0.00000000000E+00 0.  1.
        -24    2    1    2    0    0 -0.34886318836E+02 -0.90895431472E+02 -0.30982847709E+03  0.33418691344E+03  0.78791961465E+02 0.  0.
         25    2    1    2    0    0  0.86149995320E+02  0.35884037180E+02  0.74635916203E+02  0.17300094523E+03  0.12509724715E+03 0.  0.
         24    2    1    2    0    0 -0.51263676484E+02  0.55011394292E+02  0.35843831100E+03  0.37503640024E+03  0.80746892684E+02 0.  0.
        -13    1    5    5    0    0 -0.82207003100E+01  0.49169665134E+02  0.28799004268E+03  0.29227298980E+03  0.00000000000E+00 0.  1.
         14    1    5    5    0    0 -0.43042976174E+02  0.58417291585E+01  0.70448268326E+02  0.82763410440E+02  0.00000000000E+00 0. -1.
         13    1    3    3    0    0 -0.20113070551E+02 -0.75643003332E+02 -0.12061618358E+03  0.14378686762E+03  0.00000000000E+00 0. -1.
        -14    1    3    3    0    0 -0.14773248285E+02 -0.15252428140E+02 -0.18921229352E+03  0.19040004582E+03  0.00000000000E+00 0.  1.
          5    1    4    4  501    0  0.64340682445E+02  0.63130375711E+02  0.96092851255E+02  0.13181986276E+03  0.41800000000E+01 0. -1.
         -5    1    4    4    0  501  0.21809312874E+02 -0.27246338531E+02 -0.21456935053E+02  0.41181082468E+02  0.41800000000E+01 0. -1.
</event>
<event>
11    1  0.8453735E-009  0.1270979E+03  0.7561462E-02  0.1122887E+00
         22   -1    0    0    0    0  0.00000000000E+00  0.00000000000E+00  0.33439254662E+03  0.33439254662E+03  0.00000000000E+00 0.  1.
         22   -1    0    0    0    0 -0.00000000000E+00 -0.00000000000E+00 -0.43385086530E+03  0.43385086530E+03  0.00000000000E+00 0.  1.
        -24    2    1    2    0    0  0.96611425467E+01  0.19728272339E+02 -0.38227214496E+03  0.39201311353E+03  0.84022294474E+02 0.  0.
         25    2    1    2    0    0 -0.21271097104E+02 -0.27826701532E+02  0.71571761932E+02  0.14831458008E+03  0.12509161710E+03 0.  0.
         24    2    1    2    0    0  0.11609954557E+02  0.80984291923E+01  0.21124206435E+03  0.22791571831E+03  0.84391879355E+02 0.  0.
        -11    1    5    5    0    0  0.23416469275E+02 -0.19773282638E+02  0.18598425230E+03  0.18849258830E+03  0.00000000000E+00 0.  1.
         12    1    5    5    0    0 -0.11806514718E+02  0.27871711830E+02  0.25257812044E+02  0.39423130005E+02  0.00000000000E+00 0. -1.
         13    1    3    3    0    0  0.13086847567E+02  0.46481141537E+02 -0.13697124263E+03  0.14523389207E+03  0.00000000000E+00 0. -1.
        -14    1    3    3    0    0 -0.34257050202E+01 -0.26752869198E+02 -0.24530090232E+03  0.24677922146E+03  0.00000000000E+00 0.  1.
          5    1    4    4  501    0 -0.70909624386E+02 -0.33320072710E+02  0.33195977040E+02  0.85193000696E+02  0.41800000000E+01 0. -1.
         -5    1    4    4    0  501  0.49638527282E+02  0.54933711788E+01  0.38375784893E+02  0.63121579383E+02  0.41800000000E+01 0. -1.
</event>
<event>
11    1  0.8453735E-009  0.1604138E+03  0.7561462E-02  0.1086689E+00
         22   -1    0    0    0    0  0.00000000000E+00  0.00000000000E+00  0.14718504447E+03  0.14718504447E+03  0.00000000000E+00 0. -1.
         22   -1    0    0    0    0 -0.00000000000E+00 -0.00000000000E+00 -0.11148914864E+04  0.11148914864E+04  0.00000000000E+00 0.  1.
         24    2    1    2    0    0  0.25572871512E+02 -0.95658826855E+02 -0.78061894827E+03  0.79110554898E+03  0.81715753155E+02 0.  0.
         25    2    1    2    0    0  0.71172742663E+02  0.12059610030E+03 -0.26174386074E+03  0.32212607022E+03  0.12508548187E+03 0.  0.
        -24    2    1    2    0    0 -0.96745614175E+02 -0.24937273441E+02  0.74656367091E+02  0.14884491165E+03  0.81238249047E+02 0.  0.
        -11    1    3    3    0    0 -0.25369657451E+02 -0.62507489408E+02 -0.39194197093E+03  0.39770505947E+03  0.00000000000E+00 0.  1.
         12    1    3    3    0    0  0.50942528963E+02 -0.33151337447E+02 -0.38867697734E+03  0.39340048950E+03  0.00000000000E+00 0. -1.
         13    1    5    5    0    0 -0.10362271049E+03 -0.11835655649E+01  0.55440848625E+02  0.11752767612E+03  0.00000000000E+00 0. -1.
        -14    1    5    5    0    0  0.68770963162E+01 -0.23753707876E+02  0.19215518466E+02  0.31317235535E+02  0.00000000000E+00 0.  1.
          5    1    4    4  501    0  0.31159904781E+02  0.47798235137E+02 -0.11411748359E+02  0.58337906619E+02  0.41800000000E+01 0. -1.
         -5    1    4    4    0  501  0.40012837882E+02  0.72797865160E+02 -0.25033211238E+03  0.26378816360E+03  0.41800000000E+01 0. -1.
</event>
<event>
11    1  0.8453735E-009  0.2542450E+03  0.7561462E-02  0.1021662E+00
         22   -1    0    0    0    0  0.00000000000E+00  0.00000000000E+00  0.11498848154E+04  0.11498848154E+04  0.00000000000E+00 0. -1.
         22   -1    0    0    0    0 -0.00000000000E+00 -0.00000000000E+00 -0.13178035548E+04  0.13178035548E+04  0.00000000000E+00 0.  1.
         24    2    1    2    0    0  0.21404925417E+03  0.50000368650E+02 -0.12186660905E+04  0.12412555811E+04  0.85154314298E+02 0.  0.
         25    2    1    2    0    0 -0.24774937542E+03 -0.51144875867E+02  0.14646861366E+03  0.31795453022E+03  0.12508587910E+03 0.  0.
        -24    2    1    2    0    0  0.33700121257E+02  0.11445072165E+01  0.90427873737E+03  0.90847825891E+03  0.80471758879E+02 0.  0.
        -13    1    3    3    0    0  0.11525428696E+03  0.52472057454E+01 -0.82089624367E+03  0.82896424935E+03  0.00000000000E+00 0.  1.
         14    1    3    3    0    0  0.98794967209E+02  0.44753162905E+02 -0.39776984686E+03  0.41229133171E+03  0.00000000000E+00 0. -1.
         13    1    5    5    0    0  0.27629359334E+02 -0.34646732083E+02  0.66350083559E+03  0.66497904958E+03  0.00000000000E+00 0. -1.
        -14    1    5    5    0    0  0.60707619234E+01  0.35791239300E+02  0.24077790178E+03  0.24349920933E+03  0.00000000000E+00 0.  1.
          5    1    4    4  501    0 -0.40848063956E+02  0.15210364676E+02  0.79133220379E+02  0.90440358746E+02  0.41800000000E+01 0.  1.
         -5    1    4    4    0  501 -0.20690131147E+03 -0.66355240543E+02  0.67335393285E+02  0.22751417148E+03  0.41800000000E+01 0.  1.
</event>
<event>
11    1  0.8453735E-009  0.2183570E+03  0.7561462E-02  0.1042252E+00
         22   -1    0    0    0    0  0.00000000000E+00  0.00000000000E+00  0.15205103063E+03  0.15205103063E+03  0.00000000000E+00 0.  1.
         22   -1    0    0    0    0 -0.00000000000E+00 -0.00000000000E+00 -0.21994213314E+04  0.21994213314E+04  0.00000000000E+00 0. -1.
        -24    2    1    2    0    0 -0.15037021806E+03  0.87835024567E+02 -0.18376309866E+04  0.18476924420E+04  0.82179821531E+02 0.  0.
         25    2    1    2    0    0  0.17338839441E+03 -0.20605492003E+03 -0.19898320873E+03  0.35744247400E+03  0.12509452219E+03 0.  0.
         24    2    1    2    0    0 -0.23018176345E+02  0.11821989546E+03 -0.10756105420E+02  0.14633744608E+03  0.82420714601E+02 0.  0.
        -13    1    5    5    0    0 -0.38783647284E+02  0.36066540038E+02 -0.29481898173E+02  0.60614758325E+02  0.00000000000E+00 0.  1.
         14    1    5    5    0    0  0.15765470938E+02  0.82153355422E+02  0.18725792752E+02  0.85722687751E+02  0.00000000000E+00 0. -1.
         13    1    3    3    0    0 -0.13632021878E+03  0.82493053332E+02 -0.18018644016E+04  0.18088956929E+04  0.00000000000E+00 0. -1.
        -14    1    3    3    0    0 -0.14049999284E+02  0.53419712351E+01 -0.35766585004E+02  0.38796749083E+02  0.00000000000E+00 0.  1.
          5    1    4    4  501    0  0.14933003103E+03 -0.21526453112E+03 -0.14994667488E+03  0.30189361410E+03  0.41800000000E+01 0.  1.
         -5    1    4    4    0  501  0.24058363373E+02  0.92096110901E+01 -0.49036533855E+02  0.55548859908E+02  0.41800000000E+01 0.  1.
</event>
<event>
11    1  0.8453735E-009  0.1446630E+03  0.7561462E-02  0.1102460E+00
         22   -1    0    0    0    0  0.00000000000E+00  0.00000000000E+00  0.21007179906E+03  0.21007179906E+03  0.00000000000E+00 0. -1.
         22   -1    0    0    0    0 -0.00000000000E+00 -0.00000000000E+00 -0.35931163444E+03  0.35931163444E+03  0.00000000000E+00 0.  1.
         24    2    1    2    0    0  0.49467972965E+02 -0.29184684592E+02 -0.10799651634E+03  0.14635635567E+03  0.80362361464E+02 0.  0.
         25    2    1    2    0    0 -0.66428459763E+02  0.71285706848E+02 -0.19026150111E+03  0.24765940172E+03  0.12506537564E+03 0.  0.
        -24    2    1    2    0    0  0.16960486798E+02 -0.42101022257E+02  0.14901818207E+03  0.17536767611E+03  0.80543460624E+02 0.  0.
        -13    1    3    3    0    0  0.19997432605E+02 -0.46094190422E+02 -0.23868619460E+02  0.55626277031E+02  0.00000000000E+00 0.  1.
         14    1    3    3    0    0  0.29470540360E+02  0.16909505830E+02 -0.84127896884E+02  0.90730078643E+02  0.00000000000E+00 0. -1.
         13    1    5    5    0    0  0.22244473242E+02  0.10837284080E+02  0.10003820466E+03  0.10305292673E+03  0.00000000000E+00 0. -1.
        -14    1    5    5    0    0 -0.52839864432E+01 -0.52938306337E+02  0.48979977405E+02  0.72314749375E+02  0.00000000000E+00 0.  1.
          5    1    4    4  501    0 -0.85720545570E+02  0.15702917029E+02 -0.63695593184E+02  0.10802404606E+03  0.41800000000E+01 0. -1.
         -5    1    4    4    0  501  0.19292085807E+02  0.55582789819E+02 -0.12656590793E+03  0.13963535566E+03  0.41800000000E+01 0. -1.
</event>
<event>
11    1  0.8453735E-009  0.1536545E+03  0.7561462E-02  0.1093202E+00
         22   -1    0    0    0    0  0.00000000000E+00  0.00000000000E+00  0.20048488277E+03  0.20048488277E+03  0.00000000000E+00 0. -1.
         22   -1    0    0    0    0 -0.00000000000E+00 -0.00000000000E+00 -0.42224018633E+03  0.42224018633E+03  0.00000000000E+00 0.  1.
         24    2    1    2    0    0  0.44587064842E+02 -0.18941861593E+02 -0.26208560980E+03  0.28064936847E+03  0.87911322866E+02 0.  0.
         25    2    1    2    0    0 -0.92397359239E+02 -0.54230772665E+02 -0.71023597778E+02  0.17936107918E+03  0.12509115310E+03 0.  0.
        -24    2    1    2    0    0  0.47810294398E+02  0.73172634258E+02  0.11135390402E+03  0.16271462146E+03  0.80226538262E+02 0.  0.
        -13    1    3    3    0    0 -0.80689286848E+01  0.28409467553E+02 -0.74200661525E+02  0.79862028697E+02  0.00000000000E+00 0.  1.
         14    1    3    3    0    0  0.52655993527E+02 -0.47351329146E+02 -0.18788494827E+03  0.20078733977E+03  0.00000000000E+00 0. -1.
         13    1    5    5    0    0  0.59313359211E+02  0.83649183573E+02  0.10158860754E+03  0.14434509232E+03  0.00000000000E+00 0. -1.
        -14    1    5    5    0    0 -0.11503064813E+02 -0.10476549314E+02  0.97652964730E+01  0.18369529141E+02  0.00000000000E+00 0.  1.
          5    1    4    4  501    0 -0.20023648195E+02 -0.60356609495E+02  0.16223128114E+02  0.65761151774E+02  0.41800000000E+01 0. -1.
         -5    1    4    4    0  501 -0.72373711044E+02  0.61258368303E+01 -0.87246725892E+02  0.11359992740E+03  0.41800000000E+01 0. -1.
</event>
<event>
11    1  0.8453735E-009  0.1324567E+03  0.7561462E-02  0.1116287E+00
         22   -1    0    0    0    0  0.00000000000E+00  0.00000000000E+00  0.76855294211E+03  0.76855294211E+03  0.00000000000E+00 0. -1.
         22   -1    0    0    0    0 -0.00000000000E+00 -0.00000000000E+00 -0.36102968119E+03  0.36102968119E+03  0.00000000000E+00 0. -1.
        -24    2    1    2    0    0 -0.93435377951E+01 -0.41627667911E+02 -0.31238604198E+03  0.32605458964E+03  0.83104703651E+02 0.  0.
         25    2    1    2    0    0 -0.20736683468E+02  0.66290144919E+02  0.93549203566E+02  0.17094893257E+03  0.12509072988E+03 0.  0.
         24    2    1    2    0    0  0.30080221264E+02 -0.24662477007E+02  0.62636009933E+03  0.63257910109E+03  0.79475075483E+02 0.  0.
        -13    1    5    5    0    0  0.22174421438E+02 -0.49198314145E+02  0.27315776543E+03  0.27843732490E+03  0.00000000000E+00 0.  1.
         14    1    5    5    0    0  0.79057998255E+01  0.24535837137E+02  0.35320233390E+03  0.35414177620E+03  0.00000000000E+00 0. -1.
         11    1    3    3    0    0  0.27020442114E+02 -0.58345664987E+01 -0.20839196785E+03  0.21021740823E+03  0.00000000000E+00 0. -1.
        -12    1    3    3    0    0 -0.36363979909E+02 -0.35793101413E+02 -0.10399407413E+03  0.11583718141E+03  0.00000000000E+00 0.  1.
          5    1    4    4  501    0  0.95616479320E+00  0.80872784307E+01  0.10688982718E+03  0.10728106020E+03  0.41800000000E+01 0.  1.
         -5    1    4    4    0  501 -0.21692848262E+02  0.58202866488E+02 -0.13340623613E+02  0.63667872365E+02  0.41800000000E+01 0.  1.
</event>
<event>
11    1  0.8453735E-009  0.1893754E+03  0.7561462E-02  0.1062302E+00
         22   -1    0    0    0    0  0.00000000000E+00  0.00000000000E+00  0.13834260175E+03  0.13834260175E+03  0.00000000000E+00 0.  1.
         22   -1    0    0    0    0 -0.00000000000E+00 -0.00000000000E+00 -0.66569897654E+03  0.66569897654E+03  0.00000000000E+00 0. -1.
        -24    2    1    2    0    0 -0.63546767131E+02  0.11069635566E+02 -0.21817627871E+03  0.24049188946E+03  0.77940566220E+02 0.  0.
         25    2    1    2    0    0  0.19601966307E+03 -0.15123077955E+02 -0.33375513154E+03  0.40704881734E+03  0.12507532161E+03 0.  0.
         24    2    1    2    0    0 -0.13247289594E+03  0.40534423896E+01  0.24575035451E+02  0.15650087149E+03  0.79517871294E+02 0.  0.
        -13    1    5    5    0    0 -0.11385543423E+03 -0.12321705767E+02 -0.88750126936E+01  0.11486361559E+03  0.00000000000E+00 0.  1.
         14    1    5    5    0    0 -0.18617461711E+02  0.16375148157E+02  0.33450048144E+02  0.41637255896E+02  0.00000000000E+00 0. -1.
         13    1    3    3    0    0 -0.67818495042E+02  0.29874992128E+02 -0.20251755989E+03  0.21565070250E+03  0.00000000000E+00 0. -1.
        -14    1    3    3    0    0  0.42717279112E+01 -0.18805356562E+02 -0.15658718815E+02  0.24841186963E+02  0.00000000000E+00 0.  1.
          5    1    4    4  501    0  0.13190736760E+03 -0.30719242940E+02 -0.11246678954E+03  0.17609507847E+03  0.41800000000E+01 0.  1.
         -5    1    4    4    0  501  0.64112295472E+02  0.15596164985E+02 -0.22128834200E+03  0.23095373887E+03  0.41800000000E+01 0.  1.
</event>
<event>
11    1  0.8453735E-009  0.1500664E+03  0.7561462E-02  0.1096811E+00
         22   -1    0    0    0    0  0.00000000000E+00  0.00000000000E+00  0.10663613461E+04  0.10663613461E+04  0.00000000000E+00 0. -1.
         22   -1    0    0    0    0 -0.00000000000E+00 -0.00000000000E+00 -0.34759401101E+03  0.34759401101E+03  0.00000000000E+00 0.  1.
        -24    2    1    2    0    0 -0.47419256164E+02  0.68683486750E+02 -0.30170918924E+03  0.32319670422E+03  0.80384498128E+02 0.  0.
         25    2    1    2    0    0  0.18584958297E+01 -0.87327814961E+02  0.14385055056E+03  0.20968875552E+03  0.12508713773E+03 0.  0.
         24    2    1    2    0    0  0.45560760334E+02  0.18644328211E+02  0.87662597376E+03  0.88106989734E+03  0.73400764778E+02 0.  0.
        -13    1    5    5    0    0  0.54906552039E+02  0.16894899345E+02  0.37684896668E+03  0.38120245378E+03  0.00000000000E+00 0.  1.
         14    1    5    5    0    0 -0.93457917046E+01  0.17494288659E+01  0.49977700707E+03  0.49986744355E+03  0.00000000000E+00 0. -1.
         11    1    3    3    0    0  0.22657926441E+02  0.22561974498E+02 -0.81407235642E+02  0.87461776444E+02  0.00000000000E+00 0. -1.
        -12    1    3    3    0    0 -0.70077182605E+02  0.46121512252E+02 -0.22030195360E+03  0.23573492778E+03  0.00000000000E+00 0.  1.
          5    1    4    4  501    0 -0.48596576622E+02 -0.89448017435E+02  0.97263164910E+02  0.14085514095E+03  0.41800000000E+01 0.  1.
         -5    1    4    4    0  501  0.50455072451E+02  0.21202024740E+01  0.46587385646E+02  0.68833614579E+02  0.41800000000E+01 0.  1.
</event>
<event>
11    1  0.8453735E-009  0.1528424E+03  0.7561462E-02  0.1094009E+00
         22   -1    0    0    0    0  0.00000000000E+00  0.00000000000E+00  0.29760943227E+03  0.29760943227E+03  0.00000000000E+00 0.  1.
         22   -1    0    0    0    0 -0.00000000000E+00 -0.00000000000E+00 -0.93071437666E+03  0.93071437666E+03  0.00000000000E+00 0.  1.
        -24    2    1    2    0    0  0.30834190214E+02  0.80820483930E+02 -0.73920028702E+03  0.74866082102E+03  0.81198908190E+02 0.  0.
         25    2    1    2    0    0 -0.27507026380E+02 -0.94159829849E+02 -0.14518092137E+03  0.21527569697E+03  0.12507364119E+03 0.  0.
         24    2    1    2    0    0 -0.33271638342E+01  0.13339345919E+02  0.25127626400E+03  0.26438729094E+03  0.81067074647E+02 0.  0.
        -11    1    5    5    0    0  0.25941685219E+02  0.35166797921E+02  0.10739173362E+03  0.11594248211E+03  0.00000000000E+00 0.  1.
         12    1    5    5    0    0 -0.29268849053E+02 -0.21827452002E+02  0.14388453037E+03  0.14844480882E+03  0.00000000000E+00 0. -1.
         11    1    3    3    0    0  0.41321514622E+02  0.10872672831E+02 -0.39253591845E+03  0.39485456798E+03  0.00000000000E+00 0. -1.
        -12    1    3    3    0    0 -0.10487324409E+02  0.69947811100E+02 -0.34666436858E+03  0.35380625304E+03  0.00000000000E+00 0.  1.
          5    1    4    4  501    0 -0.36717064756E+02 -0.16179638369E+02  0.97763564530E+01  0.41508710984E+02  0.41800000000E+01 0.  1.
         -5    1    4    4    0  501  0.92100383767E+01 -0.77980191480E+02 -0.15495727782E+03  0.17376698599E+03  0.41800000000E+01 0.  1.
</event>
<event>
11    1  0.8453735E-009  0.1443006E+03  0.7561462E-02  0.1102849E+00
         22   -1    0    0    0    0  0.00000000000E+00  0.00000000000E+00  0.18768990097E+04  0.18768990097E+04  0.00000000000E+00 0.  1.
         22   -1    0    0    0    0 -0.00000000000E+00 -0.00000000000E+00 -0.57684951531E+03  0.57684951531E+03  0.00000000000E+00 0.  1.
        -24    2    1    2    0    0  0.19311983306E+02 -0.69364328253E+02 -0.56182405860E+03  0.57126233507E+03  0.74229508322E+02 0.  0.
         25    2    1    2    0    0 -0.26873368759E+02  0.60090298573E+02  0.55219148064E+03  0.56999565847E+03  0.12508635998E+03 0.  0.
         24    2    1    2    0    0  0.75613854527E+01  0.92740296803E+01  0.13096820724E+04  0.13124905315E+04  0.84976952047E+02 0.  0.
        -11    1    5    5    0    0  0.37635056407E+02 -0.19920536761E+02  0.77450714015E+03  0.77567682407E+03  0.00000000000E+00 0.  1.
         12    1    5    5    0    0 -0.30073670955E+02  0.29194566441E+02  0.53517493220E+03  0.53681370740E+03  0.00000000000E+00 0. -1.
         11    1    3    3    0    0  0.54578694258E+01  0.15910448835E+02 -0.10543748517E+03  0.10677075442E+03  0.00000000000E+00 0. -1.
        -12    1    3    3    0    0  0.13854113880E+02 -0.85274777088E+02 -0.45638657344E+03  0.46449158065E+03  0.00000000000E+00 0.  1.
          5    1    4    4  501    0 -0.21635176846E+01  0.44492167671E+02  0.53280493437E+03  0.53468009527E+03  0.41800000000E+01 0.  1.
         -5    1    4    4    0  501 -0.24709851074E+02  0.15598130901E+02  0.19386546270E+02  0.35315563199E+02  0.41800000000E+01 0.  1.
</event>
<event>
11    1  0.8453735E-009  0.2171700E+03  0.7561462E-02  0.1043005E+00
         22   -1    0    0    0    0  0.00000000000E+00  0.00000000000E+00  0.16980899586E+03  0.16980899586E+03  0.00000000000E+00 0. -1.
         22   -1    0    0    0    0 -0.00000000000E+00 -0.00000000000E+00 -0.11894933201E+04  0.11894933201E+04  0.00000000000E+00 0. -1.
        -24    2    1    2    0    0  0.15180611705E+03  0.10187279694E+03 -0.89773711437E+03  0.92020413976E+03  0.86142721006E+02 0.  0.
         25    2    1    2    0    0 -0.34212014252E+02 -0.19509115855E+03 -0.13185742234E+03  0.26882090664E+03  0.12508908008E+03 0.  0.
         24    2    1    2    0    0 -0.11759410280E+03  0.93218361613E+02  0.99102124404E+01  0.17027726959E+03  0.79863009435E+02 0.  0.
        -13    1    5    5    0    0 -0.48596339963E+02  0.87613268708E+01 -0.25550931987E+02  0.55598698112E+02  0.00000000000E+00 0.  1.
         14    1    5    5    0    0 -0.68997762833E+02  0.84457034742E+02  0.35461144427E+02  0.11467857148E+03  0.00000000000E+00 0. -1.
         13    1    3    3    0    0  0.13645381851E+03  0.45759534360E+02 -0.63824051420E+03  0.65426640869E+03  0.00000000000E+00 0. -1.
        -14    1    3    3    0    0  0.15352298541E+02  0.56113262580E+02 -0.25949660017E+03  0.26593773108E+03  0.00000000000E+00 0.  1.
          5    1    4    4  501    0  0.39955867284E+02 -0.28288733503E+02 -0.44966270520E+02  0.66604516799E+02  0.41800000000E+01 0.  1.
         -5    1    4    4    0  501 -0.74167881536E+02 -0.16680242505E+03 -0.86891151819E+02  0.20221638984E+03  0.41800000000E+01 0.  1.
</event>
<event>
11    1  0.8453735E-009  0.1678356E+03  0.7561462E-02  0.1079931E+00
         22   -1    0    0    0    0  0.00000000000E+00  0.00000000000E+00  0.80118860908E+03  0.80118860908E+03  0.00000000000E+00 0.  1.
         22   -1    0    0    0    0 -0.00000000000E+00 -0.00000000000E+00 -0.70901103618E+03  0.70901103618E+03  0.00000000000E+00 0.  1.
        -24    2    1    2    0    0 -0.13683929711E+01 -0.11768724486E+03 -0.57009593545E+03  0.58796161247E+03  0.82688100834E+02 0.  0.
         25    2    1    2    0    0  0.53323518907E+02  0.77877868896E+02 -0.77810160135E+02  0.17495566651E+03  0.12508678624E+03 0.  0.
         24    2    1    2    0    0 -0.51955125936E+02  0.39809375962E+02  0.74008366848E+03  0.74728236629E+03  0.80143478089E+02 0.  0.
        -13    1    5    5    0    0 -0.65074965630E+02  0.30741755176E+02  0.70592139008E+03  0.70958073229E+03  0.00000000000E+00 0.  1.
         14    1    5    5    0    0  0.13119839693E+02  0.90676207860E+01  0.34162278399E+02  0.37701633993E+02  0.00000000000E+00 0. -1.
         13    1    3    3    0    0  0.19626802039E+02  0.99949681537E+00 -0.13717207485E+03  0.13857268299E+03  0.00000000000E+00 0. -1.
        -14    1    3    3    0    0 -0.20995195010E+02 -0.11868674167E+03 -0.43292386060E+03  0.44938892948E+03  0.00000000000E+00 0.  1.
          5    1    4    4  501    0  0.14916955525E+02  0.79950894063E+02 -0.10108236680E+03  0.12980669590E+03  0.41800000000E+01 0. -1.
         -5    1    4    4    0  501  0.38406563383E+02 -0.20730251662E+01  0.23272206661E+02  0.45148970610E+02  0.41800000000E+01 0. -1.
</event>
<event>
11    1  0.8453735E-009  0.1885179E+03  0.7561462E-02  0.1062954E+00
         22   -1    0    0    0    0  0.00000000000E+00  0.00000000000E+00  0.18587569119E+04  0.18587569119E+04  0.00000000000E+00 0.  1.
         22   -1    0    0    0    0 -0.00000000000E+00 -0.00000000000E+00 -0.30248889660E+03  0.30248889660E+03  0.00000000000E+00 0. -1.
        -24    2    1    2    0    0 -0.34206912351E+02 -0.13787218916E+03 -0.25636545283E+03  0.30374387262E+03  0.79738581338E+02 0.  0.
         25    2    1    2    0    0  0.13003165201E+02  0.12559389251E+03  0.35067296410E+03  0.39314380196E+03  0.12509041982E+03 0.  0.
         24    2    1    2    0    0  0.21203747150E+02  0.12278296645E+02  0.14619605040E+04  0.14643581339E+04  0.80099148542E+02 0.  0.
        -11    1    5    5    0    0  0.47672294412E+02 -0.10490122126E+02  0.83100634090E+03  0.83243872383E+03  0.00000000000E+00 0.  1.
         12    1    5    5    0    0 -0.26468547261E+02  0.22768418771E+02  0.63095416309E+03  0.63191941006E+03  0.00000000000E+00 0. -1.
         11    1    3    3    0    0 -0.34073196357E+02 -0.14807461246E+03 -0.23200186979E+03  0.27733002209E+03  0.00000000000E+00 0. -1.
        -12    1    3    3    0    0 -0.13371599425E+00  0.10202423307E+02 -0.24363583034E+02  0.26413850525E+02  0.00000000000E+00 0.  1.
          5    1    4    4  501    0  0.53248056061E+02  0.49691155016E+02  0.76124886291E+02  0.10543736090E+03  0.41800000000E+01 0. -1.
         -5    1    4    4    0  501 -0.40244890860E+02  0.75902737496E+02  0.27454807781E+03  0.28770644106E+03  0.41800000000E+01 0. -1.
</event>
<event>
11    1  0.8453735E-009  0.1469413E+03  0.7561462E-02  0.1100046E+00
         22   -1    0    0    0    0  0.00000000000E+00  0.00000000000E+00  0.57652226466E+03  0.57652226466E+03  0.00000000000E+00 0.  1.
         22   -1    0    0    0    0 -0.00000000000E+00 -0.00000000000E+00 -0.35550638035E+03  0.35550638035E+03  0.00000000000E+00 0. -1.
        -24    2    1    2    0    0  0.42655603393E+02 -0.62328179959E+01 -0.31332061490E+03  0.32766305859E+03  0.85644169226E+02 0.  0.
         25    2    1    2    0    0  0.45088223275E+02  0.10223335985E+02  0.14418234287E+03  0.19640186593E+03  0.12509068899E+03 0.  0.
         24    2    1    2    0    0 -0.87743826667E+02 -0.39905179894E+01  0.39015415635E+03  0.40796372048E+03  0.80617790558E+02 0.  0.
        -13    1    5    5    0    0 -0.99476724004E+02 -0.17568500158E+02  0.32101060737E+03  0.33652946507E+03  0.00000000000E+00 0.  1.
         14    1    5    5    0    0  0.11732897337E+02  0.13577982168E+02  0.69143548988E+02  0.71434255413E+02  0.00000000000E+00 0. -1.
         13    1    3    3    0    0  0.12675308681E+02 -0.29892991454E+02 -0.26031125100E+03  0.26232842352E+03  0.00000000000E+00 0. -1.
        -14    1    3    3    0    0  0.29980294712E+02  0.23660173458E+02 -0.53009363906E+02  0.65334635079E+02  0.00000000000E+00 0.  1.
          5    1    4    4  501    0 -0.37782865336E+02 -0.21556436446E+02  0.37681287115E+02  0.57702484035E+02  0.41800000000E+01 0. -1.
         -5    1    4    4    0  501  0.82871088610E+02  0.31779772431E+02  0.10650105575E+03  0.13869938190E+03  0.41800000000E+01 0. -1.
</event>
<event>
11    1  0.8453735E-009  0.1440647E+03  0.7561462E-02  0.1103103E+00
         22   -1    0    0    0    0  0.00000000000E+00  0.00000000000E+00  0.22891689100E+04  0.22891689100E+04  0.00000000000E+00 0.  1.
         22   -1    0    0    0    0 -0.00000000000E+00 -0.00000000000E+00 -0.12454653328E+04  0.12454653328E+04  0.00000000000E+00 0. -1.
         24    2    1    2    0    0  0.26466425775E+02 -0.62777972630E+02 -0.10030268439E+04  0.10087912963E+04  0.83399546990E+02 0.  0.
         25    2    1    2    0    0 -0.43346558675E+02  0.94015988994E+02 -0.21109772458E+03  0.26632091389E+03  0.12508656809E+03 0.  0.
        -24    2    1    2    0    0  0.16880132901E+02 -0.31238016364E+02  0.22578281456E+04  0.22595220326E+04  0.79944531179E+02 0.  0.
        -13    1    3    3    0    0  0.79109291456E+01 -0.77936348557E+01 -0.13136775248E+02  0.17201697827E+02  0.00000000000E+00 0.  1.
         14    1    3    3    0    0  0.18555496629E+02 -0.54984337775E+02 -0.98989006863E+03  0.99158959849E+03  0.00000000000E+00 0. -1.
         13    1    5    5    0    0 -0.15815284389E+02  0.38437688255E+01  0.11383435335E+03  0.11499199008E+03  0.00000000000E+00 0. -1.
        -14    1    5    5    0    0  0.32695417290E+02 -0.35081785189E+02  0.21439937922E+04  0.21445300425E+04  0.00000000000E+00 0.  1.
          5    1    4    4  501    0  0.32992381031E+01 -0.24648438336E+02 -0.79537502046E+01  0.26441728891E+02  0.41800000000E+01 0. -1.
         -5    1    4    4    0  501 -0.46645796778E+02  0.11866442733E+03 -0.20314397438E+03  0.23987918500E+03  0.41800000000E+01 0. -1.
</event>
<event>
11    1  0.8453735E-009  0.1471201E+03  0.7561462E-02  0.1099858E+00
         22   -1    0    0    0    0  0.00000000000E+00  0.00000000000E+00  0.33575973724E+03  0.33575973724E+03  0.00000000000E+00 0. -1.
         22   -1    0    0    0    0 -0.00000000000E+00 -0.00000000000E+00 -0.11282618112E+04  0.11282618112E+04  0.00000000000E+00 0.  1.
         24    2    1    2    0    0  0.32389377647E+02  0.29408280670E+02 -0.87235254985E+03  0.87709691052E+03  0.79913080692E+02 0.  0.
         25    2    1    2    0    0 -0.14212766871E+02 -0.10379067011E+03 -0.21579996484E+03  0.27053903023E+03  0.12508891283E+03 0.  0.
        -24    2    1    2    0    0 -0.18176610776E+02  0.74382389439E+02  0.29565044072E+03  0.31638560770E+03  0.82628933305E+02 0.  0.
        -11    1    3    3    0    0  0.27450992272E+02  0.18825237770E+02 -0.85776420442E+03  0.85840979545E+03  0.00000000000E+00 0.  1.
         12    1    3    3    0    0  0.49383853748E+01  0.10583042900E+02 -0.14588345431E+02  0.18687115067E+02  0.00000000000E+00 0. -1.
         13    1    5    5    0    0 -0.37238372305E+02  0.19263796319E+02  0.20007786497E+03  0.20442343866E+03  0.00000000000E+00 0. -1.
        -14    1    5    5    0    0  0.19061761529E+02  0.55118593120E+02  0.95572575750E+02  0.11196216904E+03  0.00000000000E+00 0.  1.
          5    1    4    4  501    0 -0.47356263042E+02 -0.28141242403E+02 -0.21336574493E+02  0.59222183212E+02  0.41800000000E+01 0.  1.
         -5    1    4    4    0  501  0.33143496171E+02 -0.75649427707E+02 -0.19446339035E+03  0.21131684702E+03  0.41800000000E+01 0.  1.
</event>
<event>
11    1  0.8453735E-009  0.2343302E+03  0.7561462E-02  0.1032594E+00
         22   -1    0    0    0    0  0.00000000000E+00  0.00000000000E+00  0.12596568766E+04  0.12596568766E+04  0.00000000000E+00 0. -1.
         22   -1    0    0    0    0 -0.00000000000E+00 -0.00000000000E+00 -0.57057207403E+03  0.57057207403E+03  0.00000000000E+00 0.  1.
        -24    2    1    2    0    0 -0.69483771508E+02  0.18644760205E+03 -0.50756475248E+03  0.55112764035E+03  0.80802197895E+02 0.  0.
         25    2    1    2    0    0 -0.44696241150E+02 -0.20880796021E+03  0.40189828384E+03  0.47198269092E+03  0.12508761631E+03 0.  0.
         24    2    1    2    0    0  0.11418001266E+03  0.22360358156E+02  0.79475127122E+03  0.80711861937E+03  0.79207460015E+02 0.  0.
        -11    1    5    5    0    0 -0.62048336770E+01 -0.65944135697E+01  0.16857807677E+03  0.16882107161E+03  0.00000000000E+00 0.  1.
         12    1    5    5    0    0  0.12038484633E+03  0.28954771726E+02  0.62617319444E+03  0.63829754776E+03  0.00000000000E+00 0. -1.
         11    1    3    3    0    0 -0.27511615218E+02  0.79244635742E+02 -0.11710608041E+03  0.14405011397E+03  0.00000000000E+00 0. -1.
        -12    1    3    3    0    0 -0.41972156289E+02  0.10720296631E+03 -0.39045867207E+03  0.40707752638E+03  0.00000000000E+00 0.  1.
          5    1    4    4  501    0  0.21700422351E+01 -0.18743909170E+03  0.35820399400E+03  0.40430891147E+03  0.41800000000E+01 0.  1.
         -5    1    4    4    0  501 -0.46866283385E+02 -0.21368868508E+02  0.43694289837E+02  0.67673779443E+02  0.41800000000E+01 0.  1.
</event>
<event>
11    1  0.8453735E-009  0.1554631E+03  0.7561462E-02  0.1091424E+00
         22   -1    0    0    0    0  0.00000000000E+00  0.00000000000E+00  0.92480752850E+03  0.92480752850E+03  0.00000000000E+00 0.  1.
         22   -1    0    0    0    0 -0.00000000000E+00 -0.00000000000E+00 -0.67786682414E+03  0.67786682414E+03  0.00000000000E+00 0. -1.
        -24    2    1    2    0    0 -0.67191384192E+01  0.68172377463E+02 -0.57672772159E+03  0.58633321761E+03  0.80493213084E+02 0.  0.
         25    2    1    2    0    0  0.33614921328E+02 -0.15315782561E+03  0.17799188594E+02  0.20137638083E+03  0.12509337776E+03 0.  0.
         24    2    1    2    0    0 -0.26895782908E+02  0.84985448148E+02  0.80586923736E+03  0.81496475421E+03  0.82440362377E+02 0.  0.
        -13    1    5    5    0    0  0.84014019651E+01  0.74512822518E+01  0.40442574445E+03  0.40458162086E+03  0.00000000000E+00 0.  1.
         14    1    5    5    0    0 -0.35297184874E+02  0.77534165896E+02  0.40144349290E+03  0.41038313335E+03  0.00000000000E+00 0. -1.
         11    1    3    3    0    0  0.10702693131E+01  0.17425989591E+02 -0.43900787696E+03  0.43935489826E+03  0.00000000000E+00 0. -1.
        -12    1    3    3    0    0 -0.77894077324E+01  0.50746387872E+02 -0.13771984463E+03  0.14697831935E+03  0.00000000000E+00 0.  1.
          5    1    4    4  501    0  0.77563552216E+02 -0.62532135916E+02  0.63321230581E+01  0.99919671922E+02  0.41800000000E+01 0. -1.
         -5    1    4    4    0  501 -0.43948630888E+02 -0.90625689695E+02  0.11467065536E+02  0.10145670890E+03  0.41800000000E+01 0. -1.
</event>
<event>
11    1  0.8453735E-009  0.1920147E+03  0.7561462E-02  0.1060319E+00
         22   -1    0    0    0    0  0.00000000000E+00  0.00000000000E+00  0.20598383441E+03  0.20598383441E+03  0.00000000000E+00 0. -1.
         22   -1    0    0    0    0 -0.00000000000E+00 -0.00000000000E+00 -0.13240363966E+04  0.13240363966E+04  0.00000000000E+00 0.  1.
         24    2    1    2    0    0  0.27607639085E+02  0.14109715827E+03 -0.98840409347E+03  0.10020162958E+04  0.80146211525E+02 0.  0.
         25    2    1    2    0    0 -0.31216348407E+02 -0.15115193769E+03 -0.28762620436E+03  0.34956896296E+03  0.12509299643E+03 0.  0.
        -24    2    1    2    0    0  0.36087093223E+01  0.10054779418E+02  0.15797773566E+03  0.17843497224E+03  0.82267569451E+02 0.  0.
        -13    1    3    3    0    0  0.26405472197E+02  0.12905887390E+03 -0.64072990553E+03  0.65413167920E+03  0.00000000000E+00 0.  1.
         14    1    3    3    0    0  0.12021668879E+01  0.12038284373E+02 -0.34767418794E+03  0.34788461659E+03  0.00000000000E+00 0. -1.
         11    1    5    5    0    0  0.18435210423E+01 -0.67749516759E+01  0.16107826755E+03  0.16123122159E+03  0.00000000000E+00 0. -1.
        -12    1    5    5    0    0  0.17651882800E+01  0.16829731093E+02 -0.31005318915E+01  0.17203750648E+02  0.00000000000E+00 0.  1.
          5    1    4    4  501    0 -0.69926050973E+01 -0.14005654385E+03 -0.13541096677E+03  0.19498290777E+03  0.41800000000E+01 0.  1.
         -5    1    4    4    0  501 -0.24223743310E+02 -0.11095393838E+02 -0.15221523760E+03  0.15458605520E+03  0.41800000000E+01 0.  1.
</event>
<event>
11    1  0.8453735E-009  0.1279048E+03  0.7561462E-02  0.1121870E+00
         22   -1    0    0    0    0  0.00000000000E+00  0.00000000000E+00  0.26110517638E+03  0.26110517638E+03  0.00000000000E+00 0. -1.
         22   -1    0    0    0    0 -0.00000000000E+00 -0.00000000000E+00 -0.29603751266E+03  0.29603751266E+03  0.00000000000E+00 0. -1.
        -24    2    1    2    0    0  0.25004832920E+02  0.58338314584E+01 -0.13035937278E+03  0.15484826874E+03  0.79530780215E+02 0.  0.
         25    2    1    2    0    0 -0.15207289145E+02 -0.30821552759E+02 -0.11646245535E+03  0.17433466428E+03  0.12509133425E+03 0.  0.
         24    2    1    2    0    0 -0.97975437750E+01  0.24987721301E+02  0.21188949185E+03  0.22795975603E+03  0.79675062158E+02 0.  0.
        -11    1    5    5    0    0  0.13633884982E+02 -0.13174068076E+02  0.10542309484E+02  0.21692837035E+02  0.00000000000E+00 0.  1.
         12    1    5    5    0    0 -0.23431428757E+02  0.38161789377E+02  0.20134718237E+03  0.20626691899E+03  0.00000000000E+00 0. -1.
         11    1    3    3    0    0 -0.81208418940E+01  0.56776825068E+01 -0.11961298805E+03  0.12002271061E+03  0.00000000000E+00 0. -1.
        -12    1    3    3    0    0  0.33125674814E+02  0.15614895153E+00 -0.10746384728E+02  0.34825558131E+02  0.00000000000E+00 0.  1.
          5    1    4    4  501    0  0.37337936440E+02 -0.57711588997E+02 -0.76506094441E+02  0.10293397830E+03  0.41800000000E+01 0. -1.
         -5    1    4    4    0  501 -0.52545225584E+02  0.26890036238E+02 -0.39956360911E+02  0.71400685976E+02  0.41800000000E+01 0. -1.
</event>
<event>
11    1  0.8453735E-009  0.5716893E+03  0.7561462E-02  0.9246212E-01
         22   -1    0    0    0    0  0.00000000000E+00  0.00000000000E+00  0.12998330020E+04  0.12998330020E+04  0.00000000000E+00 0. -1.
         22   -1    0    0    0    0 -0.00000000000E+00 -0.00000000000E+00 -0.23642566886E+04  0.23642566886E+04  0.00000000000E+00 0. -1.
        -24    2    1    2    0    0 -0.13128369495E+03  0.15236169718E+03 -0.13971082706E+04  0.14141431949E+04  0.86255207503E+02 0.  0.
         25    2    1    2    0    0 -0.21340006351E+03  0.19047555366E+03 -0.88390864015E+03  0.93742369928E+03  0.12509270241E+03 0.  0.
         24    2    1    2    0    0  0.34468375846E+03 -0.34283725084E+03  0.12165932241E+04  0.13125227963E+04  0.79200656330E+02 0.  0.
        -11    1    5    5    0    0  0.53863747214E+01 -0.93754856833E+01  0.74936624856E+02  0.75712683939E+02  0.00000000000E+00 0.  1.
         12    1    5    5    0    0  0.33929738374E+03 -0.33346176516E+03  0.11416565993E+04  0.12368101124E+04  0.00000000000E+00 0. -1.
         13    1    3    3    0    0 -0.66560834458E+02  0.32539171322E+02 -0.32028883252E+03  0.32874622217E+03  0.00000000000E+00 0. -1.
        -14    1    3    3    0    0 -0.64722860492E+02  0.11982252585E+03 -0.10768194380E+04  0.10853969728E+04  0.00000000000E+00 0.  1.
          5    1    4    4  501    0 -0.48790264901E+02  0.14552336176E+02 -0.32201820770E+03  0.32604517927E+03  0.41800000000E+01 0. -1.
         -5    1    4    4    0  501 -0.16460979861E+03  0.17592321749E+03 -0.56189043245E+03  0.61137852001E+03  0.41800000000E+01 0. -1.
</event>
<event>
11    1  0.8453735E-009  0.4343984E+03  0.7561462E-02  0.9553383E-01
         22   -1    0    0    0    0  0.00000000000E+00  0.00000000000E+00  0.18170516919E+03  0.18170516919E+03  0.00000000000E+00 0. -1.
         22   -1    0    0    0    0 -0.00000000000E+00 -0.00000000000E+00 -0.23177328389E+04  0.23177328389E+04  0.00000000000E+00 0. -1.
        -24    2    1    2    0    0  0.13828883601E+03  0.18411632021E+03 -0.10055220090E+04  0.10345456512E+04  0.78661123627E+02 0.  0.
         25    2    1    2    0    0  0.31589871129E+03 -0.20637807972E+03 -0.81148135153E+03  0.90362183285E+03  0.12508607172E+03 0.  0.
         24    2    1    2    0    0 -0.45418754731E+03  0.22261759509E+02 -0.31902430925E+03  0.56127052407E+03  0.80412543981E+02 0.  0.
        -11    1    5    5    0    0 -0.12619352372E+02  0.15420246370E+02 -0.10229643635E+02  0.22398162008E+02  0.00000000000E+00 0.  1.
         12    1    5    5    0    0 -0.44156819493E+03  0.68415131385E+01 -0.30879466562E+03  0.53887236206E+03  0.00000000000E+00 0. -1.
         13    1    3    3    0    0  0.10261276803E+03  0.17796393345E+03 -0.80608818794E+03  0.83185257619E+03  0.00000000000E+00 0. -1.
        -14    1    3    3    0    0  0.35676067976E+02  0.61523867554E+01 -0.19943382103E+03  0.20269307501E+03  0.00000000000E+00 0.  1.
          5    1    4    4  501    0 -0.16270139809E+01 -0.11551044808E+02 -0.97509420077E+02  0.98293607190E+02  0.41800000000E+01 0. -1.
         -5    1    4    4    0  501  0.31752572528E+03 -0.19482703491E+03 -0.71397193146E+03  0.80532822566E+03  0.41800000000E+01 0. -1.
</event>
<event>
11    1  0.8453735E-009  0.1384654E+03  0.7561462E-02  0.1109284E+00
         22   -1    0    0    0    0  0.00000000000E+00  0.00000000000E+00  0.48080157959E+03  0.48080157959E+03  0.00000000000E+00 0.  1.
         22   -1    0    0    0    0 -0.00000000000E+00 -0.00000000000E+00 -0.36820831864E+03  0.36820831864E+03  0.00000000000E+00 0.  1.
        -24    2    1    2    0    0 -0.21858030377E+02 -0.60019825578E+01 -0.27010513157E+03  0.28320372759E+03  0.82059563339E+02 0.  0.
         25    2    1    2    0    0  0.54678291633E+02  0.54117481168E+02 -0.22691106329E+02  0.14859906379E+03  0.12509347748E+03 0.  0.
         24    2    1    2    0    0 -0.32820261256E+02 -0.48115498610E+02  0.40538949885E+03  0.41720710684E+03  0.79554091439E+02 0.  0.
        -13    1    5    5    0    0 -0.28263999844E+02 -0.52399063148E+02  0.40651624456E+03  0.41085273834E+03  0.00000000000E+00 0.  1.
         14    1    5    5    0    0 -0.45562614113E+01  0.42835645385E+01 -0.11267457101E+01  0.63543685051E+01  0.00000000000E+00 0. -1.
         11    1    3    3    0    0 -0.46552323014E+02  0.35981998009E+01 -0.92323242225E+02  0.10345843066E+03  0.00000000000E+00 0. -1.
        -12    1    3    3    0    0  0.24694292637E+02 -0.96001823587E+01 -0.17778188934E+03  0.17974529693E+03  0.00000000000E+00 0.  1.
          5    1    4    4  501    0  0.67635324877E+02 -0.15953787978E+02 -0.31988265123E+02  0.76614502724E+02  0.41800000000E+01 0. -1.
         -5    1    4    4    0  501 -0.12957033244E+02  0.70071269146E+02  0.92971587939E+01  0.71984561066E+02  0.41800000000E+01 0. -1.
</event>
<event>
11    1  0.8453735E-009  0.3427584E+03  0.7561462E-02  0.9835606E-01
         22   -1    0    0    0    0  0.00000000000E+00  0.00000000000E+00  0.10223382888E+04  0.10223382888E+04  0.00000000000E+00 0.  1.
         22   -1    0    0    0    0 -0.00000000000E+00 -0.00000000000E+00 -0.40150504688E+03  0.40150504688E+03  0.00000000000E+00 0. -1.
         24    2    1    2    0    0  0.15330610195E+03  0.27776184580E+03 -0.27091543630E+03  0.42463383074E+03  0.79147411291E+02 0.  0.
         25    2    1    2    0    0 -0.19922715908E+03 -0.27473722499E+03  0.69893595009E+03  0.78697602006E+03  0.12509112717E+03 0.  0.
        -24    2    1    2    0    0  0.45921057134E+02 -0.30246208072E+01  0.19281272813E+03  0.21223348490E+03  0.75818283828E+02 0.  0.
        -13    1    3    3    0    0  0.45849462228E+02  0.97807747560E+02 -0.14254445550E+03  0.17885035774E+03  0.00000000000E+00 0.  1.
         14    1    3    3    0    0  0.10745663972E+03  0.17995409824E+03 -0.12837098080E+03  0.24578347301E+03  0.00000000000E+00 0. -1.
         11    1    5    5    0    0 -0.19120909377E+02  0.11000840754E+02  0.43851963561E+02  0.49087904629E+02  0.00000000000E+00 0. -1.
        -12    1    5    5    0    0  0.65041966511E+02 -0.14025461561E+02  0.14896076457E+03  0.16314558027E+03  0.00000000000E+00 0.  1.
          5    1    4    4  501    0 -0.80635166306E+02 -0.16088353993E+03  0.48367573093E+03  0.51608645454E+03  0.41800000000E+01 0. -1.
         -5    1    4    4    0  501 -0.11859199278E+03 -0.11385368505E+03  0.21526021916E+03  0.27088956551E+03  0.41800000000E+01 0. -1.
</event>
<event>
11    1  0.8453735E-009  0.1453548E+03  0.7561462E-02  0.1101722E+00
         22   -1    0    0    0    0  0.00000000000E+00  0.00000000000E+00  0.37425460360E+03  0.37425460360E+03  0.00000000000E+00 0.  1.
         22   -1    0    0    0    0 -0.00000000000E+00 -0.00000000000E+00 -0.10267934235E+04  0.10267934235E+04  0.00000000000E+00 0.  1.
         24    2    1    2    0    0  0.28679566423E+02  0.18727058919E+02 -0.95777387810E+03  0.96187059639E+03  0.81798669626E+02 0.  0.
         25    2    1    2    0    0  0.47268600428E+02  0.70459116630E+01  0.27829333070E+02  0.13677162751E+03  0.12509212947E+03 0.  0.
        -24    2    1    2    0    0 -0.75948166851E+02 -0.25772970582E+02  0.27740572514E+03  0.30240580320E+03  0.89794005424E+02 0.  0.
        -13    1    3    3    0    0 -0.13224791456E+02  0.46003127239E+01 -0.71279216285E+03  0.71292967775E+03  0.00000000000E+00 0.  1.
         14    1    3    3    0    0  0.41904357879E+02  0.14126746195E+02 -0.24498171525E+03  0.24894091864E+03  0.00000000000E+00 0. -1.
         13    1    5    5    0    0 -0.66341515089E+02  0.21893730826E+02  0.18918899696E+03  0.20167550334E+03  0.00000000000E+00 0. -1.
        -14    1    5    5    0    0 -0.96066517620E+01 -0.47666701408E+02  0.88216728173E+02  0.10073029986E+03  0.00000000000E+00 0.  1.
          5    1    4    4  501    0  0.41620893938E+02 -0.41006547230E+02  0.55655343620E+02  0.80801147277E+02  0.41800000000E+01 0.  1.
         -5    1    4    4    0  501  0.56477064905E+01  0.48052458892E+02 -0.27826010550E+02  0.55970480231E+02  0.41800000000E+01 0.  1.
</event>
<event>
11    1  0.8453735E-009  0.3032460E+03  0.7561462E-02  0.9988267E-01
         22   -1    0    0    0    0  0.00000000000E+00  0.00000000000E+00  0.11819648653E+03  0.11819648653E+03  0.00000000000E+00 0. -1.
         22   -1    0    0    0    0 -0.00000000000E+00 -0.00000000000E+00 -0.19110730668E+04  0.19110730668E+04  0.00000000000E+00 0.  1.
         24    2    1    2    0    0 -0.19211549634E+03  0.19791752413E+03 -0.14299650929E+04  0.14584910812E+04  0.79475509932E+02 0.  0.
         25    2    1    2    0    0  0.25664701273E+03 -0.13618006531E+03 -0.22688302916E+03  0.38927572560E+03  0.12508789826E+03 0.  0.
        -24    2    1    2    0    0 -0.64531516384E+02 -0.61737458822E+02 -0.13602845816E+03  0.18150274651E+03  0.80396984589E+02 0.  0.
        -11    1    3    3    0    0 -0.16524071779E+03  0.13375705350E+03 -0.11814196088E+04  0.12003948251E+04  0.00000000000E+00 0.  1.
         12    1    3    3    0    0 -0.26874778551E+02  0.64160470630E+02 -0.24854548412E+03  0.25809625605E+03  0.00000000000E+00 0. -1.
         13    1    5    5    0    0 -0.44520318730E+02 -0.66675124558E+02 -0.13921149993E+03  0.16064704395E+03  0.00000000000E+00 0. -1.
        -14    1    5    5    0    0 -0.20011197654E+02  0.49376657352E+01  0.31830417710E+01  0.20855702562E+02  0.00000000000E+00 0.  1.
          5    1    4    4  501    0  0.13223464237E+03 -0.98619804768E+02 -0.55386900245E+02  0.17406047126E+03  0.41800000000E+01 0. -1.
         -5    1    4    4    0  501  0.12441237036E+03 -0.37560260544E+02 -0.17149612892E+03  0.21521525435E+03  0.41800000000E+01 0. -1.
</event>
<event>
11    1  0.8453735E-009  0.1734920E+03  0.7561462E-02  0.1075032E+00
         22   -1    0    0    0    0  0.00000000000E+00  0.00000000000E+00  0.18177698740E+03  0.18177698740E+03  0.00000000000E+00 0. -1.
         22   -1    0    0    0    0 -0.00000000000E+00 -0.00000000000E+00 -0.29815388111E+03  0.29815388111E+03  0.00000000000E+00 0.  1.
        -24    2    1    2    0    0  0.37601887268E+02  0.30975470444E+02 -0.11441605451E+03  0.14730038302E+03  0.78949272403E+02 0.  0.
         25    2    1    2    0    0 -0.26240817493E+02 -0.14090189614E+03 -0.30780178941E+02  0.19270868515E+03  0.12508914052E+03 0.  0.
         24    2    1    2    0    0 -0.11361069775E+02  0.10992642570E+03  0.28819339742E+02  0.13992180034E+03  0.80837261786E+02 0.  0.
        -13    1    5    5    0    0 -0.39455773429E+02  0.28346730079E+02 -0.11124972643E+01  0.48595604876E+02  0.00000000000E+00 0.  1.
         14    1    5    5    0    0  0.28094703654E+02  0.81579695620E+02  0.29931837007E+02  0.91326195462E+02  0.00000000000E+00 0. -1.
         13    1    3    3    0    0  0.55130086644E+02 -0.22574858034E+01 -0.69638571320E+02  0.88847922378E+02  0.00000000000E+00 0. -1.
        -14    1    3    3    0    0 -0.17528199375E+02  0.33232956248E+02 -0.44777483189E+02  0.58452460641E+02  0.00000000000E+00 0.  1.
          5    1    4    4  501    0 -0.24447697881E+02 -0.16437653601E+03 -0.28823720349E+02  0.16871755918E+03  0.41800000000E+01 0.  1.
         -5    1    4    4    0  501 -0.17931196125E+01  0.23474639868E+02 -0.19564585918E+01  0.23991125965E+02  0.41800000000E+01 0.  1.
</event>
<event>
11    1  0.8453735E-009  0.1543989E+03  0.7561462E-02  0.1092467E+00
         22   -1    0    0    0    0  0.00000000000E+00  0.00000000000E+00  0.20424423203E+03  0.20424423203E+03  0.00000000000E+00 0. -1.
         22   -1    0    0    0    0 -0.00000000000E+00 -0.00000000000E+00 -0.17785408137E+04  0.17785408137E+04  0.00000000000E+00 0. -1.
         24    2    1    2    0    0  0.87273212834E+01  0.66946382043E+02 -0.16281291610E+04  0.16315528878E+04  0.81254395339E+02 0.  0.
         25    2    1    2    0    0 -0.32383538579E+02 -0.14233376334E+03 -0.47938419877E+02  0.19812178524E+03  0.12508619400E+03 0.  0.
        -24    2    1    2    0    0  0.23656217295E+02  0.75387381295E+02  0.10177099922E+03  0.15311037262E+03  0.82719864878E+02 0.  0.
        -13    1    3    3    0    0  0.17762479290E+02 -0.49486660759E+01 -0.81308648014E+03  0.81329553002E+03  0.00000000000E+00 0.  1.
         14    1    3    3    0    0 -0.90351580068E+01  0.71895048118E+02 -0.81504268085E+03  0.81825735782E+03  0.00000000000E+00 0. -1.
         13    1    5    5    0    0  0.17404930662E+02  0.65454067857E+02  0.11620802398E+03  0.13450454062E+03  0.00000000000E+00 0. -1.
        -14    1    5    5    0    0  0.62512866333E+01  0.99333134379E+01 -0.14437024758E+02  0.18605831997E+02  0.00000000000E+00 0.  1.
          5    1    4    4  501    0 -0.15726671356E+01  0.18032044892E+02  0.14166304933E+02  0.23362031598E+02  0.41800000000E+01 0. -1.
         -5    1    4    4    0  501 -0.30810871443E+02 -0.16036580823E+03 -0.62104724810E+02  0.17475975364E+03  0.41800000000E+01 0. -1.
</event>
<event>
11    1  0.8453735E-009  0.1427143E+03  0.7561462E-02  0.1104565E+00
         22   -1    0    0    0    0  0.00000000000E+00  0.00000000000E+00  0.11172970198E+04  0.11172970198E+04  0.00000000000E+00 0. -1.
         22   -1    0    0    0    0 -0.00000000000E+00 -0.00000000000E+00 -0.71169159199E+03  0.71169159199E+03  0.00000000000E+00 0. -1.
        -24    2    1    2    0    0 -0.39970446309E+02  0.47485043697E+02 -0.65567748272E+03  0.66332983789E+03  0.79000294512E+02 0.  0.
         25    2    1    2    0    0 -0.30620590267E+02 -0.40764614451E+02  0.42707930051E+02  0.14169212101E+03  0.12511321085E+03 0.  0.
         24    2    1    2    0    0  0.70591036576E+02 -0.67204292466E+01  0.10185749805E+04  0.10239666529E+04  0.77359270511E+02 0.  0.
        -11    1    5    5    0    0  0.36033051525E+02  0.27454403991E+02  0.72341054520E+03  0.72482752569E+03  0.00000000000E+00 0.  1.
         12    1    5    5    0    0  0.34557985051E+02 -0.34174833238E+02  0.29516443534E+03  0.29913912724E+03  0.00000000000E+00 0. -1.
         13    1    3    3    0    0 -0.22180430179E+02  0.48905973010E+02 -0.62866418021E+03  0.63095357766E+03  0.00000000000E+00 0. -1.
        -14    1    3    3    0    0 -0.17790016130E+02 -0.14209293128E+01 -0.27013302510E+02  0.32376260230E+02  0.00000000000E+00 0.  1.
          5    1    4    4  501    0  0.37619075976E+02  0.81544838886E+01 -0.12999652048E+02  0.40843039042E+02  0.41800000000E+01 0.  1.
         -5    1    4    4    0  501 -0.68239666243E+02 -0.48919098339E+02  0.55707582100E+02  0.10084908197E+03  0.41800000000E+01 0.  1.
</event>
<event>
11    1  0.8453735E-009  0.1352664E+03  0.7561462E-02  0.1112962E+00
         22   -1    0    0    0    0  0.00000000000E+00  0.00000000000E+00  0.80671513712E+03  0.80671513712E+03  0.00000000000E+00 0. -1.
         22   -1    0    0    0    0 -0.00000000000E+00 -0.00000000000E+00 -0.11343100918E+03  0.11343100918E+03  0.00000000000E+00 0.  1.
        -24    2    1    2    0    0  0.15380192705E+02 -0.52183830696E+02 -0.44289024773E+02  0.10846267799E+03  0.82722018149E+02 0.  0.
         25    2    1    2    0    0 -0.41518837173E+02  0.26839727415E+02  0.98809895731E+02  0.16689176421E+03  0.12508109634E+03 0.  0.
         24    2    1    2    0    0  0.26138644468E+02  0.25344103281E+02  0.63876325698E+03  0.64479170411E+03  0.80076781326E+02 0.  0.
        -11    1    5    5    0    0  0.21390649407E+02  0.14224743575E+02  0.52937168476E+02  0.58840861806E+02  0.00000000000E+00 0.  1.
         12    1    5    5    0    0  0.47479950601E+01  0.11119359706E+02  0.58582608851E+03  0.58595084230E+03  0.00000000000E+00 0. -1.
         13    1    3    3    0    0  0.13143145297E+02 -0.14878801621E+02  0.23677555266E+02  0.30898990750E+02  0.00000000000E+00 0. -1.
        -14    1    3    3    0    0  0.22370474082E+01 -0.37305029074E+02 -0.67966580039E+02  0.77563687235E+02  0.00000000000E+00 0.  1.
          5    1    4    4  501    0  0.35630728234E+02  0.80500264259E+01 -0.39294970165E+01  0.36976547524E+02  0.41800000000E+01 0.  1.
         -5    1    4    4    0  501 -0.77149565407E+02  0.18789700989E+02  0.10273939275E+03  0.12991521669E+03  0.41800000000E+01 0.  1.
</event>
<event>
11    1  0.8453735E-009  0.1464784E+03  0.7561462E-02  0.1100532E+00
         22   -1    0    0    0    0  0.00000000000E+00  0.00000000000E+00  0.26135748335E+03  0.26135748335E+03  0.00000000000E+00 0. -1.
         22   -1    0    0    0    0 -0.00000000000E+00 -0.00000000000E+00 -0.99729327342E+03  0.99729327342E+03  0.00000000000E+00 0. -1.
         24    2    1    2    0    0  0.75592968711E+01  0.45094850107E+02 -0.75945831992E+03  0.76528253170E+03  0.82399788540E+02 0.  0.
         25    2    1    2    0    0 -0.27447801388E+02 -0.11587765004E+03 -0.18727763269E+03  0.25475693290E+03  0.12508865488E+03 0.  0.
        -24    2    1    2    0    0  0.19888504517E+02  0.70782799929E+02  0.21080016253E+03  0.23861129216E+03  0.84219254604E+02 0.  0.
        -13    1    3    3    0    0 -0.21002257519E+02  0.58585180342E+02 -0.53651846335E+03  0.54011607983E+03  0.00000000000E+00 0.  1.
         14    1    3    3    0    0  0.28561554390E+02 -0.13490330235E+02 -0.22293985658E+03  0.22516645188E+03  0.00000000000E+00 0. -1.
         13    1    5    5    0    0 -0.30428285680E+02  0.46855075122E+02  0.11289610458E+03  0.12596352275E+03  0.00000000000E+00 0. -1.
        -14    1    5    5    0    0  0.50316790197E+02  0.23927724807E+02  0.97904057949E+02  0.11264776941E+03  0.00000000000E+00 0.  1.
          5    1    4    4  501    0  0.44590333830E+02 -0.19375078787E+02 -0.78457971860E+02  0.92394898655E+02  0.41800000000E+01 0.  1.
         -5    1    4    4    0  501 -0.72038135218E+02 -0.96502571249E+02 -0.10881966083E+03  0.16236203425E+03  0.41800000000E+01 0.  1.
</event>
<event>
11    1  0.8453735E-009  0.2943160E+03  0.7561462E-02  0.1002626E+00
         22   -1    0    0    0    0  0.00000000000E+00  0.00000000000E+00  0.27711062226E+03  0.27711062226E+03  0.00000000000E+00 0. -1.
         22   -1    0    0    0    0 -0.00000000000E+00 -0.00000000000E+00 -0.67033060109E+03  0.67033060109E+03  0.00000000000E+00 0. -1.
         24    2    1    2    0    0 -0.25645948894E+03  0.68056070203E+02 -0.28521463144E+03  0.39837397991E+03  0.83374718708E+02 0.  0.
         25    2    1    2    0    0  0.26879915172E+03 -0.24166209104E+02 -0.24399599237E+03  0.38473186388E+03  0.12509026005E+03 0.  0.
        -24    2    1    2    0    0 -0.12339662788E+02 -0.43889861099E+02  0.13599064499E+03  0.16433537956E+03  0.80212681451E+02 0.  0.
        -13    1    3    3    0    0 -0.75493670730E+02  0.56634113521E+02 -0.73480784916E+02  0.11960828937E+03  0.00000000000E+00 0.  1.
         14    1    3    3    0    0 -0.18096581821E+03  0.11421956682E+02 -0.21173384653E+03  0.27876569053E+03  0.00000000000E+00 0. -1.
         11    1    5    5    0    0 -0.45562640050E+02 -0.31757354711E+02  0.96341649494E+02  0.11120340451E+03  0.00000000000E+00 0. -1.
        -12    1    5    5    0    0  0.33222977261E+02 -0.12132506388E+02  0.39648995494E+02  0.53131975053E+02  0.00000000000E+00 0.  1.
          5    1    4    4  501    0  0.24094940692E+02 -0.24539190225E+01 -0.93335671448E+02  0.96517396619E+02  0.41800000000E+01 0.  1.
         -5    1    4    4    0  501  0.24470421103E+03 -0.21712290081E+02 -0.15066032093E+03  0.28821446726E+03  0.41800000000E+01 0.  1.
</event>
<event>
11    1  0.8453735E-009  0.1310978E+03  0.7561462E-02  0.1117927E+00
         22   -1    0    0    0    0  0.00000000000E+00  0.00000000000E+00  0.18504429150E+04  0.18504429150E+04  0.00000000000E+00 0.  1.
         22   -1    0    0    0    0 -0.00000000000E+00 -0.00000000000E+00 -0.53709078798E+03  0.53709078798E+03  0.00000000000E+00 0.  1.
        -24    2    1    2    0    0  0.34062269915E+02  0.22292678121E+01 -0.38172833005E+03  0.39196616717E+03  0.82193371851E+02 0.  0.
         25    2    1    2    0    0 -0.74287776847E+02 -0.84603502087E+01 -0.11355886389E+03  0.18475136705E+03  0.12508877146E+03 0.  0.
         24    2    1    2    0    0  0.40225506932E+02  0.62310823966E+01  0.18086393210E+04  0.18108161688E+04  0.78880200076E+02 0.  0.
        -11    1    5    5    0    0  0.53058349827E+02  0.23485749830E+02  0.16042061532E+04  0.16052551669E+04  0.00000000000E+00 0.  1.
         12    1    5    5    0    0 -0.12832842895E+02 -0.17254667434E+02  0.20443316774E+03  0.20556100184E+03  0.00000000000E+00 0. -1.
         13    1    3    3    0    0  0.97983553359E+01 -0.30009465697E+02 -0.60759648704E+02  0.68471240016E+02  0.00000000000E+00 0. -1.
        -14    1    3    3    0    0  0.24263914579E+02  0.32238733510E+02 -0.32096868134E+03  0.32349492715E+03  0.00000000000E+00 0.  1.
          5    1    4    4  501    0 -0.74952638618E+02  0.37831660809E+02 -0.10956058760E+03  0.13809463186E+03  0.41800000000E+01 0.  1.
         -5    1    4    4    0  501  0.66486177096E+00 -0.46292011017E+02 -0.39982762943E+01  0.46656735189E+02  0.41800000000E+01 0.  1.
</event>
<event>
11    1  0.8453735E-009  0.1536722E+03  0.7561462E-02  0.1093185E+00
         22   -1    0    0    0    0  0.00000000000E+00  0.00000000000E+00  0.73737442904E+03  0.73737442904E+03  0.00000000000E+00 0. -1.
         22   -1    0    0    0    0 -0.00000000000E+00 -0.00000000000E+00 -0.42114635093E+03  0.42114635093E+03  0.00000000000E+00 0.  1.
         24    2    1    2    0    0 -0.85125994503E+02  0.27305165667E+02 -0.39525242074E+03  0.41331266116E+03  0.81307273693E+02 0.  0.
         25    2    1    2    0    0  0.82659812910E+02 -0.11755763723E+02  0.43072644151E+03  0.45622853328E+03  0.12509342313E+03 0.  0.
        -24    2    1    2    0    0  0.24661815933E+01 -0.15549401944E+02  0.28075405734E+03  0.28897958554E+03  0.66622024838E+02 0.  0.
        -13    1    3    3    0    0 -0.81631132659E+02 -0.53163408353E+01 -0.33349650205E+03  0.34338290898E+03  0.00000000000E+00 0.  1.
         14    1    3    3    0    0 -0.34948618443E+01  0.32621506502E+02 -0.61755918692E+02  0.69929752176E+02  0.00000000000E+00 0. -1.
         13    1    5    5    0    0  0.23148207168E+02 -0.73055907478E+01  0.24909860285E+03  0.25027849506E+03  0.00000000000E+00 0. -1.
        -14    1    5    5    0    0 -0.20682025574E+02 -0.82438111965E+01  0.31655454496E+02  0.38701090479E+02  0.00000000000E+00 0.  1.
          5    1    4    4  501    0  0.11195981476E+03  0.17850188951E+01  0.37806790452E+03  0.39432347031E+03  0.41800000000E+01 0. -1.
         -5    1    4    4    0  501 -0.29300001852E+02 -0.13540782618E+02  0.52658536992E+02  0.61905062964E+02  0.41800000000E+01 0. -1.
</event>
<event>
11    1  0.8453735E-009  0.1547965E+03  0.7561462E-02  0.1092076E+00
         22   -1    0    0    0    0  0.00000000000E+00  0.00000000000E+00  0.12169459240E+04  0.12169459240E+04  0.00000000000E+00 0. -1.
         22   -1    0    0    0    0 -0.00000000000E+00 -0.00000000000E+00 -0.71064311469E+03  0.71064311469E+03  0.00000000000E+00 0. -1.
        -24    2    1    2    0    0 -0.68053313874E+02 -0.20825063314E+02 -0.68552727545E+03  0.69366177417E+03  0.78447911207E+02 0.  0.
         25    2    1    2    0    0 -0.33263526891E+02  0.46561917705E+02  0.27394338371E+03  0.30653929115E+03  0.12508750994E+03 0.  0.
         24    2    1    2    0    0  0.10131684077E+03 -0.25736854391E+02  0.91788670104E+03  0.92738797334E+03  0.81270962030E+02 0.  0.
        -13    1    5    5    0    0  0.21331981127E+02  0.79609572702E+01  0.47400661759E+02  0.52585672903E+02  0.00000000000E+00 0.  1.
         14    1    5    5    0    0  0.79984859638E+02 -0.33697811661E+02  0.87048603928E+03  0.87480230044E+03  0.00000000000E+00 0. -1.
         11    1    3    3    0    0 -0.69374528608E+02 -0.30625089181E+02 -0.35605097704E+03  0.36403711288E+03  0.00000000000E+00 0. -1.
        -12    1    3    3    0    0  0.13212147336E+01  0.98000258675E+01 -0.32947629841E+03  0.32962466129E+03  0.00000000000E+00 0.  1.
          5    1    4    4  501    0  0.17229980042E+02  0.59416960279E+02  0.23012133359E+03  0.23832865534E+03  0.41800000000E+01 0. -1.
         -5    1    4    4    0  501 -0.50493506933E+02 -0.12855042574E+02  0.43822050116E+02  0.68210635816E+02  0.41800000000E+01 0. -1.
</event>
<event>
11    1  0.8453735E-009  0.1616854E+03  0.7561462E-02  0.1085503E+00
         22   -1    0    0    0    0  0.00000000000E+00  0.00000000000E+00  0.51084192634E+03  0.51084192634E+03  0.00000000000E+00 0.  1.
         22   -1    0    0    0    0 -0.00000000000E+00 -0.00000000000E+00 -0.70749492039E+03  0.70749492039E+03  0.00000000000E+00 0. -1.
         24    2    1    2    0    0 -0.56997171133E+02  0.26003710729E+02 -0.57680709097E+03  0.58500365492E+03  0.74819687170E+02 0.  0.
         25    2    1    2    0    0  0.12688904439E+03 -0.94668511186E+02 -0.30044069893E+02  0.20399325930E+03  0.12509055563E+03 0.  0.
        -24    2    1    2    0    0 -0.69891873260E+02  0.68664800457E+02  0.41019816682E+03  0.42933993251E+03  0.80439497855E+02 0.  0.
        -11    1    3    3    0    0  0.14865634572E+02 -0.92748302586E+01 -0.10652056699E+03  0.10795202990E+03  0.00000000000E+00 0.  1.
         12    1    3    3    0    0 -0.71862805705E+02  0.35278540988E+02 -0.47028652398E+03  0.47705162502E+03  0.00000000000E+00 0. -1.
         11    1    5    5    0    0 -0.25421657500E+02  0.64358879757E+02  0.14819311078E+03  0.16355281763E+03  0.00000000000E+00 0. -1.
        -12    1    5    5    0    0 -0.44470215759E+02  0.43059207003E+01  0.26200505604E+03  0.26578711488E+03  0.00000000000E+00 0.  1.
          5    1    4    4  501    0  0.12739740112E+01 -0.46539595149E+02  0.31126408562E+02  0.56159439423E+02  0.41800000000E+01 0. -1.
         -5    1    4    4    0  501  0.12561507038E+03 -0.48128916037E+02 -0.61170478455E+02  0.14783381988E+03  0.41800000000E+01 0. -1.
</event>
<event>
11    1  0.8453735E-009  0.1354011E+03  0.7561462E-02  0.1112805E+00
         22   -1    0    0    0    0  0.00000000000E+00  0.00000000000E+00  0.72675502118E+03  0.72675502118E+03  0.00000000000E+00 0.  1.
         22   -1    0    0    0    0 -0.00000000000E+00 -0.00000000000E+00 -0.47055215988E+03  0.47055215988E+03  0.00000000000E+00 0.  1.
        -24    2    1    2    0    0  0.43806326534E+02  0.38340885366E+02 -0.33641222450E+03  0.35555094981E+03  0.99268702949E+02 0.  0.
         25    2    1    2    0    0 -0.32567056222E+02 -0.57618357804E+01 -0.87564629738E+02  0.15623229940E+03  0.12508858897E+03 0.  0.
         24    2    1    2    0    0 -0.11239270313E+02 -0.32579049586E+02  0.68017971553E+03  0.68552393185E+03  0.78172246085E+02 0.  0.
        -13    1    5    5    0    0 -0.21730561220E+02  0.69229841293E+01  0.50982519111E+03  0.51033505708E+03  0.00000000000E+00 0.  1.
         14    1    5    5    0    0  0.10491290907E+02 -0.39502033715E+02  0.17035452442E+03  0.17518887477E+03  0.00000000000E+00 0. -1.
         11    1    3    3    0    0  0.16069620024E+02  0.10184889629E+02 -0.23627788379E+01  0.19171525456E+02  0.00000000000E+00 0. -1.
        -12    1    3    3    0    0  0.27736706510E+02  0.28155995738E+02 -0.33404944566E+03  0.33637942436E+03  0.00000000000E+00 0.  1.
          5    1    4    4  501    0  0.46483038314E+02 -0.41087647145E+01 -0.50247942442E+02  0.68701404047E+02  0.41800000000E+01 0. -1.
         -5    1    4    4    0  501 -0.79050094536E+02 -0.16530710660E+01 -0.37316687296E+02  0.87530895350E+02  0.41800000000E+01 0. -1.
</event>
<event>
11    1  0.8800280E-009  0.1520490E+03  0.7561462E-02  0.1094803E+00
         22   -1    0    0    0    0  0.00000000000E+00  0.00000000000E+00  0.12654921685E+03  0.12654921685E+03  0.00000000000E+00 0.  1.
         22   -1    0    0    0    0 -0.00000000000E+00 -0.00000000000E+00 -0.16673671990E+04  0.16673671990E+04  0.00000000000E+00 0. -1.
         24    2    1    2    0    0  0.90614295690E+02 -0.11873927200E+02 -0.11868488989E+04  0.11938302334E+04  0.90930614617E+02 0.  0.
         25    2    1    2    0    0 -0.69942263067E+02 -0.61722494393E+02 -0.43593969289E+03  0.46302531322E+03  0.12508972129E+03 0.  0.
        -24    2    1    2    0    0 -0.20672032622E+02  0.73596421593E+02  0.81970609695E+02  0.13706086915E+03  0.78884312731E+02 0.  0.
        -13    1    3    3    0    0  0.48868559874E+02 -0.28266666498E+02 -0.26771289212E+03  0.27360068199E+03  0.00000000000E+00 0.  1.
         14    1    3    3    0    0  0.41745735816E+02  0.16392739298E+02 -0.91913600680E+03  0.92022955145E+03  0.00000000000E+00 0. -1.
         11    1    5    5    0    0  0.16123408924E+02  0.32390359958E+02 -0.23470593799E+01  0.36257529167E+02  0.00000000000E+00 0. -1.
        -12    1    5    5    0    0 -0.36795441547E+02  0.41206061635E+02  0.84317669075E+02  0.10080333999E+03  0.00000000000E+00 0.  1.
          5    1    4    4  501    0 -0.24411272945E+02 -0.95838343334E+02 -0.27871757056E+03  0.29577331664E+03  0.41800000000E+01 0.  1.
         -5    1    4    4    0  501 -0.45530990122E+02  0.34115848941E+02 -0.15722212233E+03  0.16725199658E+03  0.41800000000E+01 0.  1.
</event>
<event>
11    1  0.8453735E-009  0.1294003E+03  0.7561462E-02  0.1120008E+00
         22   -1    0    0    0    0  0.00000000000E+00  0.00000000000E+00  0.57810385645E+02  0.57810385645E+02  0.00000000000E+00 0.  1.
         22   -1    0    0    0    0 -0.00000000000E+00 -0.00000000000E+00 -0.11698522985E+04  0.11698522985E+04  0.00000000000E+00 0. -1.
        -24    2    1    2    0    0 -0.26201330275E+02 -0.19352271973E+02 -0.90765536408E+03  0.91201222177E+03  0.82867439762E+02 0.  0.
         25    2    1    2    0    0  0.49414819018E+02 -0.43763733445E+01 -0.18201809464E+03  0.22636146032E+03  0.12509175415E+03 0.  0.
         24    2    1    2    0    0 -0.23213488743E+02  0.23728645317E+02 -0.22368454164E+02  0.89289002092E+02  0.79813930392E+02 0.  0.
        -13    1    5    5    0    0 -0.48842030026E+01  0.47502917357E+02  0.58232251240E+01  0.48107094562E+02  0.00000000000E+00 0.  1.
         14    1    5    5    0    0 -0.18329285741E+02 -0.23774272039E+02 -0.28191679288E+02  0.41181907530E+02  0.00000000000E+00 0. -1.
         13    1    3    3    0    0  0.10800396290E+02 -0.12231302587E+02 -0.73978198298E+03  0.73996191501E+03  0.00000000000E+00 0. -1.
        -14    1    3    3    0    0 -0.37001726565E+02 -0.71209693855E+01 -0.16787338110E+03  0.17205030676E+03  0.00000000000E+00 0.  1.
          5    1    4    4  501    0 -0.24876624549E+02 -0.43165874138E+02 -0.57343706491E+02  0.76078329458E+02  0.41800000000E+01 0. -1.
         -5    1    4    4    0  501  0.74291443567E+02  0.38789500794E+02 -0.12467438815E+03  0.15028313086E+03  0.41800000000E+01 0. -1.
</event>
<event>
11    1  0.8453735E-009  0.1448504E+03  0.7561462E-02  0.1102260E+00
         22   -1    0    0    0    0  0.00000000000E+00  0.00000000000E+00  0.19503058203E+04  0.19503058203E+04  0.00000000000E+00 0. -1.
         22   -1    0    0    0    0 -0.00000000000E+00 -0.00000000000E+00 -0.33674296135E+03  0.33674296135E+03  0.00000000000E+00 0.  1.
        -24    2    1    2    0    0  0.67652506606E+02  0.26529687296E+02 -0.31172159440E+03  0.33062197547E+03  0.82824225270E+02 0.  0.
         25    2    1    2    0    0 -0.68829504848E+02 -0.71665093920E+02  0.43439267870E+03  0.46283667899E+03  0.12508959061E+03 0.  0.
         24    2    1    2    0    0  0.11769982428E+01  0.45135406624E+02  0.14908917746E+04  0.14935901272E+04  0.77553814208E+02 0.  0.
        -13    1    5    5    0    0 -0.25855349634E+02  0.31790130788E+02  0.36468361762E+03  0.36697854499E+03  0.00000000000E+00 0.  1.
         14    1    5    5    0    0  0.27032347877E+02  0.13345275835E+02  0.11262081570E+04  0.11266115822E+04  0.00000000000E+00 0. -1.
         11    1    3    3    0    0 -0.12102294543E+02 -0.96610672020E+01 -0.16265194600E+02  0.22457923058E+02  0.00000000000E+00 0. -1.
        -12    1    3    3    0    0  0.79754801149E+02  0.36190754498E+02 -0.29545639980E+03  0.30816405241E+03  0.00000000000E+00 0.  1.
          5    1    4    4  501    0 -0.26270184774E+02 -0.42496746769E+02  0.37566002504E+02  0.62648009052E+02  0.41800000000E+01 0. -1.
         -5    1    4    4    0  501 -0.42559320075E+02 -0.29168347150E+02  0.39682667620E+03  0.40018866994E+03  0.41800000000E+01 0. -1.
</event>
<event>
11    1  0.8453735E-009  0.1588900E+03  0.7561462E-02  0.1088126E+00
         22   -1    0    0    0    0  0.00000000000E+00  0.00000000000E+00  0.91905919316E+03  0.91905919316E+03  0.00000000000E+00 0. -1.
         22   -1    0    0    0    0 -0.00000000000E+00 -0.00000000000E+00 -0.18838088568E+03  0.18838088568E+03  0.00000000000E+00 0.  1.
         24    2    1    2    0    0 -0.64026710335E+02  0.75302782989E+02 -0.12606747850E+03  0.17945821529E+03  0.80884566739E+02 0.  0.
         25    2    1    2    0    0  0.64584163060E+02 -0.66064947421E+02  0.14781359484E+03  0.21454306454E+03  0.12507668178E+03 0.  0.
        -24    2    1    2    0    0 -0.55745272530E+00 -0.92378355683E+01  0.70893219114E+03  0.71343879902E+03  0.79526221793E+02 0.  0.
        -13    1    3    3    0    0 -0.52300288788E+02  0.73758158158E+02 -0.51699942989E+02  0.10415598978E+03  0.00000000000E+00 0.  1.
         14    1    3    3    0    0 -0.11726421546E+02  0.15446248316E+01 -0.74367535514E+02  0.75302225509E+02  0.00000000000E+00 0. -1.
         13    1    5    5    0    0  0.31049148506E+02  0.82081765452E+01  0.52592647129E+03  0.52690613679E+03  0.00000000000E+00 0. -1.
        -14    1    5    5    0    0 -0.31606601232E+02 -0.17446012113E+02  0.18300571985E+03  0.18653266223E+03  0.00000000000E+00 0.  1.
          5    1    4    4  501    0  0.26127148983E+02 -0.16843341424E+02 -0.18791778614E+02  0.36564045287E+02  0.41800000000E+01 0.  1.
         -5    1    4    4    0  501  0.38457014077E+02 -0.49221605997E+02  0.16660537346E+03  0.17797901925E+03  0.41800000000E+01 0.  1.
</event>
<event>
11    1  0.8453735E-009  0.1794993E+03  0.7561462E-02  0.1070049E+00
         22   -1    0    0    0    0  0.00000000000E+00  0.00000000000E+00  0.19927090459E+03  0.19927090459E+03  0.00000000000E+00 0.  1.
         22   -1    0    0    0    0 -0.00000000000E+00 -0.00000000000E+00 -0.10413506865E+04  0.10413506865E+04  0.00000000000E+00 0. -1.
         24    2    1    2    0    0  0.26497629459E+02  0.39175887765E+02 -0.66509208047E+03  0.67150544465E+03  0.79594045849E+02 0.  0.
         25    2    1    2    0    0  0.10457621108E+03 -0.32575617590E+02 -0.31940427445E+03  0.36008478548E+03  0.12507840508E+03 0.  0.
        -24    2    1    2    0    0 -0.13107384054E+03 -0.66002701758E+01  0.14241657296E+03  0.20903136101E+03  0.78662026362E+02 0.  0.
        -11    1    3    3    0    0  0.48386846796E+02  0.26208390178E+02 -0.58224919331E+03  0.58484381656E+03  0.00000000000E+00 0.  1.
         12    1    3    3    0    0 -0.21889217336E+02  0.12967497587E+02 -0.82842887159E+02  0.86661628083E+02  0.00000000000E+00 0. -1.
         11    1    5    5    0    0 -0.36191699646E+02  0.32450298139E+02  0.31437778334E+02  0.57889505777E+02  0.00000000000E+00 0. -1.
        -12    1    5    5    0    0 -0.94882140893E+02 -0.39050568315E+02  0.11097879462E+03  0.15114185523E+03  0.00000000000E+00 0.  1.
          5    1    4    4  501    0  0.10578249322E+02 -0.10288087760E+02  0.89717604417E+01  0.17768201764E+02  0.41800000000E+01 0. -1.
         -5    1    4    4    0  501  0.93997961757E+02 -0.22287529829E+02 -0.32837603489E+03  0.34231658372E+03  0.41800000000E+01 0. -1.
</event>
<event>
11    1  0.8453735E-009  0.1633407E+03  0.7561462E-02  0.1083977E+00
         22   -1    0    0    0    0  0.00000000000E+00  0.00000000000E+00  0.63029345039E+03  0.63029345039E+03  0.00000000000E+00 0.  1.
         22   -1    0    0    0    0 -0.00000000000E+00 -0.00000000000E+00 -0.41423257619E+03  0.41423257619E+03  0.00000000000E+00 0. -1.
        -24    2    1    2    0    0  0.43173204315E+02  0.94342182439E+02 -0.34985743691E+03  0.37350792449E+03  0.79646535016E+02 0.  0.
         25    2    1    2    0    0 -0.31150084697E+02 -0.12014497542E+03  0.11115859807E+03  0.20834909644E+03  0.12509184292E+03 0.  0.
         24    2    1    2    0    0 -0.12023119618E+02  0.25802792980E+02  0.45475971303E+03  0.46266900565E+03  0.80286192204E+02 0.  0.
        -11    1    5    5    0    0  0.24349249895E+02  0.33443382995E+02  0.32721140203E+03  0.32981608126E+03  0.00000000000E+00 0.  1.
         12    1    5    5    0    0 -0.36372369514E+02 -0.76405900147E+01  0.12754831100E+03  0.13285292439E+03  0.00000000000E+00 0. -1.
         13    1    3    3    0    0  0.65642189641E+02  0.60663436619E+02 -0.21923182464E+03  0.23675206977E+03  0.00000000000E+00 0. -1.
        -14    1    3    3    0    0 -0.22468985325E+02  0.33678745820E+02 -0.13062561226E+03  0.13675585472E+03  0.00000000000E+00 0.  1.
          5    1    4    4  501    0  0.38297504692E+02 -0.69440757188E+02  0.89352588305E+02  0.11954110197E+03  0.41800000000E+01 0.  1.
         -5    1    4    4    0  501 -0.69447589389E+02 -0.50704218231E+02  0.21806009769E+02  0.88807994463E+02  0.41800000000E+01 0.  1.
</event>
<event>
11    1  0.8453735E-009  0.1498731E+03  0.7561462E-02  0.1097009E+00
         22   -1    0    0    0    0  0.00000000000E+00  0.00000000000E+00  0.27195891611E+04  0.27195891611E+04  0.00000000000E+00 0.  1.
         22   -1    0    0    0    0 -0.00000000000E+00 -0.00000000000E+00 -0.58919639226E+02  0.58919639226E+02  0.00000000000E+00 0. -1.
        -24    2    1    2    0    0 -0.74684895004E+01 -0.10659824493E+02  0.48390241300E+01  0.82575883361E+02  0.81399939586E+02 0.  0.
         25    2    1    2    0    0 -0.28563494994E+02  0.84438727711E+02  0.29785883239E+03  0.33512991839E+03  0.12508559543E+03 0.  0.
         24    2    1    2    0    0  0.36031984494E+02 -0.73778903218E+02  0.23579716653E+04  0.23608029986E+04  0.81355964736E+02 0.  0.
        -13    1    5    5    0    0  0.69880632783E+01 -0.37429383601E+02  0.19180124521E+04  0.19183903560E+04  0.00000000000E+00 0.  1.
         14    1    5    5    0    0  0.29043921216E+02 -0.36349519617E+02  0.43995921328E+03  0.44241264255E+03  0.00000000000E+00 0. -1.
         13    1    3    3    0    0 -0.33639564234E+01 -0.42753804804E+02 -0.14027394561E+02  0.45121744494E+02  0.00000000000E+00 0. -1.
        -14    1    3    3    0    0 -0.41045330770E+01  0.32093980311E+02  0.18866418691E+02  0.37454138866E+02  0.00000000000E+00 0.  1.
          5    1    4    4  501    0  0.21341999120E+02 -0.73497118720E+01  0.41029908538E+01  0.23319651048E+02  0.41800000000E+01 0. -1.
         -5    1    4    4    0  501 -0.49905494114E+02  0.91788439583E+02  0.29375584154E+03  0.31181026734E+03  0.41800000000E+01 0. -1.
</event>
<event>
11    1  0.8453735E-009  0.1728790E+03  0.7561462E-02  0.1075553E+00
         22   -1    0    0    0    0  0.00000000000E+00  0.00000000000E+00  0.15153984875E+04  0.15153984875E+04  0.00000000000E+00 0. -1.
         22   -1    0    0    0    0 -0.00000000000E+00 -0.00000000000E+00 -0.30798765613E+02  0.30798765613E+02  0.00000000000E+00 0.  1.
        -24    2    1    2    0    0 -0.38977238950E+02  0.39267649450E+02  0.31561119679E+03  0.33229905816E+03  0.88040121903E+02 0.  0.
         25    2    1    2    0    0 -0.58779133083E+02  0.62280458078E+02  0.40651373418E+03  0.43386222548E+03  0.12509665335E+03 0.  0.
         24    2    1    2    0    0  0.97756372033E+02 -0.10154810753E+03  0.76247479097E+03  0.78003596952E+03  0.84970468233E+02 0.  0.
        -11    1    5    5    0    0  0.21376772161E+02 -0.53095240888E+02  0.14360889327E+03  0.15459490683E+03  0.00000000000E+00 0.  1.
         12    1    5    5    0    0  0.76379599872E+02 -0.48452866639E+02  0.61886589770E+03  0.62544106269E+03  0.00000000000E+00 0. -1.
         11    1    3    3    0    0 -0.56268996871E+02 -0.52759287305E+00  0.22357527536E+03  0.23054800393E+03  0.00000000000E+00 0. -1.
        -12    1    3    3    0    0  0.17291757921E+02  0.39795242323E+02  0.92035921426E+02  0.10175105423E+03  0.00000000000E+00 0.  1.
          5    1    4    4  501    0  0.16022690960E+02  0.64628183548E+02  0.27004068497E+03  0.27815997676E+03  0.41800000000E+01 0.  1.
         -5    1    4    4    0  501 -0.74801824043E+02 -0.23477254701E+01  0.13647304921E+03  0.15570224872E+03  0.41800000000E+01 0.  1.
</event>
<event>
11    1  0.8453735E-009  0.1422268E+03  0.7561462E-02  0.1105097E+00
         22   -1    0    0    0    0  0.00000000000E+00  0.00000000000E+00  0.10023660443E+04  0.10023660443E+04  0.00000000000E+00 0. -1.
         22   -1    0    0    0    0 -0.00000000000E+00 -0.00000000000E+00 -0.13889523381E+03  0.13889523381E+03  0.00000000000E+00 0.  1.
        -24    2    1    2    0    0 -0.26590510393E+02 -0.13476192578E+01 -0.95761381048E+02  0.12773580585E+03  0.80232927621E+02 0.  0.
         25    2    1    2    0    0  0.83199079996E+02 -0.29869066650E+02  0.22567336068E+03  0.27274614574E+03  0.12509095188E+03 0.  0.
         24    2    1    2    0    0 -0.56608569603E+02  0.31216685908E+02  0.73355883083E+03  0.74077932648E+03  0.80414181715E+02 0.  0.
        -13    1    5    5    0    0  0.66823588115E+01 -0.13912561788E+02  0.39940504039E+02  0.42818887862E+02  0.00000000000E+00 0.  1.
         14    1    5    5    0    0 -0.63290928415E+02  0.45129247696E+02  0.69361832679E+03  0.69796043862E+03  0.00000000000E+00 0. -1.
         11    1    3    3    0    0 -0.32301389814E+02 -0.16792189099E+02 -0.65159670996E+01  0.36983986074E+02  0.00000000000E+00 0. -1.
        -12    1    3    3    0    0  0.57108794213E+01  0.15444569841E+02 -0.89245413948E+02  0.90751819773E+02  0.00000000000E+00 0.  1.
          5    1    4    4  501    0  0.32444865114E+02 -0.17091662164E+02 -0.40210491439E+01  0.37127286785E+02  0.41800000000E+01 0. -1.
         -5    1    4    4    0  501  0.50754214882E+02 -0.12777404486E+02  0.22969440982E+03  0.23561885896E+03  0.41800000000E+01 0. -1.
</event>
<event>
11    1  0.8453735E-009  0.1490791E+03  0.7561462E-02  0.1097823E+00
         22   -1    0    0    0    0  0.00000000000E+00  0.00000000000E+00  0.14147747990E+03  0.14147747990E+03  0.00000000000E+00 0.  1.
         22   -1    0    0    0    0 -0.00000000000E+00 -0.00000000000E+00 -0.18733077704E+04  0.18733077704E+04  0.00000000000E+00 0.  1.
         24    2    1    2    0    0 -0.72714845720E+02 -0.24323025526E+02 -0.13152217019E+04  0.13200242949E+04  0.82322267118E+02 0.  0.
         25    2    1    2    0    0  0.96203338326E+02  0.38729911385E+02 -0.52908447620E+03  0.55347373024E+03  0.12509076209E+03 0.  0.
        -24    2    1    2    0    0 -0.23488492605E+02 -0.14406885859E+02  0.11247588757E+03  0.14128722518E+03  0.80944345511E+02 0.  0.
        -13    1    3    3    0    0 -0.60044531900E+02  0.11874863872E+02 -0.10767651226E+04  0.10785033553E+04  0.00000000000E+00 0.  1.
         14    1    3    3    0    0 -0.12670313821E+02 -0.36197889398E+02 -0.23845657930E+03  0.24152093959E+03  0.00000000000E+00 0. -1.
         13    1    5    5    0    0 -0.10716687964E+01  0.26883369645E+02  0.10267296569E+02  0.28797246679E+02  0.00000000000E+00 0. -1.
        -14    1    5    5    0    0 -0.22416823809E+02 -0.41290255504E+02  0.10220859100E+03  0.11248997850E+03  0.00000000000E+00 0.  1.
          5    1    4    4  501    0  0.29595844646E+01 -0.94050731460E+01 -0.31337842182E+03  0.31356135317E+03  0.41800000000E+01 0.  1.
         -5    1    4    4    0  501  0.93243753861E+02  0.48134984531E+02 -0.21570605438E+03  0.23991237706E+03  0.41800000000E+01 0.  1.
</event>
<event>
11    1  0.8453735E-009  0.2210399E+03  0.7561462E-02  0.1040568E+00
         22   -1    0    0    0    0  0.00000000000E+00  0.00000000000E+00  0.35675500966E+03  0.35675500966E+03  0.00000000000E+00 0.  1.
         22   -1    0    0    0    0 -0.00000000000E+00 -0.00000000000E+00 -0.15200483884E+04  0.15200483884E+04  0.00000000000E+00 0. -1.
        -24    2    1    2    0    0  0.16087486818E+03 -0.81559200469E+02 -0.13509483512E+04  0.13653827481E+04  0.81706639965E+02 0.  0.
         25    2    1    2    0    0 -0.22851662036E+03  0.16664303510E+02 -0.27221985160E+02  0.26246712643E+03  0.12510160345E+03 0.  0.
         24    2    1    2    0    0  0.67641752185E+02  0.64894896960E+02  0.21487695755E+03  0.24895352353E+03  0.83779446783E+02 0.  0.
        -11    1    5    5    0    0  0.15928773396E+02  0.68699229964E+02  0.94755303465E+02  0.11811806616E+03  0.00000000000E+00 0.  1.
         12    1    5    5    0    0  0.51712978788E+02 -0.38043330044E+01  0.12012165408E+03  0.13083545737E+03  0.00000000000E+00 0. -1.
         13    1    3    3    0    0  0.16181881483E+03 -0.83465585739E+02 -0.11420126454E+04  0.11564362131E+04  0.00000000000E+00 0. -1.
        -14    1    3    3    0    0 -0.94394665631E+00  0.19063852699E+01 -0.20893570581E+03  0.20894653504E+03  0.00000000000E+00 0.  1.
          5    1    4    4  501    0 -0.14071017729E+03 -0.48449215079E+02 -0.34530969191E+02  0.15282846812E+03  0.41800000000E+01 0. -1.
         -5    1    4    4    0  501 -0.87806443075E+02  0.65113518589E+02  0.73089840311E+01  0.10963865831E+03  0.41800000000E+01 0. -1.
</event>
<event>
11    1  0.8453735E-009  0.1389168E+03  0.7561462E-02  0.1108774E+00
         22   -1    0    0    0    0  0.00000000000E+00  0.00000000000E+00  0.17939155632E+03  0.17939155632E+03  0.00000000000E+00 0. -1.
         22   -1    0    0    0    0 -0.00000000000E+00 -0.00000000000E+00 -0.37071902145E+03  0.37071902145E+03  0.00000000000E+00 0.  1.
        -24    2    1    2    0    0 -0.12432087740E+01  0.12120441603E+02 -0.20789942863E+03  0.22335614373E+03  0.80730067785E+02 0.  0.
         25    2    1    2    0    0  0.40705812631E+02  0.34960292412E+02 -0.10261730018E+03  0.17045863600E+03  0.12508657427E+03 0.  0.
         24    2    1    2    0    0 -0.39462603857E+02 -0.47080734015E+02  0.11918926368E+03  0.15629579805E+03  0.80301950738E+02 0.  0.
        -13    1    5    5    0    0 -0.71279937956E+01 -0.50340102074E+02  0.24997357073E+02  0.56655114800E+02  0.00000000000E+00 0.  1.
         14    1    5    5    0    0 -0.32334610061E+02  0.32593680587E+01  0.94191906606E+02  0.99640683247E+02  0.00000000000E+00 0. -1.
         13    1    3    3    0    0  0.13457630751E+02  0.34936755591E+02 -0.46540055124E+02  0.59729904132E+02  0.00000000000E+00 0. -1.
        -14    1    3    3    0    0 -0.14700839525E+02 -0.22816313988E+02 -0.16135937350E+03  0.16362623960E+03  0.00000000000E+00 0.  1.
          5    1    4    4  501    0 -0.36736126915E+02  0.37808182128E+02 -0.18536123392E+02  0.56036255468E+02  0.41800000000E+01 0. -1.
         -5    1    4    4    0  501  0.77441939546E+02 -0.28478897153E+01 -0.84081176788E+02  0.11442238053E+03  0.41800000000E+01 0. -1.
</event>
<event>
11    1  0.8453735E-009  0.1371285E+03  0.7561462E-02  0.1110808E+00
         22   -1    0    0    0    0  0.00000000000E+00  0.00000000000E+00  0.66123722546E+03  0.66123722546E+03  0.00000000000E+00 0. -1.
         22   -1    0    0    0    0 -0.00000000000E+00 -0.00000000000E+00 -0.14977695509E+04  0.14977695509E+04  0.00000000000E+00 0. -1.
        -24    2    1    2    0    0  0.43791599480E+02  0.35041567749E+02 -0.14639943429E+04  0.14670824861E+04  0.76850303246E+02 0.  0.
         25    2    1    2    0    0 -0.65464951218E+02 -0.25848738473E+02  0.15425462658E+03  0.21070439620E+03  0.12509210862E+03 0.  0.
         24    2    1    2    0    0  0.21673351738E+02 -0.91928292760E+01  0.47320739093E+03  0.48121989408E+03  0.84220599232E+02 0.  0.
        -11    1    5    5    0    0 -0.13150253938E+01 -0.35781299945E+02  0.97406651040E+02  0.10377902671E+03  0.00000000000E+00 0.  1.
         12    1    5    5    0    0  0.22988377132E+02  0.26588470669E+02  0.37580073989E+03  0.37744086737E+03  0.00000000000E+00 0. -1.
         13    1    3    3    0    0  0.43818031783E+02 -0.11501253007E+02 -0.91413634236E+03  0.91525818824E+03  0.00000000000E+00 0. -1.
        -14    1    3    3    0    0 -0.26432303796E-01  0.46542820756E+02 -0.54985800058E+03  0.55182429782E+03  0.00000000000E+00 0.  1.
          5    1    4    4  501    0 -0.88367371857E+02  0.20489687832E+01  0.14995180189E+03  0.17411492174E+03  0.41800000000E+01 0. -1.
         -5    1    4    4    0  501  0.22902420639E+02 -0.27897707256E+02  0.43028246926E+01  0.36589474465E+02  0.41800000000E+01 0. -1.
</event>
<event>
11    1  0.8453735E-009  0.1638920E+03  0.7561462E-02  0.1083473E+00
         22   -1    0    0    0    0  0.00000000000E+00  0.00000000000E+00  0.94187815321E+03  0.94187815321E+03  0.00000000000E+00 0. -1.
         22   -1    0    0    0    0 -0.00000000000E+00 -0.00000000000E+00 -0.35477061030E+03  0.35477061030E+03  0.00000000000E+00 0.  1.
         24    2    1    2    0    0  0.26246517931E+02  0.53467348552E+02 -0.28098822404E+03  0.29824177150E+03  0.80287826913E+02 0.  0.
         25    2    1    2    0    0 -0.98656065943E+02  0.26153285090E+02  0.49398438368E+02  0.16883113623E+03  0.12508690250E+03 0.  0.
        -24    2    1    2    0    0  0.72409548011E+02 -0.79620633642E+02  0.81869732858E+03  0.82957585579E+03  0.79675571766E+02 0.  0.
        -11    1    3    3    0    0  0.27525248993E+02  0.73645686019E+02 -0.23978000336E+03  0.25234059604E+03  0.00000000000E+00 0.  1.
         12    1    3    3    0    0 -0.12787310614E+01 -0.20178337466E+02 -0.41208220683E+02  0.45901175452E+02  0.00000000000E+00 0. -1.
         11    1    5    5    0    0  0.47334006125E+02 -0.45985834997E+01  0.44895485049E+03  0.45146662433E+03  0.00000000000E+00 0. -1.
        -12    1    5    5    0    0  0.25075541886E+02 -0.75022050142E+02  0.36974247809E+03  0.37810923146E+03  0.00000000000E+00 0.  1.
          5    1    4    4  501    0 -0.11023086880E+03  0.59521987057E+02  0.44084138626E+02  0.13287059516E+03  0.41800000000E+01 0.  1.
         -5    1    4    4    0  501  0.11574802856E+02 -0.33368701967E+02  0.53142997426E+01  0.35960541068E+02  0.41800000000E+01 0.  1.
</event>
<event>
11    1  0.8453735E-009  0.1377149E+03  0.7561462E-02  0.1110137E+00
         22   -1    0    0    0    0  0.00000000000E+00  0.00000000000E+00  0.57640806143E+03  0.57640806143E+03  0.00000000000E+00 0.  1.
         22   -1    0    0    0    0 -0.00000000000E+00 -0.00000000000E+00 -0.25947943998E+03  0.25947943998E+03  0.00000000000E+00 0.  1.
         24    2    1    2    0    0  0.58538785723E+02 -0.14163076778E+02 -0.20344574240E+03  0.22676417383E+03  0.80027734291E+02 0.  0.
         25    2    1    2    0    0 -0.29821262104E+02  0.20466654647E+02  0.64477351346E+02  0.14530440120E+03  0.12509136079E+03 0.  0.
        -24    2    1    2    0    0 -0.28717523619E+02 -0.63035778690E+01  0.45589701250E+03  0.46381892638E+03  0.80134132618E+02 0.  0.
        -13    1    3    3    0    0  0.50526852149E+02  0.26377050410E+02 -0.13869972101E+03  0.14995440702E+03  0.00000000000E+00 0.  1.
         14    1    3    3    0    0  0.80119335740E+01 -0.40540127188E+02 -0.64746021384E+02  0.76809766807E+02  0.00000000000E+00 0. -1.
         13    1    5    5    0    0 -0.16873171990E+02  0.18897757365E+02  0.42449079688E+02  0.49434335565E+02  0.00000000000E+00 0. -1.
        -14    1    5    5    0    0 -0.11844351629E+02 -0.25201335234E+02  0.41344793281E+03  0.41438459082E+03  0.00000000000E+00 0.  1.
          5    1    4    4  501    0 -0.19321179447E+02  0.17674706231E+02  0.10232589351E+03  0.10570602679E+03  0.41800000000E+01 0.  1.
         -5    1    4    4    0  501 -0.10500082657E+02  0.27919484163E+01 -0.37848542168E+02  0.39598374411E+02  0.41800000000E+01 0.  1.
</event>
<event>
11    1  0.8453735E-009  0.1365897E+03  0.7561462E-02  0.1111427E+00
         22   -1    0    0    0    0  0.00000000000E+00  0.00000000000E+00  0.44557797032E+02  0.44557797032E+02  0.00000000000E+00 0.  1.
         22   -1    0    0    0    0 -0.00000000000E+00 -0.00000000000E+00 -0.36223714550E+04  0.36223714550E+04  0.00000000000E+00 0.  1.
         24    2    1    2    0    0 -0.47139669666E+02  0.25528678034E+02 -0.28486304609E+04  0.28502540472E+04  0.79867195461E+02 0.  0.
         25    2    1    2    0    0  0.73723057065E+02 -0.35886100114E+00 -0.71214133901E+03  0.72679312016E+03  0.12509090641E+03 0.  0.
        -24    2    1    2    0    0 -0.26583387399E+02 -0.25169817033E+02 -0.17041858109E+02  0.89882084725E+02  0.80300485999E+02 0.  0.
        -13    1    3    3    0    0 -0.66881740049E+02  0.28012439929E+02 -0.18415048717E+04  0.18429319185E+04  0.00000000000E+00 0.  1.
         14    1    3    3    0    0  0.19742070384E+02 -0.24837618955E+01 -0.10071255892E+04  0.10073221287E+04  0.00000000000E+00 0. -1.
         13    1    5    5    0    0  0.30366224207E+01 -0.44026381309E+02 -0.28979493043E+02  0.52795400783E+02  0.00000000000E+00 0. -1.
        -14    1    5    5    0    0 -0.29620009820E+02  0.18856564276E+02  0.11937634934E+02  0.37086683942E+02  0.00000000000E+00 0.  1.
          5    1    4    4  501    0  0.99038617272E+02  0.29740735783E+02 -0.56655615731E+03  0.57593099488E+03  0.41800000000E+01 0. -1.
         -5    1    4    4    0  501 -0.25315560207E+02 -0.30099596784E+02 -0.14558518170E+03  0.15086212528E+03  0.41800000000E+01 0. -1.
</event>
<event>
11    1  0.8453735E-009  0.1412017E+03  0.7561462E-02  0.1106224E+00
         22   -1    0    0    0    0  0.00000000000E+00  0.00000000000E+00  0.13894485908E+03  0.13894485908E+03  0.00000000000E+00 0. -1.
         22   -1    0    0    0    0 -0.00000000000E+00 -0.00000000000E+00 -0.39922953652E+03  0.39922953652E+03  0.00000000000E+00 0. -1.
         24    2    1    2    0    0 -0.48095707789E+02 -0.41103216574E+02 -0.27457871800E+03  0.29323031408E+03  0.81165714444E+02 0.  0.
         25    2    1    2    0    0  0.84316639954E+02  0.34205524922E+02  0.24222183359E+02  0.15657778324E+03  0.12510225549E+03 0.  0.
        -24    2    1    2    0    0 -0.36220932165E+02  0.68976916519E+01 -0.99281428066E+01  0.88366298271E+02  0.79690028069E+02 0.  0.
        -13    1    3    3    0    0  0.70004372090E+01 -0.27884470362E+02 -0.27663393505E+02  0.39897533115E+02  0.00000000000E+00 0.  1.
         14    1    3    3    0    0 -0.55096144998E+02 -0.13218746213E+02 -0.24691532449E+03  0.25333278097E+03  0.00000000000E+00 0. -1.
         11    1    5    5    0    0 -0.54834679252E+02 -0.16661890588E+02 -0.10843070183E+02  0.58326947612E+02  0.00000000000E+00 0. -1.
        -12    1    5    5    0    0  0.18613747088E+02  0.23559582240E+02  0.91492737680E+00  0.30039350660E+02  0.00000000000E+00 0.  1.
          5    1    4    4  501    0  0.40600704373E+02  0.10375209552E+02  0.74573652092E+02  0.85643237650E+02  0.41800000000E+01 0. -1.
         -5    1    4    4    0  501  0.43715935581E+02  0.23830315370E+02 -0.50351468733E+02  0.70934545590E+02  0.41800000000E+01 0. -1.
</event>
<event>
11    1  0.8453735E-009  0.1320950E+03  0.7561462E-02  0.1116721E+00
         22   -1    0    0    0    0  0.00000000000E+00  0.00000000000E+00  0.86724194732E+03  0.86724194732E+03  0.00000000000E+00 0.  1.
         22   -1    0    0    0    0 -0.00000000000E+00 -0.00000000000E+00 -0.29408649686E+03  0.29408649686E+03  0.00000000000E+00 0. -1.
        -24    2    1    2    0    0  0.33553324711E+02 -0.76578222382E+00 -0.19143516279E+03  0.20788404895E+03  0.73769534593E+02 0.  0.
         25    2    1    2    0    0 -0.67926881637E+01 -0.32914688133E+02 -0.46262318180E+02  0.13753877665E+03  0.12508875126E+03 0.  0.
         24    2    1    2    0    0 -0.26760636547E+02  0.33680470357E+02  0.81085293143E+03  0.81590561857E+03  0.79805991312E+02 0.  0.
        -11    1    5    5    0    0  0.26869489949E+02  0.10397731008E+02  0.17341592171E+03  0.17579295834E+03  0.00000000000E+00 0.  1.
         12    1    5    5    0    0 -0.53630126496E+02  0.23282739349E+02  0.63743700972E+03  0.64011266023E+03  0.00000000000E+00 0. -1.
         13    1    3    3    0    0  0.50264495700E+02  0.19541623958E+02 -0.11418524733E+03  0.12628010652E+03  0.00000000000E+00 0. -1.
        -14    1    3    3    0    0 -0.16711170989E+02 -0.20307406182E+02 -0.77249915457E+02  0.81603942428E+02  0.00000000000E+00 0.  1.
          5    1    4    4  501    0 -0.68545662116E+01 -0.78929396816E+02 -0.12504112938E+02  0.80316000897E+02  0.41800000000E+01 0. -1.
         -5    1    4    4    0  501  0.61878047971E-01  0.46014708684E+02 -0.33758205242E+02  0.57222775756E+02  0.41800000000E+01 0. -1.
</event>
<event>
11    1  0.8453735E-009  0.3469362E+03  0.7561462E-02  0.9820764E-01
         22   -1    0    0    0    0  0.00000000000E+00  0.00000000000E+00  0.17876733952E+04  0.17876733952E+04  0.00000000000E+00 0.  1.
         22   -1    0    0    0    0 -0.00000000000E+00 -0.00000000000E+00 -0.70924247368E+03  0.70924247368E+03  0.00000000000E+00 0.  1.
        -24    2    1    2    0    0  0.95771214075E+02  0.30650074803E+03 -0.59981503399E+03  0.68507878925E+03  0.80249850363E+02 0.  0.
         25    2    1    2    0    0 -0.64103990059E+02 -0.35282961997E+03  0.49278481622E+03  0.62215937397E+03  0.12508936504E+03 0.  0.
         24    2    1    2    0    0 -0.31667224015E+02  0.46328871939E+02  0.11854611393E+04  0.11896777056E+04  0.82859840241E+02 0.  0.
        -11    1    5    5    0    0  0.15628176872E+02  0.47045254768E+02  0.75495563351E+03  0.75658145924E+03  0.00000000000E+00 0.  1.
         12    1    5    5    0    0 -0.47295400887E+02 -0.71638282807E+00  0.43050550576E+03  0.43309624639E+03  0.00000000000E+00 0. -1.
         13    1    3    3    0    0  0.22060921001E+02  0.10311049938E+03 -0.12661455943E+03  0.16477167833E+03  0.00000000000E+00 0. -1.
        -14    1    3    3    0    0  0.73710293073E+02  0.20339024865E+03 -0.47320047456E+03  0.52030711092E+03  0.00000000000E+00 0.  1.
          5    1    4    4  501    0  0.25956144512E+02 -0.32317248775E+02  0.27126573789E+02  0.49713674294E+02  0.41800000000E+01 0.  1.
         -5    1    4    4    0  501 -0.90060134571E+02 -0.32051237120E+03  0.46565824243E+03  0.57244569967E+03  0.41800000000E+01 0.  1.
</event>
<event>
11    1  0.8453735E-009  0.1456007E+03  0.7561462E-02  0.1101461E+00
         22   -1    0    0    0    0  0.00000000000E+00  0.00000000000E+00  0.85770110502E+03  0.85770110502E+03  0.00000000000E+00 0.  1.
         22   -1    0    0    0    0 -0.00000000000E+00 -0.00000000000E+00 -0.12490451677E+03  0.12490451677E+03  0.00000000000E+00 0. -1.
        -24    2    1    2    0    0 -0.30545540280E+02  0.28052902859E+02 -0.79254380153E+02  0.12054988815E+03  0.80814747228E+02 0.  0.
         25    2    1    2    0    0  0.62968755523E+02  0.41480896065E+02  0.25266672043E+03  0.29184699397E+03  0.12509383424E+03 0.  0.
         24    2    1    2    0    0 -0.32423215243E+02 -0.69533798924E+02  0.55938424797E+03  0.57020873967E+03  0.79630746839E+02 0.  0.
        -13    1    5    5    0    0 -0.45094499834E+02 -0.65363781188E+01  0.26544890986E+03  0.26933132365E+03  0.00000000000E+00 0.  1.
         14    1    5    5    0    0  0.12671284591E+02 -0.62997420805E+02  0.29393533811E+03  0.30087741602E+03  0.00000000000E+00 0. -1.
         11    1    3    3    0    0 -0.50223597508E+02 -0.66292975451E+01 -0.39455281327E+02  0.64211187166E+02  0.00000000000E+00 0. -1.
        -12    1    3    3    0    0  0.19678057229E+02  0.34682200404E+02 -0.39799098825E+02  0.56338700983E+02  0.00000000000E+00 0.  1.
          5    1    4    4  501    0  0.10058219415E+03  0.32273495673E+02  0.20144029761E+03  0.22749510369E+03  0.41800000000E+01 0.  1.
         -5    1    4    4    0  501 -0.37613438623E+02  0.92074003917E+01  0.51226422822E+02  0.64351890277E+02  0.41800000000E+01 0.  1.
</event>
<event>
11    1  0.8453735E-009  0.1775551E+03  0.7561462E-02  0.1071638E+00
         22   -1    0    0    0    0  0.00000000000E+00  0.00000000000E+00  0.44466486503E+03  0.44466486503E+03  0.00000000000E+00 0. -1.
         22   -1    0    0    0    0 -0.00000000000E+00 -0.00000000000E+00 -0.29965238741E+03  0.29965238741E+03  0.00000000000E+00 0. -1.
         24    2    1    2    0    0 -0.14377846738E+02 -0.25846262963E+02 -0.18596920968E+03  0.20493197861E+03  0.80856769184E+02 0.  0.
         25    2    1    2    0    0  0.88662266005E+02  0.12106874371E+03  0.26040782530E+02  0.19708819282E+03  0.12508795017E+03 0.  0.
        -24    2    1    2    0    0 -0.74284419267E+02 -0.95222480744E+02  0.30494090476E+03  0.34229708101E+03  0.97943047149E+02 0.  0.
        -13    1    3    3    0    0  0.20133016977E+02  0.19363152166E+02 -0.45570787779E+02  0.53450600869E+02  0.00000000000E+00 0.  1.
         14    1    3    3    0    0 -0.34510863715E+02 -0.45209415130E+02 -0.14039842190E+03  0.15148137774E+03  0.00000000000E+00 0. -1.
         13    1    5    5    0    0 -0.32419198655E+02 -0.79438573088E+02  0.27595744634E+03  0.28898789512E+03  0.00000000000E+00 0. -1.
        -14    1    5    5    0    0 -0.41865220612E+02 -0.15783907655E+02  0.28983458419E+02  0.53309185885E+02  0.00000000000E+00 0.  1.
          5    1    4    4  501    0 -0.17689221793E+02  0.71164136273E+02  0.30313004135E+02  0.79458124058E+02  0.41800000000E+01 0.  1.
         -5    1    4    4    0  501  0.10635148780E+03  0.49904607434E+02 -0.42722216041E+01  0.11763006876E+03  0.41800000000E+01 0.  1.
</event>
<event>
11    1  0.8453735E-009  0.3052561E+03  0.7561462E-02  0.9979910E-01
         22   -1    0    0    0    0  0.00000000000E+00  0.00000000000E+00  0.48320280453E+03  0.48320280453E+03  0.00000000000E+00 0.  1.
         22   -1    0    0    0    0 -0.00000000000E+00 -0.00000000000E+00 -0.32198344332E+03  0.32198344332E+03  0.00000000000E+00 0.  1.
         24    2    1    2    0    0  0.28857558569E+03 -0.34147035082E+01 -0.12591041445E+03  0.32319682087E+03  0.72905580703E+02 0.  0.
         25    2    1    2    0    0 -0.24843970044E+03  0.50919407706E+02  0.20295465524E+03  0.34806923063E+03  0.12508607592E+03 0.  0.
        -24    2    1    2    0    0 -0.40135885247E+02 -0.47504704198E+02  0.84175120426E+02  0.13392019635E+03  0.83555860872E+02 0.  0.
        -11    1    3    3    0    0  0.21603965299E+03  0.29273712378E+02 -0.88772075147E+02  0.23539448427E+03  0.00000000000E+00 0.  1.
         12    1    3    3    0    0  0.72535932707E+02 -0.32688415887E+02 -0.37138339306E+02  0.87802336605E+02  0.00000000000E+00 0. -1.
         11    1    5    5    0    0  0.13976510607E+02 -0.40613710906E+02  0.61111219139E+02  0.74695364427E+02  0.00000000000E+00 0. -1.
        -12    1    5    5    0    0 -0.54112395854E+02 -0.68909932921E+01  0.23063901287E+02  0.59224831922E+02  0.00000000000E+00 0.  1.
          5    1    4    4  501    0 -0.11467610210E+03  0.53412458352E+02  0.16686065611E+03  0.20943602856E+03  0.41800000000E+01 0. -1.
         -5    1    4    4    0  501 -0.13376359834E+03 -0.24930506456E+01  0.36093999130E+02  0.13863320207E+03  0.41800000000E+01 0. -1.
</event>
<event>
11    1  0.8453735E-009  0.1981786E+03  0.7561462E-02  0.1055819E+00
         22   -1    0    0    0    0  0.00000000000E+00  0.00000000000E+00  0.28289368465E+04  0.28289368465E+04  0.00000000000E+00 0. -1.
         22   -1    0    0    0    0 -0.00000000000E+00 -0.00000000000E+00 -0.14131941488E+03  0.14131941488E+03  0.00000000000E+00 0. -1.
         24    2    1    2    0    0 -0.51578392280E+01 -0.23409490497E+02 -0.11434315196E+03  0.14254339724E+03  0.81667962795E+02 0.  0.
         25    2    1    2    0    0 -0.14779485787E+03 -0.13589797994E+02  0.11469407822E+04  0.11632493322E+04  0.12509135984E+03 0.  0.
        -24    2    1    2    0    0  0.15295269709E+03  0.36999288490E+02  0.16550198014E+04  0.16644635320E+04  0.81146973873E+02 0.  0.
        -11    1    3    3    0    0  0.84574514996E+01 -0.36972953094E+02 -0.14083276432E+02  0.40458205860E+02  0.00000000000E+00 0.  1.
         12    1    3    3    0    0 -0.13615290728E+02  0.13563462597E+02 -0.10025987553E+03  0.10208519138E+03  0.00000000000E+00 0. -1.
         13    1    5    5    0    0  0.10762002173E+03  0.50041850907E+02  0.14070586225E+04  0.14120553187E+04  0.00000000000E+00 0. -1.
        -14    1    5    5    0    0  0.45332675363E+02 -0.13042562417E+02  0.24796117898E+03  0.25240821336E+03  0.00000000000E+00 0.  1.
          5    1    4    4  501    0 -0.74681663473E+01 -0.12898647624E+02  0.54241994850E+03  0.54264078501E+03  0.41800000000E+01 0.  1.
         -5    1    4    4    0  501 -0.14032669152E+03 -0.69115036979E+00  0.60452083367E+03  0.62060854714E+03  0.41800000000E+01 0.  1.
</event>
<event>
11    1  0.8453735E-009  0.1515153E+03  0.7561462E-02  0.1095340E+00
         22   -1    0    0    0    0  0.00000000000E+00  0.00000000000E+00  0.11759262392E+04  0.11759262392E+04  0.00000000000E+00 0.  1.
         22   -1    0    0    0    0 -0.00000000000E+00 -0.00000000000E+00 -0.48893979258E+03  0.48893979258E+03  0.00000000000E+00 0. -1.
        -24    2    1    2    0    0 -0.67999769134E+01 -0.57846920075E+02 -0.42305359410E+03  0.43420764233E+03  0.78545702154E+02 0.  0.
         25    2    1    2    0    0 -0.79039410095E+02  0.52811367950E+02  0.51159487491E+02  0.16523220669E+03  0.12509244595E+03 0.  0.
         24    2    1    2    0    0  0.85839387008E+02  0.50355521246E+01  0.10588805532E+04  0.10654261827E+04  0.80691807143E+02 0.  0.
        -11    1    5    5    0    0  0.11474118885E+02 -0.27369375342E+02  0.14834896258E+03  0.15128831022E+03  0.00000000000E+00 0.  1.
         12    1    5    5    0    0  0.74365268124E+02  0.32404927466E+02  0.91053159061E+03  0.91413787249E+03  0.00000000000E+00 0. -1.
         13    1    3    3    0    0 -0.29825521917E+02  0.47654409282E+00 -0.21033820564E+03  0.21244281490E+03  0.00000000000E+00 0. -1.
        -14    1    3    3    0    0  0.23025545004E+02 -0.58323464168E+02 -0.21271538846E+03  0.22176482743E+03  0.00000000000E+00 0.  1.
          5    1    4    4  501    0 -0.62083642537E+02 -0.11072416155E+02  0.71998694806E+02  0.95803243807E+02  0.41800000000E+01 0. -1.
         -5    1    4    4    0  501 -0.16955767558E+02  0.63883784105E+02 -0.20839207315E+02  0.69428962880E+02  0.41800000000E+01 0. -1.
</event>
<event>
11    1  0.8453735E-009  0.2056584E+03  0.7561462E-02  0.1050593E+00
         22   -1    0    0    0    0  0.00000000000E+00  0.00000000000E+00  0.15400547203E+04  0.15400547203E+04  0.00000000000E+00 0. -1.
         22   -1    0    0    0    0 -0.00000000000E+00 -0.00000000000E+00 -0.15990043408E+04  0.15990043408E+04  0.00000000000E+00 0. -1.
         24    2    1    2    0    0 -0.16340745247E+03 -0.79210706732E+01 -0.15778500549E+04  0.15882934168E+04  0.79375331910E+02 0.  0.
         25    2    1    2    0    0  0.11895855783E+03  0.51679403012E+02  0.60093716644E+03  0.62737098298E+03  0.12508786150E+03 0.  0.
        -24    2    1    2    0    0  0.44448894637E+02 -0.43758332338E+02  0.91796326802E+03  0.92339466132E+03  0.78170603347E+02 0.  0.
        -11    1    3    3    0    0 -0.10246480052E+02 -0.92171293366E+01 -0.43583301162E+03  0.43605086841E+03  0.00000000000E+00 0.  1.
         12    1    3    3    0    0 -0.15316097241E+03  0.12960586634E+01 -0.11420170433E+04  0.11522425484E+04  0.00000000000E+00 0. -1.
         13    1    5    5    0    0  0.41888394237E+02 -0.53859326606E+02  0.43496663903E+03  0.44028563650E+03  0.00000000000E+00 0. -1.
        -14    1    5    5    0    0  0.25605004005E+01  0.10100994268E+02  0.48299662899E+03  0.48310902482E+03  0.00000000000E+00 0.  1.
          5    1    4    4  501    0 -0.13394887815E+02  0.17013629815E+02  0.24548369150E+03  0.24647231450E+03  0.41800000000E+01 0.  1.
         -5    1    4    4    0  501  0.13235344565E+03  0.34665773197E+02  0.35545347494E+03  0.38089866848E+03  0.41800000000E+01 0.  1.
</event>
<event>
11    1  0.8453735E-009  0.1365875E+03  0.7561462E-02  0.1111430E+00
         22   -1    0    0    0    0  0.00000000000E+00  0.00000000000E+00  0.28329664569E+04  0.28329664569E+04  0.00000000000E+00 0.  1.
         22   -1    0    0    0    0 -0.00000000000E+00 -0.00000000000E+00 -0.15212882681E+03  0.15212882681E+03  0.00000000000E+00 0.  1.
         24    2    1    2    0    0  0.46719076006E+02  0.17986408544E+02 -0.87544467542E+02  0.12871453174E+03  0.79982585159E+02 0.  0.
         25    2    1    2    0    0 -0.78732979516E+02 -0.34166847242E+02  0.89516010163E+02  0.17614399540E+03  0.12508931019E+03 0.  0.
        -24    2    1    2    0    0  0.32013903511E+02  0.16180438698E+02  0.26788660875E+04  0.26802367566E+04  0.77838680102E+02 0.  0.
        -13    1    3    3    0    0  0.38532746099E+02  0.48649741087E+02 -0.64382741991E+02  0.89424310431E+02  0.00000000000E+00 0.  1.
         14    1    3    3    0    0  0.81863299068E+01 -0.30663332543E+02 -0.23161725551E+02  0.39290221309E+02  0.00000000000E+00 0. -1.
         11    1    5    5    0    0  0.37230951254E+01 -0.91648463764E+01  0.44057342157E+02  0.45154238387E+02  0.00000000000E+00 0. -1.
        -12    1    5    5    0    0  0.28290808385E+02  0.25345285075E+02  0.26348087453E+04  0.26350825182E+04  0.00000000000E+00 0.  1.
          5    1    4    4  501    0 -0.10608781660E+03 -0.49050364564E+01  0.43096778676E+02  0.11468866093E+03  0.41800000000E+01 0.  1.
         -5    1    4    4    0  501  0.27354837086E+02 -0.29261810786E+02  0.46419231487E+02  0.61455334465E+02  0.41800000000E+01 0.  1.
</event>
<event>
11    1  0.8453735E-009  0.1363589E+03  0.7561462E-02  0.1111694E+00
         22   -1    0    0    0    0  0.00000000000E+00  0.00000000000E+00  0.12690676260E+04  0.12690676260E+04  0.00000000000E+00 0. -1.
         22   -1    0    0    0    0 -0.00000000000E+00 -0.00000000000E+00 -0.59185946598E+02  0.59185946598E+02  0.00000000000E+00 0.  1.
        -24    2    1    2    0    0 -0.48933243057E+01  0.51825963854E+02  0.99335403300E+01  0.94625385841E+02  0.78392686329E+02 0.  0.
         25    2    1    2    0    0  0.34488612943E+02 -0.65611399376E+02  0.34528283971E+03  0.37465099005E+03  0.12509518294E+03 0.  0.
         24    2    1    2    0    0 -0.29595288637E+02  0.13785435522E+02  0.85466529941E+03  0.85897719675E+03  0.79518118625E+02 0.  0.
        -11    1    5    5    0    0 -0.21774661925E+02  0.16034678392E+02  0.83512429834E+02  0.87781391820E+02  0.00000000000E+00 0.  1.
         12    1    5    5    0    0 -0.78206267116E+01 -0.22492428707E+01  0.77115286957E+03  0.77119580493E+03  0.00000000000E+00 0. -1.
         11    1    3    3    0    0 -0.37414077097E+02  0.17081977249E+02  0.20382190067E+02  0.45902513915E+02  0.00000000000E+00 0. -1.
        -12    1    3    3    0    0  0.32520752792E+02  0.34743986605E+02 -0.10448649737E+02  0.48722871926E+02  0.00000000000E+00 0.  1.
          5    1    4    4  501    0  0.61565223605E+02 -0.24358651482E+02  0.30097954905E+03  0.30820412393E+03  0.41800000000E+01 0. -1.
         -5    1    4    4    0  501 -0.27076610663E+02 -0.41252747893E+02  0.44303290655E+02  0.66446866115E+02  0.41800000000E+01 0. -1.
</event>
<event>
11    1  0.8453735E-009  0.1356979E+03  0.7561462E-02  0.1112460E+00
         22   -1    0    0    0    0  0.00000000000E+00  0.00000000000E+00  0.83128172070E+03  0.83128172070E+03  0.00000000000E+00 0.  1.
         22   -1    0    0    0    0 -0.00000000000E+00 -0.00000000000E+00 -0.15435226909E+03  0.15435226909E+03  0.00000000000E+00 0.  1.
        -24    2    1    2    0    0 -0.28232534132E+02 -0.42395499878E+02 -0.95391172878E+02  0.13300142508E+03  0.77430283598E+02 0.  0.
         25    2    1    2    0    0  0.43999878492E+01  0.72777346890E+02  0.97697239524E+02  0.17466787965E+03  0.12509282737E+03 0.  0.
         24    2    1    2    0    0  0.23832546283E+02 -0.30381847013E+02  0.67462338496E+03  0.67796468506E+03  0.55030498374E+02 0.  0.
        -13    1    5    5    0    0  0.30313354277E+02 -0.35594737812E+02  0.65480267934E+03  0.65646967461E+03  0.00000000000E+00 0.  1.
         14    1    5    5    0    0 -0.64808079936E+01  0.52128907998E+01  0.19820705625E+02  0.21495010449E+02  0.00000000000E+00 0. -1.
         13    1    3    3    0    0  0.10260043178E+02 -0.20966605297E+02  0.45493091686E+01  0.23781573489E+02  0.00000000000E+00 0. -1.
        -14    1    3    3    0    0 -0.38492577310E+02 -0.21428894581E+02 -0.99940482047E+02  0.10921985160E+03  0.00000000000E+00 0.  1.
          5    1    4    4  501    0  0.55173514373E+02  0.37697032679E+02  0.10517437796E+02  0.67773681166E+02  0.41800000000E+01 0. -1.
         -5    1    4    4    0  501 -0.50773526524E+02  0.35080314212E+02  0.87179801728E+02  0.10689419849E+03  0.41800000000E+01 0. -1.
</event>
<event>
11    1  0.8453735E-009  0.7437342E+03  0.7561462E-02  0.8970227E-01
         22   -1    0    0    0    0  0.00000000000E+00  0.00000000000E+00  0.13128946820E+04  0.13128946820E+04  0.00000000000E+00 0. -1.
         22   -1    0    0    0    0 -0.00000000000E+00 -0.00000000000E+00 -0.12580281378E+04  0.12580281378E+04  0.00000000000E+00 0. -1.
         24    2    1    2    0    0 -0.30487028704E+03 -0.53344177330E+03 -0.29625562286E+03  0.68664065184E+03  0.78752607912E+02 0.  0.
         25    2    1    2    0    0  0.88546650223E+03  0.61351507723E+03 -0.16759233745E+03  0.10973542736E+04  0.12509010172E+03 0.  0.
        -24    2    1    2    0    0 -0.58059621519E+03 -0.80073303926E+02  0.51871450450E+03  0.78692789432E+03  0.81774535061E+02 0.  0.
        -11    1    3    3    0    0 -0.18027845128E+03 -0.23736956270E+03 -0.13493957091E+03  0.32719003208E+03  0.00000000000E+00 0.  1.
         12    1    3    3    0    0 -0.12459183576E+03 -0.29607221060E+03 -0.16131605195E+03  0.35945061976E+03  0.00000000000E+00 0. -1.
         11    1    5    5    0    0 -0.55769774780E+03 -0.63751039003E+02  0.47703939954E+03  0.73665294515E+03  0.00000000000E+00 0. -1.
        -12    1    5    5    0    0 -0.22898467385E+02 -0.16322264924E+02  0.41675104961E+02  0.50274949173E+02  0.00000000000E+00 0.  1.
          5    1    4    4  501    0  0.22606584981E+03  0.95240249849E+02 -0.50836011042E+02  0.25055587413E+03  0.41800000000E+01 0.  1.
         -5    1    4    4    0  501  0.65940065242E+03  0.51827482738E+03 -0.11675632641E+03  0.84679839942E+03  0.41800000000E+01 0.  1.
</event>
<event>
11    1  0.8453735E-009  0.4111489E+03  0.7561462E-02  0.9617423E-01
         22   -1    0    0    0    0  0.00000000000E+00  0.00000000000E+00  0.15155248276E+04  0.15155248276E+04  0.00000000000E+00 0.  1.
         22   -1    0    0    0    0 -0.00000000000E+00 -0.00000000000E+00 -0.10741722389E+04  0.10741722389E+04  0.00000000000E+00 0. -1.
        -24    2    1    2    0    0  0.14685929628E+03 -0.46905670639E+03 -0.78265577905E+03  0.92763231614E+03  0.79811019038E+02 0.  0.
         25    2    1    2    0    0 -0.11468140574E+03  0.23067856303E+03 -0.10812419248E+03  0.30611057906E+03  0.12509365031E+03 0.  0.
         24    2    1    2    0    0 -0.32177890542E+02  0.23837814335E+03  0.13321325602E+04  0.13559541713E+04  0.78581174618E+02 0.  0.
        -13    1    5    5    0    0 -0.24290106271E+02  0.23237724751E+03  0.11469006272E+04  0.11704572795E+04  0.00000000000E+00 0.  1.
         14    1    5    5    0    0 -0.78877842714E+01  0.60008958415E+01  0.18523193298E+03  0.18549689185E+03  0.00000000000E+00 0. -1.
         11    1    3    3    0    0  0.14516766329E+03 -0.45012577102E+03 -0.77325747587E+03  0.90642924941E+03  0.00000000000E+00 0. -1.
        -12    1    3    3    0    0  0.16916329853E+01 -0.18930935369E+02 -0.93983031817E+01  0.21203066731E+02  0.00000000000E+00 0.  1.
          5    1    4    4  501    0 -0.60638495116E+02  0.95580367369E+02 -0.11362615856E+03  0.16044005119E+03  0.41800000000E+01 0.  1.
         -5    1    4    4    0  501 -0.54042910619E+02  0.13509819566E+03  0.55019660741E+01  0.14567052787E+03  0.41800000000E+01 0.  1.
</event>
<event>
11    1  0.8453735E-009  0.1461248E+03  0.7561462E-02  0.1100906E+00
         22   -1    0    0    0    0  0.00000000000E+00  0.00000000000E+00  0.25961884898E+03  0.25961884898E+03  0.00000000000E+00 0. -1.
         22   -1    0    0    0    0 -0.00000000000E+00 -0.00000000000E+00 -0.40088272636E+04  0.40088272636E+04  0.00000000000E+00 0.  1.
         24    2    1    2    0    0 -0.22159382188E+02 -0.72489265741E+02 -0.37468159709E+04  0.37484383361E+04  0.80089375985E+02 0.  0.
         25    2    1    2    0    0  0.10235854828E+02  0.68796671812E+02 -0.23376946781E+03  0.27410496960E+03  0.12509042931E+03 0.  0.
        -24    2    1    2    0    0  0.11923527360E+02  0.36925939290E+01  0.23137702400E+03  0.24590280694E+03  0.82322885463E+02 0.  0.
        -13    1    3    3    0    0 -0.47641281618E+02 -0.57079208260E+02 -0.31526724425E+04  0.31535489940E+04  0.00000000000E+00 0.  1.
         14    1    3    3    0    0  0.25481899430E+02 -0.15410057481E+02 -0.59414352832E+03  0.59488934208E+03  0.00000000000E+00 0. -1.
         13    1    5    5    0    0  0.23066949386E+02 -0.13061473819E+02  0.22222032804E+03  0.22379580078E+03  0.00000000000E+00 0. -1.
        -14    1    5    5    0    0 -0.11143422026E+02  0.16754067748E+02  0.91566959629E+01  0.22107006163E+02  0.00000000000E+00 0.  1.
          5    1    4    4  501    0 -0.49817208722E+02  0.60962612493E+02 -0.16154563719E+03  0.17975722433E+03  0.41800000000E+01 0. -1.
         -5    1    4    4    0  501  0.60053063550E+02  0.78340593190E+01 -0.72223830623E+02  0.94347745267E+02  0.41800000000E+01 0. -1.
</event>
<event>
11    1  0.8453735E-009  0.1659587E+03  0.7561462E-02  0.1081603E+00
         22   -1    0    0    0    0  0.00000000000E+00  0.00000000000E+00  0.12014473359E+03  0.12014473359E+03  0.00000000000E+00 0. -1.
         22   -1    0    0    0    0 -0.00000000000E+00 -0.00000000000E+00 -0.25079646644E+04  0.25079646644E+04  0.00000000000E+00 0.  1.
         24    2    1    2    0    0 -0.65575743155E+02  0.87151565477E+02 -0.23265658267E+04  0.23304825445E+04  0.79654069220E+02 0.  0.
         25    2    1    2    0    0  0.95555528759E+02 -0.64319286322E+02 -0.99566231689E+02  0.19704744836E+03  0.12508570159E+03 0.  0.
        -24    2    1    2    0    0 -0.29979785604E+02 -0.22832279155E+02  0.38312127582E+02  0.10057940514E+03  0.85019392509E+02 0.  0.
        -13    1    3    3    0    0 -0.69137277900E+02  0.91859462255E+02 -0.23106288222E+04  0.23134873412E+04  0.00000000000E+00 0.  1.
         14    1    3    3    0    0  0.35615347448E+01 -0.47078967782E+01 -0.15937004538E+02  0.16995203308E+02  0.00000000000E+00 0. -1.
         11    1    5    5    0    0 -0.50402001211E+01 -0.29015448981E+02  0.60076106706E+02  0.66906191745E+02  0.00000000000E+00 0. -1.
        -12    1    5    5    0    0 -0.24939585483E+02  0.61831698260E+01 -0.21763979125E+02  0.33673213397E+02  0.00000000000E+00 0.  1.
          5    1    4    4  501    0  0.79459671164E+02 -0.82679010435E+02 -0.11918691279E+03  0.16544682133E+03  0.41800000000E+01 0. -1.
         -5    1    4    4    0  501  0.16095857595E+02  0.18359724112E+02  0.19620681105E+02  0.31600627023E+02  0.41800000000E+01 0. -1.
</event>
<event>
11    1  0.8453735E-009  0.1669844E+03  0.7561462E-02  0.1080686E+00
         22   -1    0    0    0    0  0.00000000000E+00  0.00000000000E+00  0.91021262248E+03  0.91021262248E+03  0.00000000000E+00 0. -1.
         22   -1    0    0    0    0 -0.00000000000E+00 -0.00000000000E+00 -0.33153816147E+03  0.33153816147E+03  0.00000000000E+00 0.  1.
        -24    2    1    2    0    0  0.51570452103E+01 -0.27588655396E+02 -0.27829810817E+03  0.28969879094E+03  0.75417659979E+02 0.  0.
         25    2    1    2    0    0 -0.93923463850E+02 -0.41151753380E+02  0.11740176402E+03  0.19986323496E+03  0.12508818740E+03 0.  0.
         24    2    1    2    0    0  0.88766418640E+02  0.68740408776E+02  0.73957080517E+03  0.75218875805E+03  0.78855760779E+02 0.  0.
        -13    1    5    5    0    0 -0.17388993233E+01 -0.75330404936E+01  0.18342403237E+03  0.18358688984E+03  0.00000000000E+00 0.  1.
         14    1    5    5    0    0  0.90505317963E+02  0.76273449269E+02  0.55614677280E+03  0.56860186822E+03  0.00000000000E+00 0. -1.
         13    1    3    3    0    0  0.27545109947E+02 -0.13580838056E+02 -0.42546658353E+02  0.52472758468E+02  0.00000000000E+00 0. -1.
        -14    1    3    3    0    0 -0.22388064737E+02 -0.14007817340E+02 -0.23575144982E+03  0.23722603247E+03  0.00000000000E+00 0.  1.
          5    1    4    4  501    0  0.29811327769E+02 -0.12222605303E+02  0.37868327825E+02  0.49895791365E+02  0.41800000000E+01 0.  1.
         -5    1    4    4    0  501 -0.12373479162E+03 -0.28929148077E+02  0.79533436192E+02  0.14996744359E+03  0.41800000000E+01 0.  1.
</event>
<event>
11    1  0.8453735E-009  0.1664415E+03  0.7561462E-02  0.1081171E+00
         22   -1    0    0    0    0  0.00000000000E+00  0.00000000000E+00  0.62560913644E+03  0.62560913644E+03  0.00000000000E+00 0.  1.
         22   -1    0    0    0    0 -0.00000000000E+00 -0.00000000000E+00 -0.87397875952E+03  0.87397875952E+03  0.00000000000E+00 0.  1.
        -24    2    1    2    0    0  0.76588006775E+02 -0.81152866746E+02 -0.80181062192E+03  0.81374894061E+03  0.82677411409E+02 0.  0.
         25    2    1    2    0    0 -0.72435801359E+02  0.44669851271E+02  0.28782593508E+02  0.15400973105E+03  0.12509284007E+03 0.  0.
         24    2    1    2    0    0 -0.41522054162E+01  0.36483015475E+02  0.52465840533E+03  0.53182922432E+03  0.78915336450E+02 0.  0.
        -11    1    5    5    0    0  0.25156930544E+02 -0.13907457357E+02  0.17316956231E+03  0.17553912907E+03  0.00000000000E+00 0.  1.
         12    1    5    5    0    0 -0.29309135961E+02  0.50390472832E+02  0.35148884302E+03  0.35629009525E+03  0.00000000000E+00 0. -1.
         13    1    3    3    0    0  0.14474806263E+02 -0.99773529896E+01 -0.21645819474E+02  0.27885643075E+02  0.00000000000E+00 0. -1.
        -14    1    3    3    0    0  0.62113200512E+02 -0.71175513757E+02 -0.78016480244E+03  0.78586329753E+03  0.00000000000E+00 0.  1.
          5    1    4    4  501    0 -0.23466845391E+02 -0.36501981232E+02 -0.19247945221E+02  0.47655464133E+02  0.41800000000E+01 0. -1.
         -5    1    4    4    0  501 -0.48968955968E+02  0.81171832503E+02  0.48030538729E+02  0.10635426692E+03  0.41800000000E+01 0. -1.
</event>
<event>
11    1  0.8453735E-009  0.1627888E+03  0.7561462E-02  0.1084483E+00
         22   -1    0    0    0    0  0.00000000000E+00  0.00000000000E+00  0.31044650866E+03  0.31044650866E+03  0.00000000000E+00 0.  1.
         22   -1    0    0    0    0 -0.00000000000E+00 -0.00000000000E+00 -0.14801222211E+04  0.14801222211E+04  0.00000000000E+00 0.  1.
        -24    2    1    2    0    0  0.10101165878E+03 -0.25545397975E+02 -0.14252154978E+04  0.14314008676E+04  0.82542752711E+02 0.  0.
         25    2    1    2    0    0 -0.96088715824E+02  0.46104474038E+02  0.14445019562E+03  0.21878696535E+03  0.12507283221E+03 0.  0.
         24    2    1    2    0    0 -0.49229429562E+01 -0.20559076063E+02  0.11108958973E+03  0.14038089683E+03  0.83180456076E+02 0.  0.
        -11    1    5    5    0    0 -0.17165937569E+02 -0.48533962804E+02  0.88548535882E+02  0.10242586668E+03  0.00000000000E+00 0.  1.
         12    1    5    5    0    0  0.12242994613E+02  0.27974886741E+02  0.22541053845E+02  0.37955030151E+02  0.00000000000E+00 0. -1.
         13    1    3    3    0    0  0.55167946624E+02 -0.40312624895E+02 -0.11480728687E+04  0.11501043091E+04  0.00000000000E+00 0. -1.
        -14    1    3    3    0    0  0.45843712156E+02  0.14767226920E+02 -0.27714262907E+03  0.28129655843E+03  0.00000000000E+00 0.  1.
          5    1    4    4  501    0 -0.77691944137E+02  0.76644833014E+02  0.54749029944E+02  0.12216954322E+03  0.41800000000E+01 0.  1.
         -5    1    4    4    0  501 -0.18396771687E+02 -0.30540358976E+02  0.89701165674E+02  0.96617422126E+02  0.41800000000E+01 0.  1.
</event>
<event>
11    1  0.8453735E-009  0.1416054E+03  0.7561462E-02  0.1105779E+00
         22   -1    0    0    0    0  0.00000000000E+00  0.00000000000E+00  0.24203527407E+03  0.24203527407E+03  0.00000000000E+00 0. -1.
         22   -1    0    0    0    0 -0.00000000000E+00 -0.00000000000E+00 -0.12581044783E+04  0.12581044783E+04  0.00000000000E+00 0. -1.
        -24    2    1    2    0    0  0.37170860066E+01 -0.77272524843E+01 -0.10855318313E+04  0.10887035002E+04  0.82597987302E+02 0.  0.
         25    2    1    2    0    0 -0.69639982610E+02  0.11565156651E+02 -0.12511570073E+03  0.19048925886E+03  0.12509492054E+03 0.  0.
         24    2    1    2    0    0  0.65922896603E+02 -0.38379041670E+01  0.19457832778E+03  0.22094699330E+03  0.81217549844E+02 0.  0.
        -11    1    5    5    0    0 -0.85655726744E+01 -0.17684771035E+02  0.11397581013E+02  0.22716183983E+02  0.00000000000E+00 0.  1.
         12    1    5    5    0    0  0.74488469277E+02  0.13846866868E+02  0.18318074676E+03  0.19823080932E+03  0.00000000000E+00 0. -1.
         13    1    3    3    0    0  0.34299353473E+02 -0.57260462728E+01 -0.22915531365E+03  0.23177875448E+03  0.00000000000E+00 0. -1.
        -14    1    3    3    0    0 -0.30582267466E+02 -0.20012062115E+01 -0.85637651763E+03  0.85692474573E+03  0.00000000000E+00 0.  1.
          5    1    4    4  501    0  0.31789742592E+02 -0.15905164811E+02 -0.48944618076E+02  0.60635056200E+02  0.41800000000E+01 0. -1.
         -5    1    4    4    0  501 -0.10142972520E+03  0.27470321462E+02 -0.76171082652E+02  0.12985420266E+03  0.41800000000E+01 0. -1.
</event>
<event>
11    1  0.8453735E-009  0.1718777E+03  0.7561462E-02  0.1076409E+00
         22   -1    0    0    0    0  0.00000000000E+00  0.00000000000E+00  0.84377089396E+03  0.84377089396E+03  0.00000000000E+00 0.  1.
         22   -1    0    0    0    0 -0.00000000000E+00 -0.00000000000E+00 -0.27379018417E+03  0.27379018417E+03  0.00000000000E+00 0. -1.
         24    2    1    2    0    0  0.14262744480E+02  0.38497152658E+02 -0.23613954106E+03  0.25107472160E+03  0.74774168882E+02 0.  0.
         25    2    1    2    0    0 -0.59111594238E+02  0.84713717265E+02  0.37377465122E+03  0.40746241570E+03  0.12509011093E+03 0.  0.
        -24    2    1    2    0    0  0.44848849758E+02 -0.12321086992E+03  0.43234559964E+03  0.45902394082E+03  0.81166020746E+02 0.  0.
        -13    1    3    3    0    0 -0.17123709751E+02 -0.52681203416E+01 -0.14683995891E+02  0.23164504374E+02  0.00000000000E+00 0.  1.
         14    1    3    3    0    0  0.31386454232E+02  0.43765273000E+02 -0.22145554517E+03  0.22791021723E+03  0.00000000000E+00 0. -1.
         11    1    5    5    0    0  0.50096638078E+02 -0.92468011225E+02  0.21381345789E+03  0.23827757138E+03  0.00000000000E+00 0. -1.
        -12    1    5    5    0    0 -0.52477883202E+01 -0.30742858698E+02  0.21853214175E+03  0.22074636944E+03  0.00000000000E+00 0.  1.
          5    1    4    4  501    0 -0.31331936166E+02  0.30289566728E+02  0.19488058586E+02  0.47920819108E+02  0.41800000000E+01 0. -1.
         -5    1    4    4    0  501 -0.27779658072E+02  0.54424150537E+02  0.35428659263E+03  0.35954159660E+03  0.41800000000E+01 0. -1.
</event>
<event>
11    1  0.8453735E-009  0.1701646E+03  0.7561462E-02  0.1077889E+00
         22   -1    0    0    0    0  0.00000000000E+00  0.00000000000E+00  0.55779016810E+03  0.55779016810E+03  0.00000000000E+00 0.  1.
         22   -1    0    0    0    0 -0.00000000000E+00 -0.00000000000E+00 -0.44197939460E+03  0.44197939460E+03  0.00000000000E+00 0. -1.
         24    2    1    2    0    0  0.17586537240E+02  0.11755352774E+01 -0.37609133155E+03  0.38477648758E+03  0.79357340857E+02 0.  0.
         25    2    1    2    0    0 -0.32102630069E+02  0.11300101938E+03  0.10003279863E+03  0.19863249152E+03  0.12509395128E+03 0.  0.
        -24    2    1    2    0    0  0.14516092829E+02 -0.11417655466E+03  0.39186930642E+03  0.41636058359E+03  0.80917116071E+02 0.  0.
        -13    1    3    3    0    0  0.35660644270E+02  0.28483077177E+02 -0.16648080777E+03  0.17262336630E+03  0.00000000000E+00 0.  1.
         14    1    3    3    0    0 -0.18074107030E+02 -0.27307541899E+02 -0.20961052378E+03  0.21215312128E+03  0.00000000000E+00 0. -1.
         11    1    5    5    0    0  0.45001380337E+02 -0.40807571871E+02  0.15269990243E+03  0.16434002056E+03  0.00000000000E+00 0. -1.
        -12    1    5    5    0    0 -0.30485287508E+02 -0.73368982790E+02  0.23916940399E+03  0.25202056304E+03  0.00000000000E+00 0.  1.
          5    1    4    4  501    0  0.23182226039E+02  0.78106328453E+01  0.72429842155E+02  0.76563542396E+02  0.41800000000E+01 0. -1.
         -5    1    4    4    0  501 -0.55284856108E+02  0.10519038654E+03  0.27602956479E+02  0.12206894913E+03  0.41800000000E+01 0. -1.
</event>
<event>
11    1  0.8453735E-009  0.1565183E+03  0.7561462E-02  0.1090398E+00
         22   -1    0    0    0    0  0.00000000000E+00  0.00000000000E+00  0.78608055394E+03  0.78608055394E+03  0.00000000000E+00 0.  1.
         22   -1    0    0    0    0 -0.00000000000E+00 -0.00000000000E+00 -0.57608575040E+03  0.57608575040E+03  0.00000000000E+00 0. -1.
         24    2    1    2    0    0  0.23227851969E+02  0.14096780023E+02 -0.47140302910E+03  0.47907913664E+03  0.80979941998E+02 0.  0.
         25    2    1    2    0    0  0.39187035967E+02  0.58123947237E+02 -0.41651570713E+02  0.14931732490E+03  0.12508714219E+03 0.  0.
        -24    2    1    2    0    0 -0.62414887937E+02 -0.72220727260E+02  0.72304940336E+03  0.73376984281E+03  0.80661582137E+02 0.  0.
        -11    1    3    3    0    0 -0.66629214253E+01 -0.26200887301E+02 -0.79357761902E+02  0.83836360795E+02  0.00000000000E+00 0.  1.
         12    1    3    3    0    0  0.29890773395E+02  0.40297667325E+02 -0.39204526720E+03  0.39524277584E+03  0.00000000000E+00 0. -1.
         11    1    5    5    0    0 -0.37996268234E+02  0.59831729551E+00  0.12062509199E+03  0.12646931328E+03  0.00000000000E+00 0. -1.
        -12    1    5    5    0    0 -0.24418619702E+02 -0.72819044556E+02  0.60242431136E+03  0.60730052952E+03  0.00000000000E+00 0.  1.
          5    1    4    4  501    0  0.30262782295E+00 -0.20136537848E+02  0.29903325799E+02  0.36293980685E+02  0.41800000000E+01 0.  1.
         -5    1    4    4    0  501  0.38884408144E+02  0.78260485085E+02 -0.71554896513E+02  0.11302334421E+03  0.41800000000E+01 0.  1.
</event>
<event>
11    1  0.8681124E-009  0.1529180E+03  0.7561462E-02  0.1093934E+00
         22   -1    0    0    0    0  0.00000000000E+00  0.00000000000E+00  0.10399188853E+03  0.10399188853E+03  0.00000000000E+00 0.  1.
         22   -1    0    0    0    0 -0.00000000000E+00 -0.00000000000E+00 -0.22500945648E+04  0.22500945648E+04  0.00000000000E+00 0. -1.
        -24    2    1    2    0    0  0.57311496538E+02  0.54302738160E+02 -0.15422821761E+04  0.15465759116E+04  0.83841185674E+02 0.  0.
         25    2    1    2    0    0 -0.68012071253E+02 -0.13813280760E+03 -0.65160648160E+03  0.68113482887E+03  0.12508930360E+03 0.  0.
         24    2    1    2    0    0  0.10700574715E+02  0.83830069440E+02  0.47785981484E+02  0.12637571287E+03  0.80903262828E+02 0.  0.
        -13    1    5    5    0    0 -0.25017569488E+02  0.68002312634E+02  0.48689135159E+02  0.87297337812E+02  0.00000000000E+00 0.  1.
         14    1    5    5    0    0  0.35718144203E+02  0.15827756806E+02 -0.90315367502E+00  0.39078375060E+02  0.00000000000E+00 0. -1.
         11    1    3    3    0    0  0.71976468554E+02  0.30967362555E+02 -0.13564330606E+04  0.13586943135E+04  0.00000000000E+00 0. -1.
        -12    1    3    3    0    0 -0.14664972015E+02  0.23335375605E+02 -0.18584911552E+03  0.18788159808E+03  0.00000000000E+00 0.  1.
          5    1    4    4  501    0 -0.52965155809E+01 -0.13526304373E+03 -0.43972961080E+03  0.46011275476E+03  0.41800000000E+01 0.  1.
         -5    1    4    4    0  501 -0.62715555672E+02 -0.28697638682E+01 -0.21187687079E+03  0.22102207411E+03  0.41800000000E+01 0.  1.
</event>
<event>
11    1  0.8453735E-009  0.1503065E+03  0.7561462E-02  0.1096566E+00
         22   -1    0    0    0    0  0.00000000000E+00  0.00000000000E+00  0.10588027335E+03  0.10588027335E+03  0.00000000000E+00 0. -1.
         22   -1    0    0    0    0 -0.00000000000E+00 -0.00000000000E+00 -0.11676873522E+04  0.11676873522E+04  0.00000000000E+00 0. -1.
         24    2    1    2    0    0 -0.42773691186E+02 -0.46582932014E+02 -0.89887043984E+03  0.90468691324E+03  0.80565409222E+02 0.  0.
         25    2    1    2    0    0  0.11428684882E+03  0.65586831956E+02 -0.18289620236E+03  0.25780215203E+03  0.12509121637E+03 0.  0.
        -24    2    1    2    0    0 -0.71513157636E+02 -0.19003899942E+02  0.19959563311E+02  0.11107856031E+03  0.80403870957E+02 0.  0.
        -11    1    3    3    0    0  0.13575461630E+01 -0.23002763120E+02 -0.59192076337E+02  0.63519067561E+02  0.00000000000E+00 0.  1.
         12    1    3    3    0    0 -0.44131237349E+02 -0.23580168894E+02 -0.83967836350E+03  0.84116784568E+03  0.00000000000E+00 0. -1.
         13    1    5    5    0    0 -0.25045150280E+02  0.22524496885E+02 -0.17914629602E+02  0.38151624687E+02  0.00000000000E+00 0. -1.
        -14    1    5    5    0    0 -0.46468007356E+02 -0.41528396826E+02  0.37874192913E+02  0.72926935623E+02  0.00000000000E+00 0.  1.
          5    1    4    4  501    0  0.12152589455E+03  0.79717400186E+02 -0.10798316899E+03  0.18111113750E+03  0.41800000000E+01 0.  1.
         -5    1    4    4    0  501 -0.72390457323E+01 -0.14130568230E+02 -0.74913033371E+02  0.76691014535E+02  0.41800000000E+01 0.  1.
</event>
<event>
11    1  0.8453735E-009  0.1461193E+03  0.7561462E-02  0.1100911E+00
         22   -1    0    0    0    0  0.00000000000E+00  0.00000000000E+00  0.11722961489E+04  0.11722961489E+04  0.00000000000E+00 0.  1.
         22   -1    0    0    0    0 -0.00000000000E+00 -0.00000000000E+00 -0.72354249238E+03  0.72354249238E+03  0.00000000000E+00 0.  1.
        -24    2    1    2    0    0  0.76032834746E+02  0.14959055164E+01 -0.69680406123E+03  0.70562633079E+03  0.81175053291E+02 0.  0.
         25    2    1    2    0    0 -0.41262330074E+02 -0.59662784956E+02  0.25471592672E+03  0.29289925320E+03  0.12509013315E+03 0.  0.
         24    2    1    2    0    0 -0.34770504672E+02  0.58166879440E+02  0.89084179103E+03  0.89731305728E+03  0.83541919204E+02 0.  0.
        -11    1    5    5    0    0  0.24480039704E+02  0.37455004802E+02  0.38559006676E+03  0.38817760022E+03  0.00000000000E+00 0.  1.
         12    1    5    5    0    0 -0.59250544376E+02  0.20711874638E+02  0.50525172427E+03  0.50913545706E+03  0.00000000000E+00 0. -1.
         13    1    3    3    0    0 -0.54434447049E+01 -0.23046040499E+02 -0.98778656082E+02  0.10157742845E+03  0.00000000000E+00 0. -1.
        -14    1    3    3    0    0  0.81476279451E+02  0.24541946015E+02 -0.59802540514E+03  0.60404890235E+03  0.00000000000E+00 0.  1.
          5    1    4    4  501    0 -0.15160385221E+02  0.87692189397E+01  0.20141954813E+03  0.20222275651E+03  0.41800000000E+01 0.  1.
         -5    1    4    4    0  501 -0.26101944853E+02 -0.68432003896E+02  0.53296378583E+02  0.90676496693E+02  0.41800000000E+01 0.  1.
</event>
<event>
11    1  0.8453735E-009  0.1414775E+03  0.7561462E-02  0.1105920E+00
         22   -1    0    0    0    0  0.00000000000E+00  0.00000000000E+00  0.99783884047E+03  0.99783884047E+03  0.00000000000E+00 0. -1.
         22   -1    0    0    0    0 -0.00000000000E+00 -0.00000000000E+00 -0.39714285203E+03  0.39714285203E+03  0.00000000000E+00 0.  1.
         24    2    1    2    0    0  0.65276906222E+02  0.13451182377E+01 -0.29079293720E+03  0.30857674915E+03  0.79976208704E+02 0.  0.
         25    2    1    2    0    0 -0.70976534736E+02  0.23356505035E+02 -0.40014861145E+02  0.15110139793E+03  0.12508896247E+03 0.  0.
        -24    2    1    2    0    0  0.56996285146E+01 -0.24701623273E+02  0.93150378678E+03  0.93530354542E+03  0.80316631660E+02 0.  0.
        -13    1    3    3    0    0  0.25243901946E+02 -0.38814921723E+02 -0.14115066221E+03  0.14855087404E+03  0.00000000000E+00 0.  1.
         14    1    3    3    0    0  0.40033004275E+02  0.40160039961E+02 -0.14964227499E+03  0.16002587511E+03  0.00000000000E+00 0. -1.
         13    1    5    5    0    0 -0.12600206785E+02 -0.23643573991E+02  0.88369703666E+03  0.88410306888E+03  0.00000000000E+00 0. -1.
        -14    1    5    5    0    0  0.18299835300E+02 -0.10580492825E+01  0.47806750126E+02  0.51200476540E+02  0.00000000000E+00 0.  1.
          5    1    4    4  501    0  0.27686999956E+02 -0.78844295088E+01  0.16155746320E+02  0.33274836354E+02  0.41800000000E+01 0.  1.
         -5    1    4    4    0  501 -0.98663534692E+02  0.31240934544E+02 -0.56170607466E+02  0.11782656157E+03  0.41800000000E+01 0.  1.
</event>
<event>
11    1  0.8453735E-009  0.2543704E+03  0.7561462E-02  0.1021596E+00
         22   -1    0    0    0    0  0.00000000000E+00  0.00000000000E+00  0.22574402128E+04  0.22574402128E+04  0.00000000000E+00 0.  1.
         22   -1    0    0    0    0 -0.00000000000E+00 -0.00000000000E+00 -0.15644056052E+03  0.15644056052E+03  0.00000000000E+00 0.  1.
        -24    2    1    2    0    0  0.57864253299E+02 -0.25090457924E+01 -0.47861611945E+02  0.11227060638E+03  0.83422946713E+02 0.  0.
         25    2    1    2    0    0 -0.10501486707E+03 -0.21290358373E+03  0.19024235058E+03  0.32893089180E+03  0.12508925356E+03 0.  0.
         24    2    1    2    0    0  0.47150613773E+02  0.21541262953E+03  0.19586189137E+04  0.19726792752E+04  0.81545645431E+02 0.  0.
        -13    1    5    5    0    0  0.70739511945E+01  0.18235996453E+03  0.15830792837E+04  0.15935636843E+04  0.00000000000E+00 0.  1.
         14    1    5    5    0    0  0.40076662578E+02  0.33052665001E+02  0.37553962997E+03  0.37911559085E+03  0.00000000000E+00 0. -1.
         13    1    3    3    0    0  0.25463104402E+01 -0.36362733624E+02 -0.13467288780E+02  0.38860004639E+02  0.00000000000E+00 0. -1.
        -14    1    3    3    0    0  0.55317942858E+02  0.33853687832E+02 -0.34394323165E+02  0.73410601740E+02  0.00000000000E+00 0.  1.
          5    1    4    4  501    0 -0.12305715384E+03 -0.19126321664E+03  0.12927353315E+03  0.26163677097E+03  0.41800000000E+01 0. -1.
         -5    1    4    4    0  501  0.18042286769E+02 -0.21640367089E+02  0.60968817430E+02  0.67294120831E+02  0.41800000000E+01 0. -1.
</event>
<event>
11    1  0.8453735E-009  0.1823641E+03  0.7561462E-02  0.1067746E+00
         22   -1    0    0    0    0  0.00000000000E+00  0.00000000000E+00  0.29410647218E+03  0.29410647218E+03  0.00000000000E+00 0. -1.
         22   -1    0    0    0    0 -0.00000000000E+00 -0.00000000000E+00 -0.88760015407E+03  0.88760015407E+03  0.00000000000E+00 0.  1.
        -24    2    1    2    0    0 -0.71990340396E+02  0.22474093326E+02 -0.65322904807E+03  0.66261931177E+03  0.81660695063E+02 0.  0.
         25    2    1    2    0    0  0.12860641311E+03 -0.13492826176E+03 -0.13792896100E+03  0.26347378426E+03  0.12509512938E+03 0.  0.
         24    2    1    2    0    0 -0.56616072716E+02  0.11245416844E+03  0.19766432718E+03  0.25561353022E+03  0.10205768419E+03 0.  0.
        -13    1    5    5    0    0 -0.79512726985E+00 -0.23986285067E+01 -0.10829570084E+02  0.11120487143E+02  0.00000000000E+00 0.  1.
         14    1    5    5    0    0 -0.55820945446E+02  0.11485279694E+03  0.20849389726E+03  0.24449304307E+03  0.00000000000E+00 0. -1.
         13    1    3    3    0    0 -0.39863241966E+02 -0.88664470859E+01 -0.10665889205E+03  0.11420950572E+03  0.00000000000E+00 0. -1.
        -14    1    3    3    0    0 -0.32127098430E+02  0.31340540412E+02 -0.54657015602E+03  0.54840980606E+03  0.00000000000E+00 0.  1.
          5    1    4    4  501    0  0.81675936311E+02 -0.13081522708E+03 -0.47498698251E+02  0.16142236816E+03  0.41800000000E+01 0.  1.
         -5    1    4    4    0  501  0.46930476801E+02 -0.41130346865E+01 -0.90430262750E+02  0.10205141610E+03  0.41800000000E+01 0.  1.
</event>
<event>
11    1  0.8453735E-009  0.4027636E+03  0.7561462E-02  0.9641639E-01
         22   -1    0    0    0    0  0.00000000000E+00  0.00000000000E+00  0.94215550048E+03  0.94215550048E+03  0.00000000000E+00 0.  1.
         22   -1    0    0    0    0 -0.00000000000E+00 -0.00000000000E+00 -0.10755642455E+04  0.10755642455E+04  0.00000000000E+00 0. -1.
         24    2    1    2    0    0 -0.26554214299E+02 -0.38077971079E+03 -0.95948450775E+03  0.10358401605E+04  0.81584331488E+02 0.  0.
         25    2    1    2    0    0  0.83467015260E+02  0.39730114620E+03  0.58078995976E+03  0.71956643111E+03  0.12507568914E+03 0.  0.
        -24    2    1    2    0    0 -0.56912800961E+02 -0.16521435412E+02  0.24528580299E+03  0.26231315431E+03  0.71631285278E+02 0.  0.
        -13    1    3    3    0    0 -0.35606008461E+01 -0.19126600259E+03 -0.58533164627E+03  0.61579907255E+03  0.00000000000E+00 0.  1.
         14    1    3    3    0    0 -0.22993613453E+02 -0.18951370819E+03 -0.37415286148E+03  0.42004108800E+03  0.00000000000E+00 0. -1.
         11    1    5    5    0    0 -0.38321848618E+01  0.24533811829E+02  0.50139759635E+02  0.55951667177E+02  0.00000000000E+00 0. -1.
        -12    1    5    5    0    0 -0.53080616099E+02 -0.41055247241E+02  0.19514604336E+03  0.20636148713E+03  0.00000000000E+00 0.  1.
          5    1    4    4  501    0  0.39592577540E+02  0.35778083371E+03  0.53447866311E+03  0.64440640196E+03  0.41800000000E+01 0. -1.
         -5    1    4    4    0  501  0.43874437720E+02  0.39520312489E+02  0.46311296650E+02  0.75160029150E+02  0.41800000000E+01 0. -1.
</event>
<event>
11    1  0.8453735E-009  0.1394745E+03  0.7561462E-02  0.1108147E+00
         22   -1    0    0    0    0  0.00000000000E+00  0.00000000000E+00  0.24636054966E+04  0.24636054966E+04  0.00000000000E+00 0.  1.
         22   -1    0    0    0    0 -0.00000000000E+00 -0.00000000000E+00 -0.12941983983E+03  0.12941983983E+03  0.00000000000E+00 0. -1.
        -24    2    1    2    0    0 -0.42879096451E+02  0.42330638217E+02 -0.87991908051E+02  0.13329429569E+03  0.79964326652E+02 0.  0.
         25    2    1    2    0    0  0.87168399766E+02 -0.28833952866E+02  0.32045443292E+03  0.35604533473E+03  0.12509000778E+03 0.  0.
         24    2    1    2    0    0 -0.44289303315E+02 -0.13496685351E+02  0.21017231319E+04  0.21036857060E+04  0.78164720885E+02 0.  0.
        -13    1    5    5    0    0 -0.20446552351E+02 -0.44187022488E+02  0.14395117126E+04  0.14403348657E+04  0.00000000000E+00 0.  1.
         14    1    5    5    0    0 -0.23842750964E+02  0.30690337137E+02  0.66221141930E+03  0.66335084036E+03  0.00000000000E+00 0. -1.
         13    1    3    3    0    0 -0.55914430115E+02  0.37090927183E+02 -0.95998979866E+02  0.11712371455E+03  0.00000000000E+00 0. -1.
        -14    1    3    3    0    0  0.13035333664E+02  0.52397110341E+01  0.80070718146E+01  0.16170581143E+02  0.00000000000E+00 0.  1.
          5    1    4    4  501    0  0.65609062350E+02  0.43823901729E+02  0.15324086777E+03  0.17241032272E+03  0.41800000000E+01 0.  1.
         -5    1    4    4    0  501  0.21559337416E+02 -0.72657854595E+02  0.16721356515E+03  0.18363501200E+03  0.41800000000E+01 0.  1.
</event>
<event>
11    1  0.8453735E-009  0.1605034E+03  0.7561462E-02  0.1086605E+00
         22   -1    0    0    0    0  0.00000000000E+00  0.00000000000E+00  0.41071221872E+02  0.41071221872E+02  0.00000000000E+00 0. -1.
         22   -1    0    0    0    0 -0.00000000000E+00 -0.00000000000E+00 -0.14290779800E+04  0.14290779800E+04  0.00000000000E+00 0.  1.
        -24    2    1    2    0    0  0.62526339610E+02 -0.78320004649E+02 -0.87168578456E+03  0.88093240651E+03  0.78499882585E+02 0.  0.
         25    2    1    2    0    0 -0.64164637038E+02  0.78841123885E+02 -0.46883152854E+03  0.49576242591E+03  0.12507740536E+03 0.  0.
         24    2    1    2    0    0  0.16382974276E+01 -0.52111923626E+00 -0.47489445074E+02  0.93454369494E+02  0.80470592146E+02 0.  0.
        -13    1    5    5    0    0 -0.10137414748E+02  0.26258127586E+02  0.92411560449E+01  0.29625249486E+02  0.00000000000E+00 0.  1.
         14    1    5    5    0    0  0.11775712176E+02 -0.26779246822E+02 -0.56730601119E+02  0.63829120007E+02  0.00000000000E+00 0. -1.
         11    1    3    3    0    0  0.43769241146E+01 -0.19477521582E+02 -0.36023202742E+02  0.41184978420E+02  0.00000000000E+00 0. -1.
        -12    1    3    3    0    0  0.58149415496E+02 -0.58842483067E+02 -0.83566258182E+03  0.83974742809E+03  0.00000000000E+00 0.  1.
          5    1    4    4  501    0 -0.36827501573E+01 -0.26306393307E+02 -0.18676297707E+03  0.18868882050E+03  0.41800000000E+01 0.  1.
         -5    1    4    4    0  501 -0.60481886881E+02  0.10514751719E+03 -0.28206855147E+03  0.30707360541E+03  0.41800000000E+01 0.  1.
</event>
<event>
11    1  0.8453735E-009  0.1450205E+03  0.7561462E-02  0.1102078E+00
         22   -1    0    0    0    0  0.00000000000E+00  0.00000000000E+00  0.18013645848E+03  0.18013645848E+03  0.00000000000E+00 0.  1.
         22   -1    0    0    0    0 -0.00000000000E+00 -0.00000000000E+00 -0.10830365263E+04  0.10830365263E+04  0.00000000000E+00 0. -1.
        -24    2    1    2    0    0  0.35797442083E+02 -0.27678875904E+02 -0.96437577216E+03  0.96890368833E+03  0.81891088082E+02 0.  0.
         25    2    1    2    0    0 -0.83072526224E+02 -0.26916684782E+02 -0.28381333979E+02  0.15517125535E+03  0.12508823220E+03 0.  0.
         24    2    1    2    0    0  0.47275084141E+02  0.54595560686E+02  0.89857038347E+02  0.13909804107E+03  0.77835524424E+02 0.  0.
        -13    1    5    5    0    0 -0.16751557158E+01  0.48151452485E+02  0.17007988655E+02  0.51094424365E+02  0.00000000000E+00 0.  1.
         14    1    5    5    0    0  0.48950239856E+02  0.64441082011E+01  0.72849049692E+02  0.88003616707E+02  0.00000000000E+00 0. -1.
         11    1    3    3    0    0  0.33977095598E+02 -0.10250650028E+02 -0.92640565156E+03  0.92708519031E+03  0.00000000000E+00 0. -1.
        -12    1    3    3    0    0  0.18203464852E+01 -0.17428225876E+02 -0.37970120593E+02  0.41818498017E+02  0.00000000000E+00 0.  1.
          5    1    4    4  501    0 -0.28700371638E+02  0.40999334814E+02 -0.43895585406E+02  0.66700461808E+02  0.41800000000E+01 0. -1.
         -5    1    4    4    0  501 -0.54372154586E+02 -0.67916019596E+02  0.15514251427E+02  0.88470793539E+02  0.41800000000E+01 0. -1.
</event>
<event>
11    1  0.8453735E-009  0.1545323E+03  0.7561462E-02  0.1092336E+00
         22   -1    0    0    0    0  0.00000000000E+00  0.00000000000E+00  0.14401840171E+04  0.14401840171E+04  0.00000000000E+00 0.  1.
         22   -1    0    0    0    0 -0.00000000000E+00 -0.00000000000E+00 -0.52874325776E+03  0.52874325776E+03  0.00000000000E+00 0. -1.
        -24    2    1    2    0    0 -0.61367501638E+02  0.60263362850E+02 -0.40063756284E+03  0.41782650841E+03  0.81675523937E+02 0.  0.
         25    2    1    2    0    0  0.84029592542E+02 -0.97327688667E+02 -0.49844108325E+02  0.18618665756E+03  0.12508950761E+03 0.  0.
         24    2    1    2    0    0 -0.22662090904E+02  0.37064325817E+02  0.13619224305E+04  0.13649141089E+04  0.79186383357E+02 0.  0.
        -13    1    5    5    0    0 -0.44904579114E+02  0.53762480087E+01  0.97786638499E+03  0.97891163654E+03  0.00000000000E+00 0.  1.
         14    1    5    5    0    0  0.22242488210E+02  0.31688077808E+02  0.38405604553E+03  0.38600247236E+03  0.00000000000E+00 0. -1.
         11    1    3    3    0    0 -0.49748089964E+02 -0.53556215003E+01 -0.20995087941E+03  0.21583078302E+03  0.00000000000E+00 0. -1.
        -12    1    3    3    0    0 -0.11619411674E+02  0.65618984350E+02 -0.19068668343E+03  0.20199572538E+03  0.00000000000E+00 0.  1.
          5    1    4    4  501    0 -0.13715232822E+02 -0.66433939512E+02 -0.48653766443E+02  0.83583714440E+02  0.41800000000E+01 0.  1.
         -5    1    4    4    0  501  0.97744825364E+02 -0.30893749154E+02 -0.11903418814E+01  0.10260294312E+03  0.41800000000E+01 0.  1.
</event>
<event>
11    1  0.8453735E-009  0.2139243E+03  0.7561462E-02  0.1045092E+00
         22   -1    0    0    0    0  0.00000000000E+00  0.00000000000E+00  0.17387902761E+04  0.17387902761E+04  0.00000000000E+00 0.  1.
         22   -1    0    0    0    0 -0.00000000000E+00 -0.00000000000E+00 -0.91662357890E+03  0.91662357890E+03  0.00000000000E+00 0.  1.
         24    2    1    2    0    0 -0.14935670578E+03 -0.88372204792E+02 -0.88584016485E+03  0.90618596230E+03  0.79643759695E+02 0.  0.
         25    2    1    2    0    0  0.15304658066E+03  0.81829740153E+02  0.58021548244E+03  0.61839857549E+03  0.12508968733E+03 0.  0.
        -24    2    1    2    0    0 -0.36898748809E+01  0.65424646388E+01  0.11277913797E+04  0.11308293173E+04  0.82493210266E+02 0.  0.
        -11    1    3    3    0    0 -0.55202304174E+02 -0.78542871175E+02 -0.42157227885E+03  0.43236496539E+03  0.00000000000E+00 0.  1.
         12    1    3    3    0    0 -0.94154401604E+02 -0.98293336165E+01 -0.46426788600E+03  0.47382099691E+03  0.00000000000E+00 0. -1.
         13    1    5    5    0    0  0.35939891769E+02 -0.13265675736E+02  0.48211598679E+03  0.48363568798E+03  0.00000000000E+00 0. -1.
        -14    1    5    5    0    0 -0.39629766650E+02  0.19808140374E+02  0.64567539286E+03  0.64719362928E+03  0.00000000000E+00 0.  1.
          5    1    4    4  501    0  0.92798506892E+02  0.62689380972E+02  0.17194243276E+03  0.20523935771E+03  0.41800000000E+01 0.  1.
         -5    1    4    4    0  501  0.60248073767E+02  0.19140359181E+02  0.40827304968E+03  0.41315921778E+03  0.41800000000E+01 0.  1.
</event>
<event>
11    1  0.8453735E-009  0.1318956E+03  0.7561462E-02  0.1116962E+00
         22   -1    0    0    0    0  0.00000000000E+00  0.00000000000E+00  0.27899881364E+03  0.27899881364E+03  0.00000000000E+00 0.  1.
         22   -1    0    0    0    0 -0.00000000000E+00 -0.00000000000E+00 -0.10934679604E+04  0.10934679604E+04  0.00000000000E+00 0.  1.
         24    2    1    2    0    0  0.35775261672E+02  0.18638976157E+02 -0.91603725049E+03  0.92046407595E+03  0.80638638636E+02 0.  0.
         25    2    1    2    0    0 -0.58461817698E+02 -0.19200875486E+02 -0.14057821874E+03  0.19798358871E+03  0.12509519602E+03 0.  0.
        -24    2    1    2    0    0  0.22686556026E+02  0.56189932961E+00  0.24214632249E+03  0.25401910937E+03  0.73320330564E+02 0.  0.
        -13    1    3    3    0    0  0.33706740144E+02  0.48711394883E+02 -0.66190700470E+03  0.66455235098E+03  0.00000000000E+00 0.  1.
         14    1    3    3    0    0  0.20685215284E+01 -0.30072418726E+02 -0.25413024580E+03  0.25591172497E+03  0.00000000000E+00 0. -1.
         11    1    5    5    0    0  0.79381610684E+01  0.24887766580E+02  0.29194915539E+02  0.39175992901E+02  0.00000000000E+00 0. -1.
        -12    1    5    5    0    0  0.14748394958E+02 -0.24325867250E+02  0.21295140695E+03  0.21484311646E+03  0.00000000000E+00 0.  1.
          5    1    4    4  501    0 -0.44282933912E+02  0.38926006367E+02 -0.12138372389E+03  0.13500997382E+03  0.41800000000E+01 0.  1.
         -5    1    4    4    0  501 -0.14178883786E+02 -0.58126881853E+02 -0.19194494850E+02  0.62973614887E+02  0.41800000000E+01 0.  1.
</event>
<event>
11    1  0.8453735E-009  0.1716188E+03  0.7561462E-02  0.1076631E+00
         22   -1    0    0    0    0  0.00000000000E+00  0.00000000000E+00  0.45696488637E+02  0.45696488637E+02  0.00000000000E+00 0.  1.
         22   -1    0    0    0    0 -0.00000000000E+00 -0.00000000000E+00 -0.10437453518E+04  0.10437453518E+04  0.00000000000E+00 0. -1.
        -24    2    1    2    0    0 -0.62467331724E+00  0.28453755530E+02 -0.35112550825E+03  0.36125401501E+03  0.80033333046E+02 0.  0.
         25    2    1    2    0    0  0.46342098153E+02 -0.12845038595E+03 -0.47267962854E+03  0.50766120748E+03  0.12508708419E+03 0.  0.
         24    2    1    2    0    0 -0.45717424836E+02  0.99996630416E+02 -0.17424372637E+03  0.22052661795E+03  0.78623813277E+02 0.  0.
        -11    1    5    5    0    0 -0.33857594909E+02  0.94729298909E+02 -0.18009879218E+03  0.20628997007E+03  0.00000000000E+00 0.  1.
         12    1    5    5    0    0 -0.11859829926E+02  0.52673315070E+01  0.58550658122E+01  0.14236647876E+02  0.00000000000E+00 0. -1.
         13    1    3    3    0    0  0.28555270317E+02  0.26523229339E+02 -0.29863236756E+03  0.30116469931E+03  0.00000000000E+00 0. -1.
        -14    1    3    3    0    0 -0.29179943634E+02  0.19305261911E+01 -0.52493140693E+02  0.60089315703E+02  0.00000000000E+00 0.  1.
          5    1    4    4  501    0  0.67488892207E+01 -0.11254581771E+03 -0.43864217986E+03  0.45292001826E+03  0.41800000000E+01 0. -1.
         -5    1    4    4    0  501  0.39593208932E+02 -0.15904568237E+02 -0.34037448683E+02  0.54741189220E+02  0.41800000000E+01 0. -1.
</event>
<event>
11    1  0.8453735E-009  0.1823563E+03  0.7561462E-02  0.1067753E+00
         22   -1    0    0    0    0  0.00000000000E+00  0.00000000000E+00  0.39269633240E+02  0.39269633240E+02  0.00000000000E+00 0. -1.
         22   -1    0    0    0    0 -0.00000000000E+00 -0.00000000000E+00 -0.19729389217E+04  0.19729389217E+04  0.00000000000E+00 0.  1.
         24    2    1    2    0    0 -0.39210529511E+02  0.13546953396E+03 -0.14095513597E+04  0.14188290176E+04  0.79694950996E+02 0.  0.
         25    2    1    2    0    0  0.83271724677E+02 -0.73319861807E+02 -0.32283047570E+03  0.36356154625E+03  0.12508996605E+03 0.  0.
        -24    2    1    2    0    0 -0.44061195166E+02 -0.62149672153E+02 -0.20128745300E+03  0.22981799106E+03  0.80595903187E+02 0.  0.
        -13    1    3    3    0    0 -0.52164359911E+02  0.40255630752E+02 -0.56654371984E+03  0.57036253623E+03  0.00000000000E+00 0.  1.
         14    1    3    3    0    0  0.12953830399E+02  0.95213903208E+02 -0.84300763990E+03  0.84846648138E+03  0.00000000000E+00 0. -1.
         13    1    5    5    0    0 -0.52446990369E+02 -0.69411640289E+01 -0.12057892246E+03  0.13167438285E+03  0.00000000000E+00 0. -1.
        -14    1    5    5    0    0  0.83857952037E+01 -0.55208508124E+02 -0.80708530542E+02  0.98143608212E+02  0.00000000000E+00 0.  1.
          5    1    4    4  501    0 -0.20452891077E+02 -0.51087463840E+02 -0.15933802055E+03  0.16862481106E+03  0.41800000000E+01 0. -1.
         -5    1    4    4    0  501  0.10372461575E+03 -0.22232397968E+02 -0.16349245516E+03  0.19493673519E+03  0.41800000000E+01 0. -1.
</event>
<event>
11    1  0.8453735E-009  0.1368358E+03  0.7561462E-02  0.1111144E+00
         22   -1    0    0    0    0  0.00000000000E+00  0.00000000000E+00  0.14453674068E+04  0.14453674068E+04  0.00000000000E+00 0. -1.
         22   -1    0    0    0    0 -0.00000000000E+00 -0.00000000000E+00 -0.25591434601E+03  0.25591434601E+03  0.00000000000E+00 0.  1.
         24    2    1    2    0    0  0.10397444453E+02 -0.53994256795E+02 -0.23107008318E+03  0.24728300014E+03  0.68789622772E+02 0.  0.
         25    2    1    2    0    0 -0.27389557481E+02  0.72670369995E+02  0.34375067906E+03  0.37395663890E+03  0.12509143812E+03 0.  0.
        -24    2    1    2    0    0  0.16992113028E+02 -0.18676113200E+02  0.10767724649E+04  0.10800421137E+04  0.80090556151E+02 0.  0.
        -11    1    3    3    0    0  0.10652911153E+02 -0.69902181104E+02 -0.20371492535E+03  0.21563759007E+03  0.00000000000E+00 0.  1.
         12    1    3    3    0    0 -0.25546670020E+00  0.15907924309E+02 -0.27355157830E+02  0.31645410078E+02  0.00000000000E+00 0. -1.
         11    1    5    5    0    0  0.40963286862E+02 -0.11775411359E+01  0.88852091469E+03  0.88946545369E+03  0.00000000000E+00 0. -1.
        -12    1    5    5    0    0 -0.23971173835E+02 -0.17498572064E+02  0.18825155019E+03  0.19057666003E+03  0.00000000000E+00 0.  1.
          5    1    4    4  501    0  0.29434582961E+02  0.94332101634E+01  0.22882827070E+03  0.23094421405E+03  0.41800000000E+01 0.  1.
         -5    1    4    4    0  501 -0.56824140441E+02  0.63237159832E+02  0.11492240835E+03  0.14301242485E+03  0.41800000000E+01 0.  1.
</event>
<event>
11    1  0.8453735E-009  0.1431340E+03  0.7561462E-02  0.1104108E+00
         22   -1    0    0    0    0  0.00000000000E+00  0.00000000000E+00  0.75703470021E+03  0.75703470021E+03  0.00000000000E+00 0.  1.
         22   -1    0    0    0    0 -0.00000000000E+00 -0.00000000000E+00 -0.37108732365E+03  0.37108732365E+03  0.00000000000E+00 0.  1.
         24    2    1    2    0    0  0.67203496965E+02 -0.48668055952E+01 -0.30366296926E+03  0.32171524248E+03  0.82155356160E+02 0.  0.
         25    2    1    2    0    0 -0.95963750726E+02  0.19812807945E+02  0.58387535707E+02  0.16928586783E+03  0.12508801664E+03 0.  0.
        -24    2    1    2    0    0  0.28760253761E+02 -0.14946002350E+02  0.63122281012E+03  0.63712091355E+03  0.80189072111E+02 0.  0.
        -13    1    3    3    0    0  0.26061260968E+02  0.17529493658E+02 -0.27926417471E+02  0.42028053297E+02  0.00000000000E+00 0.  1.
         14    1    3    3    0    0  0.41142235997E+02 -0.22396299253E+02 -0.27573655179E+03  0.27968718919E+03  0.00000000000E+00 0. -1.
         13    1    5    5    0    0  0.70460524956E+01 -0.23871750274E+02  0.54434554946E+02  0.59855059010E+02  0.00000000000E+00 0. -1.
        -14    1    5    5    0    0  0.21714201265E+02  0.89257479246E+01  0.57678825517E+03  0.57726585454E+03  0.00000000000E+00 0.  1.
          5    1    4    4  501    0 -0.19487035961E+00  0.11686816105E+02 -0.33821694855E+02  0.36027754412E+02  0.41800000000E+01 0.  1.
         -5    1    4    4    0  501 -0.95768880366E+02  0.81259918400E+01  0.92209230562E+02  0.13325811341E+03  0.41800000000E+01 0.  1.
</event>
<event>
11    1  0.8453735E-009  0.1482773E+03  0.7561462E-02  0.1098652E+00
         22   -1    0    0    0    0  0.00000000000E+00  0.00000000000E+00  0.24235057761E+04  0.24235057761E+04  0.00000000000E+00 0. -1.
         22   -1    0    0    0    0 -0.00000000000E+00 -0.00000000000E+00 -0.51609505025E+02  0.51609505025E+02  0.00000000000E+00 0.  1.
         24    2    1    2    0    0  0.28090608105E+02 -0.76054883300E+02  0.28578091100E+02  0.11735602480E+03  0.79889309224E+02 0.  0.
         25    2    1    2    0    0 -0.33723303677E+02  0.54960245990E+02  0.80970631594E+03  0.82184499261E+03  0.12508790489E+03 0.  0.
        -24    2    1    2    0    0  0.56326955722E+01  0.21094637310E+02  0.15336118640E+04  0.15359142637E+04  0.81182294896E+02 0.  0.
        -13    1    3    3    0    0  0.39994077777E+02 -0.58101534775E+02 -0.11871791726E+02  0.71527994794E+02  0.00000000000E+00 0.  1.
         14    1    3    3    0    0 -0.11903469672E+02 -0.17953348525E+02  0.40449882827E+02  0.45828030006E+02  0.00000000000E+00 0. -1.
         11    1    5    5    0    0  0.67070737450E+01  0.30790778352E+02  0.15104895092E+04  0.15108181937E+04  0.00000000000E+00 0. -1.
        -12    1    5    5    0    0 -0.10743781728E+01 -0.96961410418E+01  0.23122354812E+02  0.25096070043E+02  0.00000000000E+00 0.  1.
          5    1    4    4  501    0 -0.34750871446E+02  0.87952430285E+02  0.71946123645E+03  0.72566190214E+03  0.41800000000E+01 0. -1.
         -5    1    4    4    0  501  0.10275677690E+01 -0.32992184295E+02  0.90245079488E+02  0.96183090467E+02  0.41800000000E+01 0. -1.
</event>
<event>
11    1  0.8453735E-009  0.1553883E+03  0.7561462E-02  0.1091497E+00
         22   -1    0    0    0    0  0.00000000000E+00  0.00000000000E+00  0.21196661330E+04  0.21196661330E+04  0.00000000000E+00 0.  1.
         22   -1    0    0    0    0 -0.00000000000E+00 -0.00000000000E+00 -0.32571874623E+02  0.32571874623E+02  0.00000000000E+00 0.  1.
        -24    2    1    2    0    0  0.52576279601E+02 -0.84634469042E+02  0.14806846088E+03  0.19879240616E+03  0.87560796668E+02 0.  0.
         25    2    1    2    0    0 -0.49692818658E+01  0.53751569960E+02  0.10065531849E+04  0.10157316342E+04  0.12509002273E+03 0.  0.
         24    2    1    2    0    0 -0.47606997736E+02  0.30882899083E+02  0.93247261268E+03  0.93771396728E+03  0.81130335497E+02 0.  0.
        -11    1    5    5    0    0 -0.47743979236E+02  0.11057975340E+02  0.88381163839E+03  0.88516935020E+03  0.00000000000E+00 0.  1.
         12    1    5    5    0    0  0.13698150016E+00  0.19824923742E+02  0.48660974288E+02  0.52544617079E+02  0.00000000000E+00 0. -1.
         13    1    3    3    0    0  0.15869740405E+01  0.17561225526E+01  0.74141440017E+02  0.74179212592E+02  0.00000000000E+00 0. -1.
        -14    1    3    3    0    0  0.50989305561E+02 -0.86390591595E+02  0.73927020862E+02  0.12461319357E+03  0.00000000000E+00 0.  1.
          5    1    4    4  501    0 -0.35101323699E+02  0.75551104105E+01  0.82842057524E+03  0.82920884251E+03  0.41800000000E+01 0. -1.
         -5    1    4    4    0  501  0.30132041833E+02  0.46196459549E+02  0.17813260962E+03  0.18652279171E+03  0.41800000000E+01 0. -1.
</event>
<event>
11    1  0.8453735E-009  0.1926611E+03  0.7561462E-02  0.1059838E+00
         22   -1    0    0    0    0  0.00000000000E+00  0.00000000000E+00  0.56860623745E+03  0.56860623745E+03  0.00000000000E+00 0. -1.
         22   -1    0    0    0    0 -0.00000000000E+00 -0.00000000000E+00 -0.34225444644E+03  0.34225444644E+03  0.00000000000E+00 0.  1.
        -24    2    1    2    0    0  0.12218549034E+03  0.74476573992E+02 -0.24570681446E+03  0.29546854465E+03  0.80335347672E+02 0.  0.
         25    2    1    2    0    0 -0.13821283190E+03 -0.98454090234E+02  0.97762491568E+02  0.23238041880E+03  0.12508860658E+03 0.  0.
         24    2    1    2    0    0  0.16027341564E+02  0.23977516242E+02  0.37429611389E+03  0.38301172044E+03  0.75951301208E+02 0.  0.
        -13    1    5    5    0    0  0.31096478404E+02  0.11830818452E+02  0.64171883023E+02  0.72284090955E+02  0.00000000000E+00 0.  1.
         14    1    5    5    0    0 -0.15069136839E+02  0.12146697790E+02  0.31012423087E+03  0.31072762948E+03  0.00000000000E+00 0. -1.
         13    1    3    3    0    0 -0.92763172562E+01  0.14261277426E+02 -0.12653946532E+02  0.21202746485E+02  0.00000000000E+00 0. -1.
        -14    1    3    3    0    0  0.13146180759E+03  0.60215296566E+02 -0.23305286792E+03  0.27426579817E+03  0.00000000000E+00 0.  1.
          5    1    4    4  501    0  0.11447234935E+02  0.62972904624E+00  0.42970431335E+02  0.44669521101E+02  0.41800000000E+01 0.  1.
         -5    1    4    4    0  501 -0.14966006684E+03 -0.99083819280E+02  0.54792060233E+02  0.18771089770E+03  0.41800000000E+01 0.  1.
</event>
<event>
11    1  0.8453735E-009  0.2644709E+03  0.7561462E-02  0.1016461E+00
         22   -1    0    0    0    0  0.00000000000E+00  0.00000000000E+00  0.58874664257E+03  0.58874664257E+03  0.00000000000E+00 0.  1.
         22   -1    0    0    0    0 -0.00000000000E+00 -0.00000000000E+00 -0.15937983358E+04  0.15937983358E+04  0.00000000000E+00 0. -1.
        -24    2    1    2    0    0  0.86028305039E+02  0.21696668468E+03 -0.14695148835E+04  0.14901762834E+04  0.81706493859E+02 0.  0.
         25    2    1    2    0    0 -0.98485201623E+02 -0.20554283985E+03  0.43549018368E+02  0.26360836600E+03  0.12508261138E+03 0.  0.
         24    2    1    2    0    0  0.12456896584E+02 -0.11423844830E+02  0.42091417186E+03  0.42876032905E+03  0.79881169193E+02 0.  0.
        -13    1    5    5    0    0 -0.28235857566E+02 -0.22435178452E+02  0.25672225619E+03  0.25924297041E+03  0.00000000000E+00 0.  1.
         14    1    5    5    0    0  0.40692754150E+02  0.11011333622E+02  0.16419191567E+03  0.16951735864E+03  0.00000000000E+00 0. -1.
         13    1    3    3    0    0  0.78883941383E+02  0.19204768812E+03 -0.14107797366E+04  0.14259749142E+04  0.00000000000E+00 0. -1.
        -14    1    3    3    0    0  0.71443636561E+01  0.24918996557E+02 -0.58735146929E+02  0.64201369193E+02  0.00000000000E+00 0.  1.
          5    1    4    4  501    0 -0.98948154723E+02 -0.21507014754E+03  0.59887310346E+02  0.24423322466E+03  0.41800000000E+01 0.  1.
         -5    1    4    4    0  501  0.46295309980E+00  0.95273076868E+01 -0.16338291977E+02  0.19375141343E+02  0.41800000000E+01 0.  1.
</event>
<event>
11    1  0.8453735E-009  0.1707643E+03  0.7561462E-02  0.1077368E+00
         22   -1    0    0    0    0  0.00000000000E+00  0.00000000000E+00  0.37112406754E+03  0.37112406754E+03  0.00000000000E+00 0.  1.
         22   -1    0    0    0    0 -0.00000000000E+00 -0.00000000000E+00 -0.94394141838E+03  0.94394141838E+03  0.00000000000E+00 0. -1.
         24    2    1    2    0    0 -0.15699617344E+02  0.11783049470E+03 -0.83543750495E+03  0.84859840020E+03  0.89626540019E+02 0.  0.
         25    2    1    2    0    0  0.12948967230E+02 -0.90490593919E+02 -0.33733115228E+02  0.15855590411E+03  0.12508328556E+03 0.  0.
        -24    2    1    2    0    0  0.27506501140E+01 -0.27339900782E+02  0.29635326934E+03  0.30791118162E+03  0.78924009462E+02 0.  0.
        -11    1    3    3    0    0 -0.14628171604E+02  0.36523799746E+02 -0.83813202059E+02  0.92588466840E+02  0.00000000000E+00 0.  1.
         12    1    3    3    0    0 -0.10714457394E+01  0.81306694955E+02 -0.75162430289E+03  0.75600993336E+03  0.00000000000E+00 0. -1.
         11    1    5    5    0    0 -0.16397304195E+02  0.88156296778E+01  0.15879953439E+02  0.24469569524E+02  0.00000000000E+00 0. -1.
        -12    1    5    5    0    0  0.19147954309E+02 -0.36155530459E+02  0.28047331590E+03  0.28344161210E+03  0.00000000000E+00 0.  1.
          5    1    4    4  501    0  0.13249609539E+02 -0.11920550248E+03 -0.43926266305E+02  0.12779864337E+03  0.41800000000E+01 0.  1.
         -5    1    4    4    0  501 -0.30064230948E+00  0.28714908563E+02  0.10193151077E+02  0.30757260744E+02  0.41800000000E+01 0.  1.
</event>
<event>
11    1  0.8453735E-009  0.2001418E+03  0.7561462E-02  0.1054423E+00
         22   -1    0    0    0    0  0.00000000000E+00  0.00000000000E+00  0.58721194506E+03  0.58721194506E+03  0.00000000000E+00 0.  1.
         22   -1    0    0    0    0 -0.00000000000E+00 -0.00000000000E+00 -0.36987664827E+03  0.36987664827E+03  0.00000000000E+00 0.  1.
        -24    2    1    2    0    0  0.97364041724E+01  0.17320545189E+02 -0.28565314533E+03  0.29729687739E+03  0.79955706564E+02 0.  0.
         25    2    1    2    0    0 -0.15294953791E+03  0.43725039208E+02  0.10834475868E+03  0.22954471554E+03  0.12508696774E+03 0.  0.
         24    2    1    2    0    0  0.14321313373E+03 -0.61045584398E+02  0.39464368344E+03  0.43024700040E+03  0.71639928980E+02 0.  0.
        -11    1    5    5    0    0  0.11325195307E+03 -0.15726284055E+02  0.30100108790E+03  0.32198598696E+03  0.00000000000E+00 0.  1.
         12    1    5    5    0    0  0.29961180666E+02 -0.45319300342E+02  0.93642595536E+02  0.10826101343E+03  0.00000000000E+00 0. -1.
         11    1    3    3    0    0  0.99029772350E+01 -0.28863230047E+02 -0.64251180715E+02  0.71129243143E+02  0.00000000000E+00 0. -1.
        -12    1    3    3    0    0 -0.16657306264E+00  0.46183775236E+02 -0.22140196462E+03  0.22616763424E+03  0.00000000000E+00 0.  1.
          5    1    4    4  501    0 -0.16961528198E+03  0.26393082831E+02  0.11179913127E+03  0.20489620996E+03  0.41800000000E+01 0. -1.
         -5    1    4    4    0  501  0.16665744075E+02  0.17331956377E+02 -0.34543725884E+01  0.24648505582E+02  0.41800000000E+01 0. -1.
</event>
<event>
11    1  0.8453735E-009  0.1491084E+03  0.7561462E-02  0.1097793E+00
         22   -1    0    0    0    0  0.00000000000E+00  0.00000000000E+00  0.60761028358E+03  0.60761028358E+03  0.00000000000E+00 0. -1.
         22   -1    0    0    0    0 -0.00000000000E+00 -0.00000000000E+00 -0.43603748123E+03  0.43603748123E+03  0.00000000000E+00 0.  1.
         24    2    1    2    0    0  0.58428135037E+02  0.97668225356E+01 -0.29870168511E+03  0.31594432804E+03  0.84195510266E+02 0.  0.
         25    2    1    2    0    0  0.94212222867E+01  0.39068964001E+02 -0.87846762040E+02  0.15801598711E+03  0.12504741182E+03 0.  0.
        -24    2    1    2    0    0 -0.67849357324E+02 -0.48835786536E+02  0.55812124950E+03  0.56968744966E+03  0.77820253279E+02 0.  0.
        -13    1    3    3    0    0 -0.18796344215E+02 -0.88076766076E+01 -0.36649855195E+02  0.42119943126E+02  0.00000000000E+00 0.  1.
         14    1    3    3    0    0  0.77224479252E+02  0.18574499143E+02 -0.26205182991E+03  0.27382438492E+03  0.00000000000E+00 0. -1.
         11    1    5    5    0    0 -0.84075728523E+02 -0.50156351697E+02  0.48317878701E+03  0.49299708717E+03  0.00000000000E+00 0. -1.
        -12    1    5    5    0    0  0.16226371199E+02  0.13205651604E+01  0.74942462491E+02  0.76690362491E+02  0.00000000000E+00 0.  1.
          5    1    4    4  501    0  0.19474045668E+02 -0.10151581121E+02 -0.10298366255E+03  0.10538216265E+03  0.41800000000E+01 0.  1.
         -5    1    4    4    0  501 -0.10052823381E+02  0.49220545122E+02  0.15136900506E+02  0.52633824457E+02  0.41800000000E+01 0.  1.
</event>
<event>
11    1  0.8453735E-009  0.1390760E+03  0.7561462E-02  0.1108595E+00
         22   -1    0    0    0    0  0.00000000000E+00  0.00000000000E+00  0.52830556745E+02  0.52830556745E+02  0.00000000000E+00 0. -1.
         22   -1    0    0    0    0 -0.00000000000E+00 -0.00000000000E+00 -0.14652077740E+04  0.14652077740E+04  0.00000000000E+00 0. -1.
        -24    2    1    2    0    0 -0.46012563967E+02  0.36858228979E+02 -0.11227284432E+04  0.11271683742E+04  0.80707506349E+02 0.  0.
         25    2    1    2    0    0  0.83146012478E+02 -0.17696783669E+02 -0.26315316146E+03  0.30352382241E+03  0.12510271316E+03 0.  0.
         24    2    1    2    0    0 -0.37133448511E+02 -0.19161445310E+02 -0.26495612578E+02  0.87346134100E+02  0.71981078567E+02 0.  0.
        -13    1    5    5    0    0 -0.27828412897E+01 -0.20446504361E+02 -0.44127059889E+02  0.48713459749E+02  0.00000000000E+00 0.  1.
         14    1    5    5    0    0 -0.34350607221E+02  0.12850590512E+01  0.17631447312E+02  0.38632674351E+02  0.00000000000E+00 0. -1.
         11    1    3    3    0    0  0.29354720625E+01  0.49003797338E+02 -0.60565111092E+03  0.60763743903E+03  0.00000000000E+00 0. -1.
        -12    1    3    3    0    0 -0.48948036029E+02 -0.12145568358E+02 -0.51707733226E+03  0.51953093517E+03  0.00000000000E+00 0.  1.
          5    1    4    4  501    0  0.57554737663E+02 -0.33914597707E+02 -0.26457097344E+03  0.27290661435E+03  0.41800000000E+01 0.  1.
         -5    1    4    4    0  501  0.25591274814E+02  0.16217814038E+02  0.14178119825E+01  0.30617208063E+02  0.41800000000E+01 0.  1.
</event>
<event>
11    1  0.8453735E-009  0.1689636E+03  0.7561462E-02  0.1078937E+00
         22   -1    0    0    0    0  0.00000000000E+00  0.00000000000E+00  0.13877853103E+03  0.13877853103E+03  0.00000000000E+00 0. -1.
         22   -1    0    0    0    0 -0.00000000000E+00 -0.00000000000E+00 -0.12326205584E+04  0.12326205584E+04  0.00000000000E+00 0.  1.
         24    2    1    2    0    0  0.92614346287E+02  0.45549402760E+02 -0.84313202378E+03  0.85320595635E+03  0.80228605832E+02 0.  0.
         25    2    1    2    0    0 -0.16262557452E+03 -0.11823546809E+03 -0.29806629949E+03  0.38068006051E+03  0.12508831352E+03 0.  0.
        -24    2    1    2    0    0  0.70011228233E+02  0.72686065334E+02  0.47356295890E+02  0.13751307257E+03  0.80513292045E+02 0.  0.
        -13    1    3    3    0    0  0.54983948845E+02  0.64010782366E+02 -0.44979529422E+03  0.45764224192E+03  0.00000000000E+00 0.  1.
         14    1    3    3    0    0  0.37630397442E+02 -0.18461379606E+02 -0.39333672956E+03  0.39556371443E+03  0.00000000000E+00 0. -1.
         11    1    5    5    0    0  0.32366186226E+02  0.20181135685E+02  0.60561049743E+02  0.71571565544E+02  0.00000000000E+00 0. -1.
        -12    1    5    5    0    0  0.37645042007E+02  0.52504929649E+02 -0.13204753853E+02  0.65941507031E+02  0.00000000000E+00 0.  1.
          5    1    4    4  501    0 -0.18416329345E+02 -0.28877125115E+02  0.34619701907E+01  0.34677185281E+02  0.41800000000E+01 0.  1.
         -5    1    4    4    0  501 -0.14420924517E+03 -0.89358342980E+02 -0.30152826968E+03  0.34600287523E+03  0.41800000000E+01 0.  1.
</event>
<event>
11    1  0.8453735E-009  0.1487039E+03  0.7561462E-02  0.1098211E+00
         22   -1    0    0    0    0  0.00000000000E+00  0.00000000000E+00  0.29038235018E+03  0.29038235018E+03  0.00000000000E+00 0. -1.
         22   -1    0    0    0    0 -0.00000000000E+00 -0.00000000000E+00 -0.20056986056E+04  0.20056986056E+04  0.00000000000E+00 0.  1.
         24    2    1    2    0    0  0.76310789173E+02 -0.10242469720E+00 -0.15712316376E+04  0.15751613875E+04  0.80877626788E+02 0.  0.
         25    2    1    2    0    0 -0.11555372605E+03 -0.57840829014E+01 -0.40812094440E+03  0.44227095509E+03  0.12511903630E+03 0.  0.
        -24    2    1    2    0    0  0.39242936876E+02  0.58865075986E+01  0.26403632658E+03  0.27864861323E+03  0.79719563712E+02 0.  0.
        -13    1    3    3    0    0  0.32535493237E+02  0.40169524545E+02 -0.74590818275E+03  0.74769724228E+03  0.00000000000E+00 0.  1.
         14    1    3    3    0    0  0.43775295936E+02 -0.40271949242E+02 -0.82532345488E+03  0.82746414521E+03  0.00000000000E+00 0. -1.
         13    1    5    5    0    0  0.44732790237E+02 -0.28533256820E+02  0.18038303066E+03  0.18802448515E+03  0.00000000000E+00 0. -1.
        -14    1    5    5    0    0 -0.54898533608E+01  0.34419764418E+02  0.83653295917E+02  0.90624128080E+02  0.00000000000E+00 0.  1.
          5    1    4    4  501    0 -0.22750677176E+02 -0.58876615324E+02 -0.16092512824E+03  0.17291159141E+03  0.41800000000E+01 0. -1.
         -5    1    4    4    0  501 -0.92803048873E+02  0.53092532422E+02 -0.24719581616E+03  0.26935936369E+03  0.41800000000E+01 0. -1.
</event>
<event>
11    1  0.8453735E-009  0.1703694E+03  0.7561462E-02  0.1077711E+00
         22   -1    0    0    0    0  0.00000000000E+00  0.00000000000E+00  0.13662032758E+04  0.13662032758E+04  0.00000000000E+00 0. -1.
         22   -1    0    0    0    0 -0.00000000000E+00 -0.00000000000E+00 -0.16449787924E+04  0.16449787924E+04  0.00000000000E+00 0. -1.
        -24    2    1    2    0    0 -0.56692315327E+02  0.10191830028E+03 -0.15237686459E+04  0.15303260736E+04  0.80160131954E+02 0.  0.
         25    2    1    2    0    0  0.68271375493E+02 -0.75605391863E+02 -0.60693228684E+02  0.17235817682E+03  0.12508603886E+03 0.  0.
         24    2    1    2    0    0 -0.11579060167E+02 -0.26312908413E+02  0.13056863580E+04  0.13084978178E+04  0.80766515009E+02 0.  0.
        -11    1    5    5    0    0  0.25171061070E+01  0.11284132339E+01  0.33133133557E+00  0.27782944470E+01  0.00000000000E+00 0.  1.
         12    1    5    5    0    0 -0.14096166274E+02 -0.27441321647E+02  0.13053550266E+04  0.13057195233E+04  0.00000000000E+00 0. -1.
         11    1    3    3    0    0 -0.74262882909E+02  0.95132836162E+02 -0.12136047284E+04  0.12195907793E+04  0.00000000000E+00 0. -1.
        -12    1    3    3    0    0  0.17570567583E+02  0.67854641142E+01 -0.31016391750E+03  0.31073529424E+03  0.00000000000E+00 0.  1.
          5    1    4    4  501    0  0.69076819439E+02 -0.27626861559E+01  0.10927183679E+02  0.70115013811E+02  0.41800000000E+01 0.  1.
         -5    1    4    4    0  501 -0.80544394580E+00 -0.72842705707E+02 -0.71620412363E+02  0.10224316301E+03  0.41800000000E+01 0.  1.
</event>
<event>
11    1  0.8453735E-009  0.1499632E+03  0.7561462E-02  0.1096916E+00
         22   -1    0    0    0    0  0.00000000000E+00  0.00000000000E+00  0.11825548052E+04  0.11825548052E+04  0.00000000000E+00 0. -1.
         22   -1    0    0    0    0 -0.00000000000E+00 -0.00000000000E+00 -0.33533927004E+03  0.33533927004E+03  0.00000000000E+00 0.  1.
        -24    2    1    2    0    0 -0.53304162328E+02  0.64677308220E+01 -0.26836323927E+03  0.28560663993E+03  0.81664920958E+02 0.  0.
         25    2    1    2    0    0  0.13007349236E+03  0.16289771374E+02  0.93366202719E+02  0.20383638026E+03  0.12509017564E+03 0.  0.
         24    2    1    2    0    0 -0.76769330035E+02 -0.22757502196E+02  0.10222125717E+04  0.10284510550E+04  0.79884898057E+02 0.  0.
        -11    1    5    5    0    0 -0.58932879211E+02  0.63197190333E+01  0.32209760312E+03  0.32750555573E+03  0.00000000000E+00 0.  1.
         12    1    5    5    0    0 -0.17836450824E+02 -0.29077221229E+02  0.70011496857E+03  0.70094549929E+03  0.00000000000E+00 0. -1.
         11    1    3    3    0    0  0.21517235391E+02  0.28515703216E+01 -0.80075563622E+02  0.82965165953E+02  0.00000000000E+00 0. -1.
        -12    1    3    3    0    0 -0.74821397719E+02  0.36161605004E+01 -0.18828767565E+03  0.20264147397E+03  0.00000000000E+00 0.  1.
          5    1    4    4  501    0  0.10174477529E+03 -0.27525769973E+01 -0.25934835299E+01  0.10190080734E+03  0.41800000000E+01 0.  1.
         -5    1    4    4    0  501  0.28328717069E+02  0.19042348371E+02  0.95959686249E+02  0.10193557292E+03  0.41800000000E+01 0.  1.
</event>
<event>
11    1  0.8453735E-009  0.1452544E+03  0.7561462E-02  0.1101829E+00
         22   -1    0    0    0    0  0.00000000000E+00  0.00000000000E+00  0.60696137033E+03  0.60696137033E+03  0.00000000000E+00 0.  1.
         22   -1    0    0    0    0 -0.00000000000E+00 -0.00000000000E+00 -0.17322816718E+03  0.17322816718E+03  0.00000000000E+00 0.  1.
         24    2    1    2    0    0  0.77091154429E+02 -0.13343554879E+02 -0.10236556584E+03  0.15242708167E+03  0.81450657518E+02 0.  0.
         25    2    1    2    0    0 -0.34086724178E+02 -0.55812180171E+02  0.90340550917E+02  0.16759089159E+03  0.12509351535E+03 0.  0.
        -24    2    1    2    0    0 -0.43004430251E+02  0.69155735050E+02  0.44575821808E+03  0.46017156425E+03  0.80159733356E+02 0.  0.
        -11    1    3    3    0    0  0.65972484143E+02 -0.34053986060E+02 -0.10519007755E+03  0.12875167978E+03  0.00000000000E+00 0.  1.
         12    1    3    3    0    0  0.11118670286E+02  0.20710431181E+02  0.28245117094E+01  0.23675401898E+02  0.00000000000E+00 0. -1.
         11    1    5    5    0    0  0.13973306088E+01  0.64677708607E+01 -0.11438319734E+01  0.67151280196E+01  0.00000000000E+00 0. -1.
        -12    1    5    5    0    0 -0.44401760860E+02  0.62687964189E+02  0.44690205005E+03  0.45345643623E+03  0.00000000000E+00 0.  1.
          5    1    4    4  501    0 -0.42661267922E+02 -0.78403486831E+02  0.17925925140E+02  0.91136719933E+02  0.41800000000E+01 0.  1.
         -5    1    4    4    0  501  0.85745437444E+01  0.22591306660E+02  0.72414625777E+02  0.76454171655E+02  0.41800000000E+01 0.  1.
</event>
<event>
11    1  0.8601200E-009  0.1628731E+03  0.7561462E-02  0.1084406E+00
         22   -1    0    0    0    0  0.00000000000E+00  0.00000000000E+00  0.15411667656E+04  0.15411667656E+04  0.00000000000E+00 0.  1.
         22   -1    0    0    0    0 -0.00000000000E+00 -0.00000000000E+00 -0.14397909757E+04  0.14397909757E+04  0.00000000000E+00 0.  1.
        -24    2    1    2    0    0  0.12752054797E+02 -0.75239741019E+02 -0.12849755776E+04  0.12898037286E+04  0.81288311918E+02 0.  0.
         25    2    1    2    0    0 -0.11636212161E+03  0.83614587008E+02 -0.89029682766E+02  0.21001055651E+03  0.12508639785E+03 0.  0.
         24    2    1    2    0    0  0.10361006681E+03 -0.83748459881E+01  0.14753810503E+04  0.14811434562E+04  0.78939914503E+02 0.  0.
        -11    1    5    5    0    0  0.69891262027E+02 -0.27609853780E+02  0.12636997321E+04  0.12659321093E+04  0.00000000000E+00 0.  1.
         12    1    5    5    0    0  0.33718804781E+02  0.19235007792E+02  0.21168131824E+03  0.21521134685E+03  0.00000000000E+00 0. -1.
         13    1    3    3    0    0  0.43360987698E+02 -0.22387740013E+02 -0.46386832508E+03  0.46642813934E+03  0.00000000000E+00 0. -1.
        -14    1    3    3    0    0 -0.30608932901E+02 -0.52852001007E+02 -0.82110725256E+03  0.82337558926E+03  0.00000000000E+00 0.  1.
          5    1    4    4  501    0 -0.13751042848E+03  0.43066860974E+02 -0.70763251730E+02  0.16058886216E+03  0.41800000000E+01 0. -1.
         -5    1    4    4    0  501  0.21148306870E+02  0.40547726033E+02 -0.18266431037E+02  0.49421694353E+02  0.41800000000E+01 0. -1.
</event>
<event>
11    1  0.8453735E-009  0.1279194E+03  0.7561462E-02  0.1121852E+00
         22   -1    0    0    0    0  0.00000000000E+00  0.00000000000E+00  0.16864662081E+04  0.16864662081E+04  0.00000000000E+00 0. -1.
         22   -1    0    0    0    0 -0.00000000000E+00 -0.00000000000E+00 -0.54557136342E+02  0.54557136342E+02  0.00000000000E+00 0. -1.
        -24    2    1    2    0    0 -0.62441170425E+01 -0.57344097065E+00 -0.81951952491E+01  0.83981842683E+02  0.83345490839E+02 0.  0.
         25    2    1    2    0    0 -0.19970711175E+02 -0.92978157552E+01  0.59595578337E+03  0.60934109941E+03  0.12509197021E+03 0.  0.
         24    2    1    2    0    0  0.26214828217E+02  0.98712567259E+01  0.10441484836E+04  0.10477004023E+04  0.81519434988E+02 0.  0.
        -11    1    5    5    0    0 -0.27809413725E+02 -0.52810770031E+01  0.25684619518E+03  0.25840127949E+03  0.00000000000E+00 0.  1.
         12    1    5    5    0    0  0.54024241942E+02  0.15152333729E+02  0.78730228844E+03  0.78929912284E+03  0.00000000000E+00 0. -1.
         13    1    3    3    0    0  0.12048722234E+02  0.19040805156E+02 -0.37817547987E+02  0.44021482304E+02  0.00000000000E+00 0. -1.
        -14    1    3    3    0    0 -0.18292839276E+02 -0.19614246126E+02  0.29622352738E+02  0.39960360379E+02  0.00000000000E+00 0.  1.
          5    1    4    4  501    0 -0.58047130114E+02  0.32013062922E+02  0.24285900522E+03  0.25177822449E+03  0.41800000000E+01 0. -1.
         -5    1    4    4    0  501  0.38076418939E+02 -0.41310878677E+02  0.35309677815E+03  0.35756287492E+03  0.41800000000E+01 0. -1.
</event>
<event>
11    1  0.8453735E-009  0.1337040E+03  0.7561462E-02  0.1114800E+00
         22   -1    0    0    0    0  0.00000000000E+00  0.00000000000E+00  0.41558484651E+03  0.41558484651E+03  0.00000000000E+00 0. -1.
         22   -1    0    0    0    0 -0.00000000000E+00 -0.00000000000E+00 -0.48066639078E+03  0.48066639078E+03  0.00000000000E+00 0. -1.
         24    2    1    2    0    0  0.16314901452E+02 -0.41457335518E+02 -0.41749029510E+03  0.42763405915E+03  0.81165604567E+02 0.  0.
         25    2    1    2    0    0  0.24636875072E+02  0.10061151849E+02  0.28371589335E+02  0.13099794355E+03  0.12508921513E+03 0.  0.
        -24    2    1    2    0    0 -0.40951776524E+02  0.31396183669E+02  0.32403716150E+03  0.33761923459E+03  0.79522934958E+02 0.  0.
        -11    1    3    3    0    0  0.44162160675E+02 -0.38658298842E+01 -0.16529779556E+03  0.17113913139E+03  0.00000000000E+00 0.  1.
         12    1    3    3    0    0 -0.27847259223E+02 -0.37591505634E+02 -0.25219249954E+03  0.25649492776E+03  0.00000000000E+00 0. -1.
         11    1    5    5    0    0 -0.49587445405E+02  0.12093336338E+02  0.97088080285E+02  0.10968709523E+03  0.00000000000E+00 0. -1.
        -12    1    5    5    0    0  0.86356688803E+01  0.19302847331E+02  0.22694908122E+03  0.22793213937E+03  0.00000000000E+00 0.  1.
          5    1    4    4  501    0  0.15898544800E+02  0.85048485069E+01  0.78124461850E+02  0.80286985958E+02  0.41800000000E+01 0.  1.
         -5    1    4    4    0  501  0.87383302724E+01  0.15563033425E+01 -0.49752872515E+02  0.50710957588E+02  0.41800000000E+01 0.  1.
</event>
<event>
11    1  0.8453735E-009  0.2523189E+03  0.7561462E-02  0.1022671E+00
         22   -1    0    0    0    0  0.00000000000E+00  0.00000000000E+00  0.14347457308E+04  0.14347457308E+04  0.00000000000E+00 0.  1.
         22   -1    0    0    0    0 -0.00000000000E+00 -0.00000000000E+00 -0.79658146560E+02  0.79658146560E+02  0.00000000000E+00 0. -1.
        -24    2    1    2    0    0  0.12476699572E+02 -0.11104543863E+03  0.12093189008E+03  0.18340290181E+03  0.80779606829E+02 0.  0.
         25    2    1    2    0    0  0.78415997205E+01 -0.16236018324E+03  0.40377643668E+03  0.45288548869E+03  0.12509010857E+03 0.  0.
         24    2    1    2    0    0 -0.20318299293E+02  0.27340562187E+03  0.83037925747E+03  0.87811548685E+03  0.79960175410E+02 0.  0.
        -11    1    5    5    0    0 -0.50282992372E+02  0.19898550856E+03  0.60809235918E+03  0.64179430446E+03  0.00000000000E+00 0.  1.
         12    1    5    5    0    0  0.29964693079E+02  0.74420113317E+02  0.22228689828E+03  0.23632118239E+03  0.00000000000E+00 0. -1.
         11    1    3    3    0    0  0.25168979519E+02 -0.11962709682E+03  0.10332343825E+03  0.16006202772E+03  0.00000000000E+00 0. -1.
        -12    1    3    3    0    0 -0.12692279947E+02  0.85816581892E+01  0.17608451833E+02  0.23340874095E+02  0.00000000000E+00 0.  1.
          5    1    4    4  501    0  0.26241419249E+02 -0.10707905859E+03  0.36846832515E+03  0.38463088268E+03  0.41800000000E+01 0. -1.
         -5    1    4    4    0  501 -0.18399819528E+02 -0.55281124653E+02  0.35308111520E+02  0.68254606004E+02  0.41800000000E+01 0. -1.
</event>
<event>
11    1  0.8453735E-009  0.1511650E+03  0.7561462E-02  0.1095694E+00
         22   -1    0    0    0    0  0.00000000000E+00  0.00000000000E+00  0.28382861308E+04  0.28382861308E+04  0.00000000000E+00 0. -1.
         22   -1    0    0    0    0 -0.00000000000E+00 -0.00000000000E+00 -0.55392162398E+03  0.55392162398E+03  0.00000000000E+00 0. -1.
        -24    2    1    2    0    0  0.45930425187E+02  0.71350903668E+02 -0.51370778697E+03  0.52677686359E+03  0.79985112415E+02 0.  0.
         25    2    1    2    0    0  0.92378185000E+01 -0.10659513806E+03  0.17417539937E+03  0.23965057220E+03  0.12508983277E+03 0.  0.
         24    2    1    2    0    0 -0.55168243687E+02  0.35244234391E+02  0.26238968945E+04  0.26257803190E+04  0.74844370905E+02 0.  0.
        -11    1    5    5    0    0 -0.23704563480E+02  0.17530992362E+02  0.26972832846E+03  0.27133487280E+03  0.00000000000E+00 0.  1.
         12    1    5    5    0    0 -0.31463680208E+02  0.17713242029E+02  0.23541685660E+04  0.23544454462E+04  0.00000000000E+00 0. -1.
         11    1    3    3    0    0  0.41700286296E+02  0.77072744287E+02 -0.28987590509E+03  0.30283190410E+03  0.00000000000E+00 0. -1.
        -12    1    3    3    0    0  0.42301388909E+01 -0.57218406188E+01 -0.22383188188E+03  0.22394495949E+03  0.00000000000E+00 0.  1.
          5    1    4    4  501    0  0.43140097712E+02 -0.31683852350E+02  0.14101882161E+03  0.15089305809E+03  0.41800000000E+01 0.  1.
         -5    1    4    4    0  501 -0.33902279212E+02 -0.74911285709E+02  0.33156577754E+02  0.88757514108E+02  0.41800000000E+01 0.  1.
</event>
<event>
11    1  0.8461958E-009  0.1458144E+03  0.7561462E-02  0.1101234E+00
         22   -1    0    0    0    0  0.00000000000E+00  0.00000000000E+00  0.11541144856E+04  0.11541144856E+04  0.00000000000E+00 0. -1.
         22   -1    0    0    0    0 -0.00000000000E+00 -0.00000000000E+00 -0.34575941299E+03  0.34575941299E+03  0.00000000000E+00 0. -1.
         24    2    1    2    0    0  0.48717967035E+02  0.44456941202E+02 -0.22788031864E+03  0.25264976340E+03  0.86905715510E+02 0.  0.
         25    2    1    2    0    0 -0.10265823139E+03 -0.86350107947E+02 -0.21450032486E+02  0.18466962898E+03  0.12509082444E+03 0.  0.
        -24    2    1    2    0    0  0.53940264355E+02  0.41893166745E+02  0.10576854237E+04  0.10625545062E+04  0.75226548077E+02 0.  0.
        -11    1    3    3    0    0 -0.22181277431E+02 -0.46233069156E+01 -0.54052007419E+02  0.58608903259E+02  0.00000000000E+00 0.  1.
         12    1    3    3    0    0  0.70899244466E+02  0.49080248118E+02 -0.17382831122E+03  0.19404086014E+03  0.00000000000E+00 0. -1.
         13    1    5    5    0    0  0.41613324778E+02  0.59003685984E+02  0.95502823972E+03  0.95775364391E+03  0.00000000000E+00 0. -1.
        -14    1    5    5    0    0  0.12326939577E+02 -0.17110519239E+02  0.10265718401E+03  0.10480086229E+03  0.00000000000E+00 0.  1.
          5    1    4    4  501    0 -0.93817023114E+02 -0.99468802387E+02 -0.54924127401E+02  0.14741034104E+03  0.41800000000E+01 0.  1.
         -5    1    4    4    0  501 -0.88412082759E+01  0.13118694440E+02  0.33474094915E+02  0.37259287943E+02  0.41800000000E+01 0.  1.
</event>
<event>
11    1  0.8453735E-009  0.2359785E+03  0.7561462E-02  0.1031646E+00
         22   -1    0    0    0    0  0.00000000000E+00  0.00000000000E+00  0.25130729295E+04  0.25130729295E+04  0.00000000000E+00 0.  1.
         22   -1    0    0    0    0 -0.00000000000E+00 -0.00000000000E+00 -0.27780163034E+03  0.27780163034E+03  0.00000000000E+00 0. -1.
        -24    2    1    2    0    0  0.31300960660E+01  0.41925400861E+02 -0.24713813999E+03  0.26324365927E+03  0.80327001473E+02 0.  0.
         25    2    1    2    0    0 -0.20211174654E+03 -0.33130891840E+02  0.94170574645E+03  0.97180435357E+03  0.12508866716E+03 0.  0.
         24    2    1    2    0    0  0.19898165047E+03 -0.87945090217E+01  0.15407036927E+04  0.15558265470E+04  0.84601034414E+02 0.  0.
        -11    1    5    5    0    0  0.11357698549E+03 -0.18929942037E+02  0.11510271691E+04  0.11567720684E+04  0.00000000000E+00 0.  1.
         12    1    5    5    0    0  0.85404664985E+02  0.10135433015E+02  0.38967652363E+03  0.39905447857E+03  0.00000000000E+00 0. -1.
         13    1    3    3    0    0  0.12066468212E+02  0.58615278904E+02 -0.23016362968E+03  0.23781641450E+03  0.00000000000E+00 0. -1.
        -14    1    3    3    0    0 -0.89363721458E+01 -0.16689878043E+02 -0.16974510311E+02  0.25427244768E+02  0.00000000000E+00 0.  1.
          5    1    4    4  501    0 -0.17592418655E+03  0.89344689177E-01  0.54215759691E+03  0.57000145586E+03  0.41800000000E+01 0. -1.
         -5    1    4    4    0  501 -0.26187559992E+02 -0.33220236529E+02  0.39954814953E+03  0.40180289771E+03  0.41800000000E+01 0. -1.
</event>
<event>
11    1  0.8453735E-009  0.1259322E+03  0.7561462E-02  0.1124370E+00
         22   -1    0    0    0    0  0.00000000000E+00  0.00000000000E+00  0.15746614413E+03  0.15746614413E+03  0.00000000000E+00 0. -1.
         22   -1    0    0    0    0 -0.00000000000E+00 -0.00000000000E+00 -0.10535161911E+04  0.10535161911E+04  0.00000000000E+00 0. -1.
         24    2    1    2    0    0  0.15213615363E+01 -0.52610350636E+01 -0.83269623627E+03  0.83670503202E+03  0.81622886976E+02 0.  0.
         25    2    1    2    0    0 -0.12113968219E+02  0.14696661805E+02 -0.18106471549E+03  0.22089349960E+03  0.12508703719E+03 0.  0.
        -24    2    1    2    0    0  0.10592606683E+02 -0.94356267416E+01  0.11771090482E+03  0.15338380359E+03  0.97311354537E+02 0.  0.
        -13    1    3    3    0    0 -0.82835377383E+01  0.27340101325E+02 -0.12636659753E+03  0.12955545187E+03  0.00000000000E+00 0.  1.
         14    1    3    3    0    0  0.98048992746E+01 -0.32601136388E+02 -0.70632963874E+03  0.70714958015E+03  0.00000000000E+00 0. -1.
         13    1    5    5    0    0  0.12320383963E+02  0.65992631324E+01  0.13145390398E+03  0.13219482216E+03  0.00000000000E+00 0. -1.
        -14    1    5    5    0    0 -0.17277772799E+01 -0.16034889874E+02 -0.13742999167E+02  0.21188981422E+02  0.00000000000E+00 0.  1.
          5    1    4    4  501    0 -0.48055313700E+02  0.51366289004E+02 -0.74588809740E+02  0.10260980343E+03  0.41800000000E+01 0.  1.
         -5    1    4    4    0  501  0.35941345481E+02 -0.36669627199E+02 -0.10647590575E+03  0.11828369617E+03  0.41800000000E+01 0.  1.
</event>
<event>
11    1  0.8453735E-009  0.1360215E+03  0.7561462E-02  0.1112084E+00
         22   -1    0    0    0    0  0.00000000000E+00  0.00000000000E+00  0.30688014564E+03  0.30688014564E+03  0.00000000000E+00 0. -1.
         22   -1    0    0    0    0 -0.00000000000E+00 -0.00000000000E+00 -0.25865157437E+03  0.25865157437E+03  0.00000000000E+00 0.  1.
         24    2    1    2    0    0  0.37965365730E+02 -0.41079605761E+02 -0.20889361719E+03  0.22908357702E+03  0.75589939477E+02 0.  0.
         25    2    1    2    0    0 -0.11798197200E+02  0.11073687803E+02  0.12321512372E+03  0.17632794394E+03  0.12509097922E+03 0.  0.
        -24    2    1    2    0    0 -0.26167168530E+02  0.30005917958E+02  0.13390706474E+03  0.16012019906E+03  0.78245129806E+02 0.  0.
        -11    1    3    3    0    0  0.18177460473E+02 -0.26561225223E+02 -0.20061765067E+03  0.20318307143E+03  0.00000000000E+00 0.  1.
         12    1    3    3    0    0  0.19787905257E+02 -0.14518380538E+02 -0.82759665251E+01  0.25900505590E+02  0.00000000000E+00 0. -1.
         13    1    5    5    0    0  0.21264328226E+02 -0.10118659111E+02  0.53935538880E+02  0.58852368443E+02  0.00000000000E+00 0. -1.
        -14    1    5    5    0    0 -0.47431496756E+02  0.40124577069E+02  0.79971525859E+02  0.10126783062E+03  0.00000000000E+00 0.  1.
          5    1    4    4  501    0 -0.54799727116E+02  0.39880701640E+02  0.41723914454E+02  0.79698418382E+02  0.41800000000E+01 0. -1.
         -5    1    4    4    0  501  0.43001529916E+02 -0.28807013838E+02  0.81491209266E+02  0.96629525555E+02  0.41800000000E+01 0. -1.
</event>
<event>
11    1  0.8453735E-009  0.1532913E+03  0.7561462E-02  0.1093562E+00
         22   -1    0    0    0    0  0.00000000000E+00  0.00000000000E+00  0.39337784359E+04  0.39337784359E+04  0.00000000000E+00 0. -1.
         22   -1    0    0    0    0 -0.00000000000E+00 -0.00000000000E+00 -0.90989412681E+02  0.90989412681E+02  0.00000000000E+00 0. -1.
        -24    2    1    2    0    0 -0.53798063304E+02  0.69114276850E+02 -0.39843325950E+02  0.12695805296E+03  0.82824161388E+02 0.  0.
         25    2    1    2    0    0  0.10170460254E+03 -0.65950008824E+02  0.11158283004E+04  0.11293422073E+04  0.12509114886E+03 0.  0.
         24    2    1    2    0    0 -0.47906539234E+02 -0.31642680258E+01  0.27668040488E+04  0.27684675883E+04  0.83084859219E+02 0.  0.
        -11    1    5    5    0    0  0.20808112570E+02 -0.13398395164E+02  0.51828908188E+03  0.51887962663E+03  0.00000000000E+00 0.  1.
         12    1    5    5    0    0 -0.68714651804E+02  0.10234127139E+02  0.22485149669E+04  0.22495879617E+04  0.00000000000E+00 0. -1.
         13    1    3    3    0    0 -0.73060517076E+02  0.35986347322E+02 -0.20266690347E+02  0.83926128748E+02  0.00000000000E+00 0. -1.
        -14    1    3    3    0    0  0.19262453772E+02  0.33127929527E+02 -0.19576635602E+02  0.43031924214E+02  0.00000000000E+00 0.  1.
          5    1    4    4  501    0  0.11185247313E+03 -0.66962300924E+02  0.62860548423E+03  0.64199474507E+03  0.41800000000E+01 0.  1.
         -5    1    4    4    0  501 -0.10147870587E+02  0.10122921004E+01  0.48722281613E+03  0.48734746226E+03  0.41800000000E+01 0.  1.
</event>
<event>
11    1  0.8453735E-009  0.1357227E+03  0.7561462E-02  0.1112431E+00
         22   -1    0    0    0    0  0.00000000000E+00  0.00000000000E+00  0.13648594047E+04  0.13648594047E+04  0.00000000000E+00 0. -1.
         22   -1    0    0    0    0 -0.00000000000E+00 -0.00000000000E+00 -0.76277334239E+03  0.76277334239E+03  0.00000000000E+00 0. -1.
         24    2    1    2    0    0  0.54448314366E+02 -0.87957718131E+01 -0.58787840374E+03  0.59680246697E+03  0.86776623892E+02 0.  0.
         25    2    1    2    0    0 -0.18531414484E+02  0.71586684728E+02 -0.13711106491E+03  0.19978665407E+03  0.12508875358E+03 0.  0.
        -24    2    1    2    0    0 -0.35916899882E+02 -0.62790912915E+02  0.13270755310E+04  0.13310436261E+04  0.72903684181E+02 0.  0.
        -13    1    3    3    0    0  0.15700234924E+02 -0.44224033739E+02 -0.20265144585E+03  0.20801411260E+03  0.00000000000E+00 0.  1.
         14    1    3    3    0    0  0.38748079441E+02  0.35428261926E+02 -0.38522695789E+03  0.38878835436E+03  0.00000000000E+00 0. -1.
         13    1    5    5    0    0 -0.33148358399E+02  0.59210872493E+01  0.39280548051E+03  0.39424613943E+03  0.00000000000E+00 0. -1.
        -14    1    5    5    0    0 -0.27685414827E+01 -0.68712000164E+02  0.93427005046E+03  0.93679748664E+03  0.00000000000E+00 0.  1.
          5    1    4    4  501    0  0.22384934579E+02  0.95186680333E+02 -0.90839002680E+02  0.13353196702E+03  0.41800000000E+01 0.  1.
         -5    1    4    4    0  501 -0.40916349063E+02 -0.23599995605E+02 -0.46272062230E+02  0.66254687050E+02  0.41800000000E+01 0.  1.
</event>
<event>
11    1  0.8453735E-009  0.1425581E+03  0.7561462E-02  0.1104735E+00
         22   -1    0    0    0    0  0.00000000000E+00  0.00000000000E+00  0.69208773096E+03  0.69208773096E+03  0.00000000000E+00 0.  1.
         22   -1    0    0    0    0 -0.00000000000E+00 -0.00000000000E+00 -0.10018532546E+04  0.10018532546E+04  0.00000000000E+00 0.  1.
         24    2    1    2    0    0  0.11908087479E+02 -0.47711808842E+01 -0.94664551970E+03  0.95018118548E+03  0.80882498497E+02 0.  0.
         25    2    1    2    0    0 -0.72883983386E+02  0.33089634362E+02  0.64499848571E+02  0.16191424235E+03  0.12509593309E+03 0.  0.
        -24    2    1    2    0    0  0.60975895907E+02 -0.28318453478E+02  0.57238014749E+03  0.58184555772E+03  0.80032650309E+02 0.  0.
        -13    1    3    3    0    0  0.19198095251E+02  0.26866106833E+02 -0.76114809656E+03  0.76186401638E+03  0.00000000000E+00 0.  1.
         14    1    3    3    0    0 -0.72900077723E+01 -0.31637287717E+02 -0.18549742314E+03  0.18831716911E+03  0.00000000000E+00 0. -1.
         11    1    5    5    0    0 -0.16745096041E+02  0.60571997867E+01  0.64888408587E+02  0.67287394657E+02  0.00000000000E+00 0. -1.
        -12    1    5    5    0    0  0.77720991948E+02 -0.34375653265E+02  0.50749173890E+03  0.51455816306E+03  0.00000000000E+00 0.  1.
          5    1    4    4  501    0  0.23015040372E+02 -0.15867373471E+02  0.43894616509E+02  0.52208001137E+02  0.41800000000E+01 0.  1.
         -5    1    4    4    0  501 -0.95899023758E+02  0.48957007834E+02  0.20605232062E+02  0.10970624122E+03  0.41800000000E+01 0.  1.
</event>
<event>
11    1  0.8453735E-009  0.1369435E+03  0.7561462E-02  0.1111020E+00
         22   -1    0    0    0    0  0.00000000000E+00  0.00000000000E+00  0.23757281907E+04  0.23757281907E+04  0.00000000000E+00 0. -1.
         22   -1    0    0    0    0 -0.00000000000E+00 -0.00000000000E+00 -0.63618783800E+02  0.63618783800E+02  0.00000000000E+00 0. -1.
         24    2    1    2    0    0 -0.24649866264E+02 -0.88950742652E+01 -0.11743312610E+01  0.84093876193E+02  0.79897826668E+02 0.  0.
         25    2    1    2    0    0  0.59313751639E+02 -0.34120149561E+02  0.23644333230E+03  0.27610776041E+03  0.12509092785E+03 0.  0.
        -24    2    1    2    0    0 -0.34663885375E+02  0.43015223826E+02  0.20768404059E+04  0.20791453379E+04  0.80792142263E+02 0.  0.
        -11    1    3    3    0    0 -0.38471130844E+01  0.31512885534E+02  0.15947538617E+02  0.35527260261E+02  0.00000000000E+00 0.  1.
         12    1    3    3    0    0 -0.20802753180E+02 -0.40407959799E+02 -0.17121869878E+02  0.48566615932E+02  0.00000000000E+00 0. -1.
         11    1    5    5    0    0 -0.23532145779E+02  0.12614052323E+02  0.18295332992E+04  0.18297281134E+04  0.00000000000E+00 0. -1.
        -12    1    5    5    0    0 -0.11131739596E+02  0.30401171504E+02  0.24730710675E+03  0.24941722456E+03  0.00000000000E+00 0.  1.
          5    1    4    4  501    0  0.59162861115E+02  0.34895680715E+02  0.15284088846E+03  0.16761790553E+03  0.41800000000E+01 0. -1.
         -5    1    4    4    0  501  0.15089052417E+00 -0.69015830276E+02  0.83602443840E+02  0.10848985488E+03  0.41800000000E+01 0. -1.
</event>
<event>
11    1  0.8510906E-009  0.1625394E+03  0.7561462E-02  0.1084713E+00
         22   -1    0    0    0    0  0.00000000000E+00  0.00000000000E+00  0.36011567018E+03  0.36011567018E+03  0.00000000000E+00 0. -1.
         22   -1    0    0    0    0 -0.00000000000E+00 -0.00000000000E+00 -0.68604563385E+03  0.68604563385E+03  0.00000000000E+00 0. -1.
         24    2    1    2    0    0  0.18661527201E+02  0.69587921708E+01 -0.42216880767E+03  0.43053189623E+03  0.82064207232E+02 0.  0.
         25    2    1    2    0    0  0.39863258028E+02 -0.92949809498E+02 -0.22044833792E+03  0.27289959366E+03  0.12509185466E+03 0.  0.
        -24    2    1    2    0    0 -0.58524785230E+02  0.85991017327E+02  0.31668718193E+03  0.34272981414E+03  0.79707896431E+02 0.  0.
        -11    1    3    3    0    0 -0.28133320918E+02  0.46621242982E+01 -0.75401847121E+02  0.80614252450E+02  0.00000000000E+00 0.  1.
         12    1    3    3    0    0  0.46794848120E+02  0.22966678727E+01 -0.34676696055E+03  0.34991764378E+03  0.00000000000E+00 0. -1.
         13    1    5    5    0    0 -0.74545509942E+02  0.87493227143E+02  0.27633904504E+03  0.29929143934E+03  0.00000000000E+00 0. -1.
        -14    1    5    5    0    0  0.16020724713E+02 -0.15022098155E+01  0.40348136888E+02  0.43438374797E+02  0.00000000000E+00 0.  1.
          5    1    4    4  501    0  0.75108125950E+02 -0.64016618400E+02 -0.19935446410E+03  0.22248378092E+03  0.41800000000E+01 0.  1.
         -5    1    4    4    0  501 -0.35244867921E+02 -0.28933191098E+02 -0.21093873819E+02  0.50415812744E+02  0.41800000000E+01 0.  1.
</event>
<event>
11    1  0.8453735E-009  0.1403550E+03  0.7561462E-02  0.1107163E+00
         22   -1    0    0    0    0  0.00000000000E+00  0.00000000000E+00  0.19070059900E+04  0.19070059900E+04  0.00000000000E+00 0.  1.
         22   -1    0    0    0    0 -0.00000000000E+00 -0.00000000000E+00 -0.78289639975E+02  0.78289639975E+02  0.00000000000E+00 0.  1.
        -24    2    1    2    0    0  0.54145748020E+02 -0.33619332687E+02 -0.34092548510E+02  0.10838598467E+03  0.80766318785E+02 0.  0.
         25    2    1    2    0    0 -0.53328990687E+02  0.31310805143E+02  0.91261298522E+03  0.92321925389E+03  0.12508789791E+03 0.  0.
         24    2    1    2    0    0 -0.81675733307E+00  0.23085275440E+01  0.95019591327E+03  0.95369039137E+03  0.81529703764E+02 0.  0.
        -11    1    5    5    0    0 -0.35542072057E+02  0.21842579578E+02  0.49208066940E+03  0.49384584879E+03  0.00000000000E+00 0.  1.
         12    1    5    5    0    0  0.34725314724E+02 -0.19534052034E+02  0.45811524387E+03  0.45984454258E+03  0.00000000000E+00 0. -1.
         13    1    3    3    0    0 -0.51971231547E+01 -0.35104730060E+02 -0.33822950360E+02  0.49023913886E+02  0.00000000000E+00 0. -1.
        -14    1    3    3    0    0  0.59342871175E+02  0.14853973725E+01 -0.26959814952E+00  0.59362070784E+02  0.00000000000E+00 0.  1.
          5    1    4    4  501    0 -0.55683868052E+02  0.75322031563E+02  0.55319809574E+03  0.56108796737E+03  0.41800000000E+01 0.  1.
         -5    1    4    4    0  501  0.23548773656E+01 -0.44011226420E+02  0.35941488948E+03  0.36213128652E+03  0.41800000000E+01 0.  1.
</event>
<event>
11    1  0.8453735E-009  0.1320408E+03  0.7561462E-02  0.1116787E+00
         22   -1    0    0    0    0  0.00000000000E+00  0.00000000000E+00  0.65026337140E+02  0.65026337140E+02  0.00000000000E+00 0. -1.
         22   -1    0    0    0    0 -0.00000000000E+00 -0.00000000000E+00 -0.20171453455E+04  0.20171453455E+04  0.00000000000E+00 0. -1.
         24    2    1    2    0    0 -0.40902510947E+02 -0.14454538948E+02 -0.18185831879E+04  0.18208971392E+04  0.80867985161E+02 0.  0.
         25    2    1    2    0    0  0.20180738534E+02 -0.13442874800E+02 -0.11249170139E+03  0.16997113446E+03  0.12509128897E+03 0.  0.
        -24    2    1    2    0    0  0.20721772413E+02  0.27897413748E+02 -0.21044119130E+02  0.91303409076E+02  0.81766741486E+02 0.  0.
        -11    1    3    3    0    0 -0.22441309194E+02  0.15348890750E+02 -0.18987354302E+03  0.19181022690E+03  0.00000000000E+00 0.  1.
         12    1    3    3    0    0 -0.18461201753E+02 -0.29803429698E+02 -0.16287096449E+04  0.16290869122E+04  0.00000000000E+00 0. -1.
         11    1    5    5    0    0  0.50856538563E+02  0.16210942400E+02 -0.12298574130E+01  0.53391897488E+02  0.00000000000E+00 0. -1.
        -12    1    5    5    0    0 -0.30134766150E+02  0.11686471348E+02 -0.19814261717E+02  0.37911511588E+02  0.00000000000E+00 0.  1.
          5    1    4    4  501    0 -0.33998923304E+02 -0.35004694710E+02 -0.71524297201E+01  0.49496313888E+02  0.41800000000E+01 0.  1.
         -5    1    4    4    0  501  0.54179661838E+02  0.21561819910E+02 -0.10533927167E+03  0.12047482057E+03  0.41800000000E+01 0.  1.
</event>
<event>
11    1  0.8453735E-009  0.1853263E+03  0.7561462E-02  0.1065414E+00
         22   -1    0    0    0    0  0.00000000000E+00  0.00000000000E+00  0.18831923414E+04  0.18831923414E+04  0.00000000000E+00 0.  1.
         22   -1    0    0    0    0 -0.00000000000E+00 -0.00000000000E+00 -0.85095265835E+02  0.85095265835E+02  0.00000000000E+00 0.  1.
         24    2    1    2    0    0  0.49156329260E+02 -0.12446856467E+03  0.21224160965E+02  0.16272442183E+03  0.90111065645E+02 0.  0.
         25    2    1    2    0    0 -0.67019412724E+02  0.14913721782E+03  0.82555140365E+03  0.85083239057E+03  0.12508847011E+03 0.  0.
        -24    2    1    2    0    0  0.17863083464E+02 -0.24668653142E+02  0.95132151098E+03  0.95473079487E+03  0.74636728350E+02 0.  0.
        -13    1    3    3    0    0  0.18960414114E+02 -0.12913923048E+03  0.13583764627E+02  0.13122864327E+03  0.00000000000E+00 0.  1.
         14    1    3    3    0    0  0.30195915146E+02  0.46706658091E+01  0.76403963381E+01  0.31495778556E+02  0.00000000000E+00 0. -1.
         11    1    5    5    0    0 -0.28523048764E+02 -0.14691287185E+02  0.30975335181E+03  0.31141056050E+03  0.00000000000E+00 0. -1.
        -12    1    5    5    0    0  0.46386132228E+02 -0.99773659574E+01  0.64156815917E+03  0.64332023438E+03  0.00000000000E+00 0.  1.
          5    1    4    4  501    0 -0.79976842279E+02  0.13916802729E+03  0.81557255107E+03  0.83122806352E+03  0.41800000000E+01 0. -1.
         -5    1    4    4    0  501  0.12957429555E+02  0.99691905234E+01  0.99788525821E+01  0.19604327054E+02  0.41800000000E+01 0. -1.
</event>
<event>
11    1  0.8453735E-009  0.1865757E+03  0.7561462E-02  0.1064445E+00
         22   -1    0    0    0    0  0.00000000000E+00  0.00000000000E+00  0.21336204583E+03  0.21336204583E+03  0.00000000000E+00 0.  1.
         22   -1    0    0    0    0 -0.00000000000E+00 -0.00000000000E+00 -0.88124139412E+03  0.88124139412E+03  0.00000000000E+00 0.  1.
        -24    2    1    2    0    0  0.56586135092E+01  0.26757327550E+02 -0.53846685120E+03  0.54499983162E+03  0.79563133018E+02 0.  0.
         25    2    1    2    0    0  0.13135186494E+03 -0.47405828372E+02 -0.27537658692E+03  0.33314165640E+03  0.12510185299E+03 0.  0.
         24    2    1    2    0    0 -0.13701047845E+03  0.20648500822E+02  0.14596408983E+03  0.21646195193E+03  0.79699619334E+02 0.  0.
        -13    1    5    5    0    0 -0.13163194853E+03  0.41254528033E+02  0.13246119548E+03  0.19124558626E+03  0.00000000000E+00 0.  1.
         14    1    5    5    0    0 -0.53785299133E+01 -0.20606027211E+02  0.13502894355E+02  0.25216365666E+02  0.00000000000E+00 0. -1.
         13    1    3    3    0    0  0.21764999019E+02  0.45366657960E+02 -0.22449718210E+03  0.23006701982E+03  0.00000000000E+00 0. -1.
        -14    1    3    3    0    0 -0.16106385510E+02 -0.18609330410E+02 -0.31396966910E+03  0.31493281180E+03  0.00000000000E+00 0.  1.
          5    1    4    4  501    0  0.11836035337E+03  0.17445869084E+02 -0.19678896038E+03  0.23034083208E+03  0.41800000000E+01 0.  1.
         -5    1    4    4    0  501  0.12991511567E+02 -0.64851697456E+02 -0.78587626542E+02  0.10280082432E+03  0.41800000000E+01 0.  1.
</event>
<event>
11    1  0.2147506E-008  0.1969031E+03  0.7561462E-02  0.1056736E+00
         22   -1    0    0    0    0  0.00000000000E+00  0.00000000000E+00  0.16481336014E+04  0.16481336014E+04  0.00000000000E+00 0.  1.
         22   -1    0    0    0    0 -0.00000000000E+00 -0.00000000000E+00 -0.96334930563E+03  0.96334930563E+03  0.00000000000E+00 0.  1.
         24    2    1    2    0    0  0.64738004702E+02  0.15512247064E+02 -0.71290590143E+03  0.72044577512E+03  0.79847677122E+02 0.  0.
         25    2    1    2    0    0  0.64310823050E+02 -0.97619835642E+02 -0.21161620025E+03  0.27220274606E+03  0.12508958581E+03 0.  0.
        -24    2    1    2    0    0 -0.12904882775E+03  0.82107588578E+02  0.16093063975E+04  0.16188343859E+04  0.85804614530E+02 0.  0.
        -11    1    3    3    0    0  0.81600862228E+02  0.70202262347E+01 -0.63620826553E+03  0.64145844871E+03  0.00000000000E+00 0.  1.
         12    1    3    3    0    0 -0.16862857526E+02  0.84920208296E+01 -0.76697635895E+02  0.78987326412E+02  0.00000000000E+00 0. -1.
         13    1    5    5    0    0 -0.32986161245E+01  0.18891580696E+02  0.56570802896E+02  0.59732976067E+02  0.00000000000E+00 0. -1.
        -14    1    5    5    0    0 -0.12575021163E+03  0.63216007882E+02  0.15527355946E+04  0.15591014098E+04  0.00000000000E+00 0.  1.
          5    1    4    4  501    0  0.20479535317E+02 -0.27890747374E+02 -0.18085910690E+03  0.18418684564E+03  0.41800000000E+01 0. -1.
         -5    1    4    4    0  501  0.43831287733E+02 -0.69729088268E+02 -0.30757093346E+02  0.88015900417E+02  0.41800000000E+01 0. -1.
</event>
<event>
11    1  0.8453735E-009  0.1538101E+03  0.7561462E-02  0.1093048E+00
         22   -1    0    0    0    0  0.00000000000E+00  0.00000000000E+00  0.42181399310E+03  0.42181399310E+03  0.00000000000E+00 0.  1.
         22   -1    0    0    0    0 -0.00000000000E+00 -0.00000000000E+00 -0.21622240687E+03  0.21622240687E+03  0.00000000000E+00 0. -1.
        -24    2    1    2    0    0 -0.85934915317E+02 -0.24000847112E+02 -0.15988099209E+03  0.19977035184E+03  0.79908769919E+02 0.  0.
         25    2    1    2    0    0  0.92692531681E+02  0.14663571748E+02  0.25064342031E+03  0.29542607682E+03  0.12509003538E+03 0.  0.
         24    2    1    2    0    0 -0.67576163641E+01  0.93372753636E+01  0.11482915801E+03  0.14283997131E+03  0.84170492358E+02 0.  0.
        -13    1    5    5    0    0 -0.37489258648E+02 -0.19704267014E+02  0.63663435973E+02  0.76463950542E+02  0.00000000000E+00 0.  1.
         14    1    5    5    0    0  0.30731642284E+02  0.29041542378E+02  0.51165722036E+02  0.66376020765E+02  0.00000000000E+00 0. -1.
         11    1    3    3    0    0 -0.95174922587E+02 -0.23019612488E+02 -0.16284462886E+03  0.19001721395E+03  0.00000000000E+00 0. -1.
        -12    1    3    3    0    0  0.92400072699E+01 -0.98123462363E+00  0.29636367732E+01  0.97531378877E+01  0.00000000000E+00 0.  1.
          5    1    4    4  501    0  0.18952059574E+02  0.64021460391E+02  0.94520058611E+02  0.11579914435E+03  0.41800000000E+01 0. -1.
         -5    1    4    4    0  501  0.73740472107E+02 -0.49357888642E+02  0.15612336170E+03  0.17962693246E+03  0.41800000000E+01 0. -1.
</event>
<event>
11    1  0.8453735E-009  0.1356118E+03  0.7561462E-02  0.1112560E+00
         22   -1    0    0    0    0  0.00000000000E+00  0.00000000000E+00  0.12652244505E+04  0.12652244505E+04  0.00000000000E+00 0.  1.
         22   -1    0    0    0    0 -0.00000000000E+00 -0.00000000000E+00 -0.10666325203E+03  0.10666325203E+03  0.00000000000E+00 0.  1.
        -24    2    1    2    0    0  0.39367454586E+02 -0.35547196154E+02 -0.61277883002E+02  0.11378272619E+03  0.79863196773E+02 0.  0.
         25    2    1    2    0    0 -0.47770029559E+02  0.14833502363E+02  0.24389833343E+03  0.27863141868E+03  0.12508821651E+03 0.  0.
         24    2    1    2    0    0  0.84025749737E+01  0.20713693791E+02  0.97594074803E+03  0.97947355765E+03  0.80052770628E+02 0.  0.
        -13    1    5    5    0    0  0.11524318705E+02  0.16552170911E+02  0.97353166083E+03  0.97374056037E+03  0.00000000000E+00 0.  1.
         14    1    5    5    0    0 -0.31217437310E+01  0.41615228792E+01  0.24090872063E+01  0.57329972757E+01  0.00000000000E+00 0. -1.
         11    1    3    3    0    0 -0.61361416197E+00 -0.99591663150E+01  0.18460678468E+02  0.20984712662E+02  0.00000000000E+00 0. -1.
        -12    1    3    3    0    0  0.39981068748E+02 -0.25588029839E+02 -0.79738561470E+02  0.92798013527E+02  0.00000000000E+00 0.  1.
          5    1    4    4  501    0  0.25534645677E+02  0.47701960147E+02  0.99546251186E+02  0.11337735072E+03  0.41800000000E+01 0.  1.
         -5    1    4    4    0  501 -0.73304675236E+02 -0.32868457784E+02  0.14435208224E+03  0.16525406796E+03  0.41800000000E+01 0.  1.
</event>
<event>
11    1  0.8453735E-009  0.1638558E+03  0.7561462E-02  0.1083506E+00
         22   -1    0    0    0    0  0.00000000000E+00  0.00000000000E+00  0.10541569551E+04  0.10541569551E+04  0.00000000000E+00 0. -1.
         22   -1    0    0    0    0 -0.00000000000E+00 -0.00000000000E+00 -0.83019628453E+02  0.83019628453E+02  0.00000000000E+00 0. -1.
        -24    2    1    2    0    0  0.59662329133E+01  0.10574256479E+03  0.17832974883E+02  0.13595715309E+03  0.83362140912E+02 0.  0.
         25    2    1    2    0    0  0.85445753643E+02 -0.10552969739E+03  0.55111064687E+03  0.58121287410E+03  0.12509183058E+03 0.  0.
         24    2    1    2    0    0 -0.91411986557E+02 -0.21286740892E+00  0.40219370485E+03  0.42000655633E+03  0.79306585712E+02 0.  0.
        -11    1    5    5    0    0 -0.58088813450E+02 -0.92844233564E+01  0.10133446849E+03  0.11717160607E+03  0.00000000000E+00 0.  1.
         12    1    5    5    0    0 -0.33323173106E+02  0.90715559475E+01  0.30085923636E+03  0.30283495026E+03  0.00000000000E+00 0. -1.
         13    1    3    3    0    0  0.20809134113E+02  0.51880639361E+02 -0.29073999179E+02  0.63007287129E+02  0.00000000000E+00 0. -1.
        -14    1    3    3    0    0 -0.14842901200E+02  0.53861925434E+02  0.46906974062E+02  0.72949865957E+02  0.00000000000E+00 0.  1.
          5    1    4    4  501    0  0.11484178346E+02 -0.50693278241E+01 -0.27056411520E+01  0.13504715136E+02  0.41800000000E+01 0. -1.
         -5    1    4    4    0  501  0.73961575297E+02 -0.10046036956E+03  0.55381628802E+03  0.56770815896E+03  0.41800000000E+01 0. -1.
</event>
<event>
11    1  0.8453735E-009  0.1389080E+03  0.7561462E-02  0.1108784E+00
         22   -1    0    0    0    0  0.00000000000E+00  0.00000000000E+00  0.61503405041E+03  0.61503405041E+03  0.00000000000E+00 0.  1.
         22   -1    0    0    0    0 -0.00000000000E+00 -0.00000000000E+00 -0.56922271310E+03  0.56922271310E+03  0.00000000000E+00 0.  1.
         24    2    1    2    0    0  0.41713943014E+02 -0.43971328065E+02 -0.48855246188E+03  0.49887377210E+03  0.80734142368E+02 0.  0.
         25    2    1    2    0    0 -0.61405263361E+02  0.20257552737E+02 -0.33259556335E+01  0.14085528110E+03  0.12509265934E+03 0.  0.
        -24    2    1    2    0    0  0.19691320347E+02  0.23713775328E+02  0.53768975482E+03  0.54452771032E+03  0.80312288138E+02 0.  0.
        -11    1    3    3    0    0  0.19797417564E+02 -0.58459065229E+02 -0.43352314518E+03  0.43789464196E+03  0.00000000000E+00 0.  1.
         12    1    3    3    0    0  0.21916525450E+02  0.14487737164E+02 -0.55029316699E+02  0.60979130137E+02  0.00000000000E+00 0. -1.
         13    1    5    5    0    0 -0.22714687529E+02 -0.13787773348E+02  0.11302651102E+03  0.11610793218E+03  0.00000000000E+00 0. -1.
        -14    1    5    5    0    0  0.42406007876E+02  0.37501548675E+02  0.42466324380E+03  0.42841977813E+03  0.00000000000E+00 0.  1.
          5    1    4    4  501    0 -0.72135213530E+02  0.58522607698E+02  0.19255630684E+02  0.94955970617E+02  0.41800000000E+01 0.  1.
         -5    1    4    4    0  501  0.10729950169E+02 -0.38265054961E+02 -0.22581586318E+02  0.45899310479E+02  0.41800000000E+01 0.  1.
</event>
<event>
11    1  0.8453735E-009  0.1641667E+03  0.7561462E-02  0.1083223E+00
         22   -1    0    0    0    0  0.00000000000E+00  0.00000000000E+00  0.72077971080E+03  0.72077971080E+03  0.00000000000E+00 0.  1.
         22   -1    0    0    0    0 -0.00000000000E+00 -0.00000000000E+00 -0.25061776728E+04  0.25061776728E+04  0.00000000000E+00 0.  1.
        -24    2    1    2    0    0 -0.90768432254E+02  0.70767866678E+02 -0.22543644746E+04  0.22586827388E+04  0.79003360169E+02 0.  0.
         25    2    1    2    0    0  0.32746085858E+02 -0.16287649320E+02 -0.22773027154E+03  0.26238534325E+03  0.12508956039E+03 0.  0.
         24    2    1    2    0    0  0.58022346396E+02 -0.54480217358E+02  0.69669678411E+03  0.70588930159E+03  0.80985247707E+02 0.  0.
        -11    1    5    5    0    0  0.44389341054E+02 -0.75835752423E+02  0.51682060997E+03  0.52423755859E+03  0.00000000000E+00 0.  1.
         12    1    5    5    0    0  0.13633005342E+02  0.21355535065E+02  0.17987617414E+03  0.18165174300E+03  0.00000000000E+00 0. -1.
         13    1    3    3    0    0  0.56369169396E+01 -0.22302256857E+01 -0.55018704792E+03  0.55022044349E+03  0.00000000000E+00 0. -1.
        -14    1    3    3    0    0 -0.96405349193E+02  0.72998092364E+02 -0.17041774267E+04  0.17084622953E+04  0.00000000000E+00 0.  1.
          5    1    4    4  501    0 -0.24513173439E+02 -0.43008795349E+02 -0.16852089678E+03  0.17569125533E+03  0.41800000000E+01 0. -1.
         -5    1    4    4    0  501  0.57259259298E+02  0.26721146030E+02 -0.59209374760E+02  0.86694087918E+02  0.41800000000E+01 0. -1.
</event>
<event>
11    1  0.8453735E-009  0.1610882E+03  0.7561462E-02  0.1086058E+00
         22   -1    0    0    0    0  0.00000000000E+00  0.00000000000E+00  0.17189944342E+04  0.17189944342E+04  0.00000000000E+00 0.  1.
         22   -1    0    0    0    0 -0.00000000000E+00 -0.00000000000E+00 -0.43336158622E+03  0.43336158622E+03  0.00000000000E+00 0. -1.
         24    2    1    2    0    0 -0.26406885456E+02  0.14682038688E+02 -0.35534306709E+03  0.36578988253E+03  0.81367419594E+02 0.  0.
         25    2    1    2    0    0  0.31466993501E+02 -0.11528960810E+03  0.38339407783E+02  0.17720906664E+03  0.12510506662E+03 0.  0.
        -24    2    1    2    0    0 -0.50601080450E+01  0.10060756941E+03  0.16026365073E+04  0.16093570713E+04  0.10695288969E+03 0.  0.
        -11    1    3    3    0    0 -0.41283064053E+02  0.37420807371E+02 -0.18225717752E+03  0.19058406796E+03  0.00000000000E+00 0.  1.
         12    1    3    3    0    0  0.14876178597E+02 -0.22738768683E+02 -0.17308588957E+03  0.17520581457E+03  0.00000000000E+00 0. -1.
         13    1    5    5    0    0 -0.30488838988E+02 -0.10593720215E+02  0.41601423031E+03  0.41726446773E+03  0.00000000000E+00 0. -1.
        -14    1    5    5    0    0  0.25428730943E+02  0.11120128963E+03  0.11866222770E+04  0.11920926036E+04  0.00000000000E+00 0.  1.
          5    1    4    4  501    0  0.69412399479E+02 -0.24381879097E+02  0.24441931135E+02  0.77636574031E+02  0.41800000000E+01 0. -1.
         -5    1    4    4    0  501 -0.37945405978E+02 -0.90907729004E+02  0.13897476648E+02  0.99572492610E+02  0.41800000000E+01 0. -1.
</event>
<event>
11    1  0.8453735E-009  0.1417736E+03  0.7561462E-02  0.1105594E+00
         22   -1    0    0    0    0  0.00000000000E+00  0.00000000000E+00  0.36424753085E+03  0.36424753085E+03  0.00000000000E+00 0.  1.
         22   -1    0    0    0    0 -0.00000000000E+00 -0.00000000000E+00 -0.35771151692E+03  0.35771151692E+03  0.00000000000E+00 0.  1.
         24    2    1    2    0    0 -0.31436582335E+02  0.56930788688E+02 -0.27748067039E+03  0.29376129685E+03  0.71209575763E+02 0.  0.
         25    2    1    2    0    0  0.71359160523E+02 -0.58543052626E+02  0.31120958873E+02  0.15854142290E+03  0.12508976734E+03 0.  0.
        -24    2    1    2    0    0 -0.39922578187E+02  0.16122639375E+01  0.25289572544E+03  0.26965632801E+03  0.84627865640E+02 0.  0.
        -13    1    3    3    0    0 -0.28650382332E+02  0.63628697171E+02 -0.14332749496E+03  0.15941212728E+03  0.00000000000E+00 0.  1.
         14    1    3    3    0    0 -0.27862000036E+01 -0.66979084822E+01 -0.13415317543E+03  0.13434916958E+03  0.00000000000E+00 0. -1.
         13    1    5    5    0    0  0.95062749635E+01 -0.30590409735E+02  0.61031572343E+02  0.68927463714E+02  0.00000000000E+00 0. -1.
        -14    1    5    5    0    0 -0.49428853151E+02  0.32202673672E+02  0.19186415310E+03  0.20072886429E+03  0.00000000000E+00 0.  1.
          5    1    4    4  501    0  0.13438348548E+02 -0.87730373506E+01 -0.46622740553E+02  0.49484419090E+02  0.41800000000E+01 0. -1.
         -5    1    4    4    0  501  0.57920811975E+02 -0.49770015275E+02  0.77743699426E+02  0.10905700381E+03  0.41800000000E+01 0. -1.
</event>
<event>
11    1  0.8453735E-009  0.1394105E+03  0.7561462E-02  0.1108218E+00
         22   -1    0    0    0    0  0.00000000000E+00  0.00000000000E+00  0.32768774324E+03  0.32768774324E+03  0.00000000000E+00 0.  1.
         22   -1    0    0    0    0 -0.00000000000E+00 -0.00000000000E+00 -0.50656777308E+03  0.50656777308E+03  0.00000000000E+00 0. -1.
         24    2    1    2    0    0  0.19823690170E+02  0.54620424127E+02 -0.33673312256E+03  0.35113126200E+03  0.80793551080E+02 0.  0.
         25    2    1    2    0    0  0.81675903246E+00 -0.82976109069E+02 -0.11973893834E+03  0.19201419319E+03  0.12508531192E+03 0.  0.
        -24    2    1    2    0    0 -0.20640449203E+02  0.28355684942E+02  0.27759203107E+03  0.29111006113E+03  0.80359560524E+02 0.  0.
        -11    1    3    3    0    0  0.47817123757E+02  0.28156430504E+02 -0.25222645883E+03  0.25825849151E+03  0.00000000000E+00 0.  1.
         12    1    3    3    0    0 -0.27993433587E+02  0.26463993623E+02 -0.84506663732E+02  0.92872770485E+02  0.00000000000E+00 0. -1.
         13    1    5    5    0    0  0.28018495212E+02 -0.47518201670E+01  0.77702219139E+02  0.82736030410E+02  0.00000000000E+00 0. -1.
        -14    1    5    5    0    0 -0.48658944415E+02  0.33107505109E+02  0.19988981193E+03  0.20837403072E+03  0.00000000000E+00 0.  1.
          5    1    4    4  501    0 -0.41997843652E+02 -0.36669701928E+02  0.79280825824E+00  0.55915890906E+02  0.41800000000E+01 0. -1.
         -5    1    4    4    0  501  0.42814602684E+02 -0.46306407141E+02 -0.12053174660E+03  0.13609830228E+03  0.41800000000E+01 0. -1.
</event>
<event>
11    1  0.8453735E-009  0.2323480E+03  0.7561462E-02  0.1033747E+00
         22   -1    0    0    0    0  0.00000000000E+00  0.00000000000E+00  0.13374056400E+03  0.13374056400E+03  0.00000000000E+00 0. -1.
         22   -1    0    0    0    0 -0.00000000000E+00 -0.00000000000E+00 -0.84837684559E+03  0.84837684559E+03  0.00000000000E+00 0. -1.
         24    2    1    2    0    0  0.50100066118E+02  0.55724127892E+02 -0.39837567133E+03  0.41190779149E+03  0.73141357138E+02 0.  0.
         25    2    1    2    0    0 -0.22889154082E+03 -0.57809737915E+02 -0.24255381646E+03  0.36085061276E+03  0.12508999797E+03 0.  0.
        -24    2    1    2    0    0  0.17879147470E+03  0.20856100229E+01 -0.73706793787E+02  0.20935900534E+03  0.80173315214E+02 0.  0.
        -11    1    3    3    0    0 -0.13846289405E+02 -0.66075621866E+01 -0.63997374477E+02  0.65810664396E+02  0.00000000000E+00 0.  1.
         12    1    3    3    0    0  0.63946355523E+02  0.62331690079E+02 -0.33437829686E+03  0.34609712709E+03  0.00000000000E+00 0. -1.
         13    1    5    5    0    0  0.14455615329E+03 -0.16233618157E+02 -0.25870130219E+02  0.14774733652E+03  0.00000000000E+00 0. -1.
        -14    1    5    5    0    0  0.34235321411E+02  0.18319228179E+02 -0.47836663569E+02  0.61611668818E+02  0.00000000000E+00 0.  1.
          5    1    4    4  501    0  0.79658211159E+01 -0.18833510316E+01 -0.49039438183E+02  0.49893288271E+02  0.41800000000E+01 0.  1.
         -5    1    4    4    0  501 -0.23685736193E+03 -0.55926386884E+02 -0.19351437828E+03  0.31095732449E+03  0.41800000000E+01 0.  1.
</event>
<event>
11    1  0.8453735E-009  0.1399408E+03  0.7561462E-02  0.1107625E+00
         22   -1    0    0    0    0  0.00000000000E+00  0.00000000000E+00  0.29088604875E+03  0.29088604875E+03  0.00000000000E+00 0.  1.
         22   -1    0    0    0    0 -0.00000000000E+00 -0.00000000000E+00 -0.34681194376E+03  0.34681194376E+03  0.00000000000E+00 0. -1.
         24    2    1    2    0    0  0.17377658955E+02  0.66171283587E+02 -0.26826264851E+03  0.28809305011E+03  0.79700283134E+02 0.  0.
         25    2    1    2    0    0 -0.37248728833E+02 -0.91764812256E+01  0.19852495504E+02  0.13232592352E+03  0.12507738744E+03 0.  0.
        -24    2    1    2    0    0  0.19871069878E+02 -0.56994802361E+02  0.19248425800E+03  0.21727901889E+03  0.80726176416E+02 0.  0.
        -13    1    3    3    0    0  0.19184387928E+01  0.91025598508E+01  0.35254298850E+01  0.99481485269E+01  0.00000000000E+00 0.  1.
         14    1    3    3    0    0  0.15459220162E+02  0.57068723736E+02 -0.27178807840E+03  0.27814490158E+03  0.00000000000E+00 0. -1.
         13    1    5    5    0    0 -0.13483729329E+02  0.11108214590E+02  0.78175404250E+02  0.80103665444E+02  0.00000000000E+00 0. -1.
        -14    1    5    5    0    0  0.33354799207E+02 -0.68103016951E+02  0.11430885375E+03  0.13717535344E+03  0.00000000000E+00 0.  1.
          5    1    4    4  501    0 -0.23338373781E+02  0.49918505355E+02 -0.20904120249E+02  0.59084613149E+02  0.41800000000E+01 0.  1.
         -5    1    4    4    0  501 -0.13910355052E+02 -0.59094986580E+02  0.40756615753E+02  0.73241310366E+02  0.41800000000E+01 0.  1.
</event>
<event>
11    1  0.8453735E-009  0.1572277E+03  0.7561462E-02  0.1089714E+00
         22   -1    0    0    0    0  0.00000000000E+00  0.00000000000E+00  0.12681805803E+03  0.12681805803E+03  0.00000000000E+00 0.  1.
         22   -1    0    0    0    0 -0.00000000000E+00 -0.00000000000E+00 -0.44741672989E+03  0.44741672989E+03  0.00000000000E+00 0. -1.
        -24    2    1    2    0    0 -0.41168553627E+02  0.78830495774E+02 -0.14873709558E+03  0.19110069477E+03  0.80545981086E+02 0.  0.
         25    2    1    2    0    0 -0.18783055862E+02 -0.11535769393E+03 -0.20955285770E+03  0.27059151940E+03  0.12508864643E+03 0.  0.
         24    2    1    2    0    0  0.59951609488E+02  0.36527198160E+02  0.37691281423E+02  0.11254257374E+03  0.79478088326E+02 0.  0.
        -13    1    5    5    0    0  0.32875194678E+02  0.50885439131E+02  0.50941889634E+02  0.79152905570E+02  0.00000000000E+00 0.  1.
         14    1    5    5    0    0  0.27076414810E+02 -0.14358240972E+02 -0.13250608211E+02  0.33389668174E+02  0.00000000000E+00 0. -1.
         13    1    3    3    0    0 -0.13858026704E+02  0.70107498235E+02 -0.47323333560E+02  0.85712333489E+02  0.00000000000E+00 0. -1.
        -14    1    3    3    0    0 -0.27310526923E+02  0.87229975392E+01 -0.10141376202E+03  0.10538836129E+03  0.00000000000E+00 0.  1.
          5    1    4    4  501    0  0.68589558116E+01 -0.11151860089E+03 -0.77715817793E+02  0.13616410818E+03  0.41800000000E+01 0. -1.
         -5    1    4    4    0  501 -0.25642011673E+02 -0.38390930391E+01 -0.13183703991E+03  0.13442741123E+03  0.41800000000E+01 0. -1.
</event>
<event>
11    1  0.8453735E-009  0.2002274E+03  0.7561462E-02  0.1054363E+00
         22   -1    0    0    0    0  0.00000000000E+00  0.00000000000E+00  0.17921569006E+04  0.17921569006E+04  0.00000000000E+00 0. -1.
         22   -1    0    0    0    0 -0.00000000000E+00 -0.00000000000E+00 -0.14098723017E+04  0.14098723017E+04  0.00000000000E+00 0. -1.
         24    2    1    2    0    0 -0.13234402854E+02  0.22977564414E+02 -0.13459887892E+04  0.13487967423E+04  0.82847531895E+02 0.  0.
         25    2    1    2    0    0  0.11562012758E+02  0.13512970785E+03  0.89864298120E+02  0.20522426461E+03  0.12509072158E+03 0.  0.
        -24    2    1    2    0    0  0.16723900958E+01 -0.15810727227E+03  0.16384090901E+04  0.16480081954E+04  0.80907101456E+02 0.  0.
        -11    1    3    3    0    0 -0.36066886059E+02 -0.15040505234E+02 -0.44321105301E+03  0.44493041543E+03  0.00000000000E+00 0.  1.
         12    1    3    3    0    0  0.22832483205E+02  0.38018069647E+02 -0.90277773622E+03  0.90386632691E+03  0.00000000000E+00 0. -1.
         11    1    5    5    0    0  0.40967216892E+02 -0.86631915224E+02  0.84414599895E+03  0.84956804856E+03  0.00000000000E+00 0. -1.
        -12    1    5    5    0    0 -0.39294826796E+02 -0.71475357041E+02  0.79426309114E+03  0.79844014680E+03  0.00000000000E+00 0.  1.
          5    1    4    4  501    0 -0.20690997455E+02 -0.16584598112E+02  0.26196453282E+02  0.37508570151E+02  0.41800000000E+01 0.  1.
         -5    1    4    4    0  501  0.32253010213E+02  0.15171430596E+03  0.63667844838E+02  0.16771569446E+03  0.41800000000E+01 0.  1.
</event>
<event>
11    1  0.8453735E-009  0.1361606E+03  0.7561462E-02  0.1111923E+00
         22   -1    0    0    0    0  0.00000000000E+00  0.00000000000E+00  0.14986827479E+04  0.14986827479E+04  0.00000000000E+00 0. -1.
         22   -1    0    0    0    0 -0.00000000000E+00 -0.00000000000E+00 -0.93788147748E+02  0.93788147748E+02  0.00000000000E+00 0. -1.
        -24    2    1    2    0    0 -0.73247555443E+01 -0.55850780242E+02 -0.50665900777E+02  0.11188650504E+03  0.82332222198E+02 0.  0.
         25    2    1    2    0    0  0.37881588523E+02  0.13771726084E+02  0.40573370177E+03  0.42648559910E+03  0.12508179045E+03 0.  0.
         24    2    1    2    0    0 -0.30556832979E+02  0.42079054157E+02  0.10498267992E+04  0.10540987915E+04  0.79269080830E+02 0.  0.
        -13    1    5    5    0    0 -0.55169989858E+02  0.13029468822E+02  0.61247174728E+03  0.61508953499E+03  0.00000000000E+00 0.  1.
         14    1    5    5    0    0  0.24613156879E+02  0.29049585335E+02  0.43735505188E+03  0.43900925651E+03  0.00000000000E+00 0. -1.
         13    1    3    3    0    0 -0.27697123038E+02 -0.22144168737E+02 -0.61541954697E+02  0.71027508908E+02  0.00000000000E+00 0. -1.
        -14    1    3    3    0    0  0.20372367493E+02 -0.33706611504E+02  0.10876053920E+02  0.40858996136E+02  0.00000000000E+00 0.  1.
          5    1    4    4  501    0  0.19456932088E+02  0.69618792970E+02  0.21763781617E+03  0.22936660604E+03  0.41800000000E+01 0.  1.
         -5    1    4    4    0  501  0.18424656435E+02 -0.55847066886E+02  0.18809588560E+03  0.19711899306E+03  0.41800000000E+01 0.  1.
</event>
<event>
11    1  0.8453735E-009  0.2388292E+03  0.7561462E-02  0.1030024E+00
         22   -1    0    0    0    0  0.00000000000E+00  0.00000000000E+00  0.20444660236E+03  0.20444660236E+03  0.00000000000E+00 0.  1.
         22   -1    0    0    0    0 -0.00000000000E+00 -0.00000000000E+00 -0.44722335339E+03  0.44722335339E+03  0.00000000000E+00 0.  1.
         24    2    1    2    0    0  0.10084637858E+02 -0.62833616433E+02 -0.13665451992E+03  0.17093052924E+03  0.80579307128E+02 0.  0.
         25    2    1    2    0    0  0.14362212902E+03  0.17630051052E+03 -0.87371473079E+02  0.27384785924E+03  0.12509872002E+03 0.  0.
        -24    2    1    2    0    0 -0.15370676688E+03 -0.11346689408E+03 -0.18750758027E+02  0.20689156727E+03  0.77149358025E+02 0.  0.
        -13    1    3    3    0    0 -0.33429702796E+02 -0.11652508890E+02 -0.50730317134E+02  0.61861870882E+02  0.00000000000E+00 0.  1.
         14    1    3    3    0    0  0.43514340654E+02 -0.51181107543E+02 -0.85924202789E+02  0.10906865836E+03  0.00000000000E+00 0. -1.
         13    1    5    5    0    0 -0.42137083344E+02 -0.59576344034E+01  0.20236819992E+02  0.47122776699E+02  0.00000000000E+00 0. -1.
        -14    1    5    5    0    0 -0.11156968354E+03 -0.10750925968E+03 -0.38987578018E+02  0.15976879057E+03  0.00000000000E+00 0.  1.
          5    1    4    4  501    0  0.11427358395E+02 -0.19653028907E+02 -0.71415803740E+01  0.24192987318E+02  0.41800000000E+01 0. -1.
         -5    1    4    4    0  501  0.13219477063E+03  0.19595353942E+03 -0.80229892705E+02  0.24965487193E+03  0.41800000000E+01 0. -1.
</event>
<event>
11    1  0.8453735E-009  0.1316605E+03  0.7561462E-02  0.1117245E+00
         22   -1    0    0    0    0  0.00000000000E+00  0.00000000000E+00  0.29248716205E+03  0.29248716205E+03  0.00000000000E+00 0. -1.
         22   -1    0    0    0    0 -0.00000000000E+00 -0.00000000000E+00 -0.28472549456E+03  0.28472549456E+03  0.00000000000E+00 0.  1.
         24    2    1    2    0    0 -0.40094662202E+02  0.91883469303E+01 -0.11922160512E+03  0.14918104623E+03  0.79681778157E+02 0.  0.
         25    2    1    2    0    0  0.42609216089E+02  0.31415927260E+02 -0.11063294550E+03  0.17518828350E+03  0.12509508489E+03 0.  0.
        -24    2    1    2    0    0 -0.25145538870E+01 -0.40604274191E+02  0.23761621812E+03  0.25284332687E+03  0.76244676989E+02 0.  0.
        -13    1    3    3    0    0 -0.55468750863E+02 -0.30598043815E+01 -0.11684813030E+03  0.12938172313E+03  0.00000000000E+00 0.  1.
         14    1    3    3    0    0  0.15374088661E+02  0.12248151312E+02 -0.23734748263E+01  0.19799323106E+02  0.00000000000E+00 0. -1.
         13    1    5    5    0    0 -0.40738324149E+01 -0.58957339832E+02  0.21827845682E+03  0.22613723431E+03  0.00000000000E+00 0. -1.
        -14    1    5    5    0    0  0.15592785279E+01  0.18353065641E+02  0.19337761294E+02  0.26706092560E+02  0.00000000000E+00 0.  1.
          5    1    4    4  501    0  0.70687319948E+02  0.72190037802E+01 -0.11738730629E+03  0.13728096479E+03  0.41800000000E+01 0.  1.
         -5    1    4    4    0  501 -0.28078103858E+02  0.24196923480E+02  0.67543607821E+01  0.37907318710E+02  0.41800000000E+01 0.  1.
</event>
<event>
11    1  0.8453735E-009  0.1447013E+03  0.7561462E-02  0.1102419E+00
         22   -1    0    0    0    0  0.00000000000E+00  0.00000000000E+00  0.11550730828E+03  0.11550730828E+03  0.00000000000E+00 0.  1.
         22   -1    0    0    0    0 -0.00000000000E+00 -0.00000000000E+00 -0.12406971684E+04  0.12406971684E+04  0.00000000000E+00 0. -1.
         24    2    1    2    0    0  0.57430127558E+02 -0.45656731736E+02 -0.10522802942E+04  0.10579182845E+04  0.80712591961E+02 0.  0.
         25    2    1    2    0    0 -0.72652818816E+02  0.11357209592E+02 -0.12891416771E+03  0.19412157472E+03  0.12512755430E+03 0.  0.
        -24    2    1    2    0    0  0.15222691258E+02  0.34299522144E+02  0.56004601715E+02  0.10416461749E+03  0.79407585120E+02 0.  0.
        -13    1    3    3    0    0 -0.12202663464E+02 -0.13100781610E+01 -0.31519297277E+02  0.33824361062E+02  0.00000000000E+00 0.  1.
         14    1    3    3    0    0  0.69632791022E+02 -0.44346653575E+02 -0.10207609969E+04  0.10240939235E+04  0.00000000000E+00 0. -1.
         11    1    5    5    0    0  0.20774902845E+02  0.52493046497E+02  0.14165835030E+02  0.58204702566E+02  0.00000000000E+00 0. -1.
        -12    1    5    5    0    0 -0.55522115867E+01 -0.18193524353E+02  0.41838766685E+02  0.45959914921E+02  0.00000000000E+00 0.  1.
          5    1    4    4  501    0 -0.10350079506E+03  0.30170116588E+02 -0.86777242018E+02  0.13845725927E+03  0.41800000000E+01 0.  1.
         -5    1    4    4    0  501  0.30847976244E+02 -0.18812906996E+02 -0.42136925688E+02  0.55664315449E+02  0.41800000000E+01 0.  1.
</event>
<event>
11    1  0.8453735E-009  0.1364739E+03  0.7561462E-02  0.1111561E+00
         22   -1    0    0    0    0  0.00000000000E+00  0.00000000000E+00  0.31000074922E+04  0.31000074922E+04  0.00000000000E+00 0.  1.
         22   -1    0    0    0    0 -0.00000000000E+00 -0.00000000000E+00 -0.17020364001E+03  0.17020364001E+03  0.00000000000E+00 0. -1.
        -24    2    1    2    0    0 -0.35199394174E+02 -0.40647448369E+02 -0.14603006941E+03  0.17463186010E+03  0.79248299548E+02 0.  0.
         25    2    1    2    0    0  0.56627530327E+02  0.71945404674E+02  0.65199397955E+03  0.67016894189E+03  0.12508973926E+03 0.  0.
         24    2    1    2    0    0 -0.21428136153E+02 -0.31297956305E+02  0.24238399421E+04  0.24254103302E+04  0.78590572991E+02 0.  0.
        -13    1    5    5    0    0 -0.48841654789E+02 -0.31571276400E+02  0.14080920866E+04  0.14092925804E+04  0.00000000000E+00 0.  1.
         14    1    5    5    0    0  0.27413518636E+02  0.27332009483E+00  0.10157478555E+04  0.10161177499E+04  0.00000000000E+00 0. -1.
         13    1    3    3    0    0 -0.13158683786E+02 -0.37269782860E+02 -0.14709088770E+03  0.15230862391E+03  0.00000000000E+00 0. -1.
        -14    1    3    3    0    0 -0.22040710388E+02 -0.33776655096E+01  0.10608182864E+01  0.22323236193E+02  0.00000000000E+00 0.  1.
          5    1    4    4  501    0 -0.17231712161E+02  0.77512049433E+02  0.38065161986E+03  0.38886781534E+03  0.41800000000E+01 0.  1.
         -5    1    4    4    0  501  0.73859242488E+02 -0.55666447590E+01  0.27134235969E+03  0.28130112655E+03  0.41800000000E+01 0.  1.
</event>
<event>
11    1  0.1045399E-008  0.1424800E+03  0.7561462E-02  0.1104820E+00
         22   -1    0    0    0    0  0.00000000000E+00  0.00000000000E+00  0.13231544277E+04  0.13231544277E+04  0.00000000000E+00 0. -1.
         22   -1    0    0    0    0 -0.00000000000E+00 -0.00000000000E+00 -0.22176230062E+03  0.22176230062E+03  0.00000000000E+00 0.  1.
         24    2    1    2    0    0  0.27117095703E+02 -0.29423208771E+02 -0.89501606974E+02  0.12679964980E+03  0.80414870788E+02 0.  0.
         25    2    1    2    0    0 -0.94706542885E+02  0.25408236080E+02 -0.54686448682E+02  0.16808885944E+03  0.12509336222E+03 0.  0.
        -24    2    1    2    0    0  0.67589447181E+02  0.40149726908E+01  0.12455801827E+04  0.12500282191E+04  0.80722385571E+02 0.  0.
        -11    1    3    3    0    0  0.26782124376E+02 -0.50819369459E+02 -0.88333078050E+02  0.10536898584E+03  0.00000000000E+00 0.  1.
         12    1    3    3    0    0  0.33497132678E+00  0.21396160688E+02 -0.11685289243E+01  0.21430663961E+02  0.00000000000E+00 0. -1.
         13    1    5    5    0    0  0.22962616009E+01  0.84215333072E+01  0.76089325334E+03  0.76094332116E+03  0.00000000000E+00 0. -1.
        -14    1    5    5    0    0  0.65293185581E+02 -0.44065606165E+01  0.48468692937E+03  0.48908489791E+03  0.00000000000E+00 0.  1.
          5    1    4    4  501    0 -0.94266584824E+02  0.41620424255E+02  0.77728128424E+01  0.10342310065E+03  0.41800000000E+01 0.  1.
         -5    1    4    4    0  501 -0.43995806025E+00 -0.16212188175E+02 -0.62459261524E+02  0.64665758780E+02  0.41800000000E+01 0.  1.
</event>
<event>
11    1  0.8453735E-009  0.1536702E+03  0.7561462E-02  0.1093187E+00
         22   -1    0    0    0    0  0.00000000000E+00  0.00000000000E+00  0.18443910318E+03  0.18443910318E+03  0.00000000000E+00 0. -1.
         22   -1    0    0    0    0 -0.00000000000E+00 -0.00000000000E+00 -0.69169404148E+03  0.69169404148E+03  0.00000000000E+00 0. -1.
         24    2    1    2    0    0 -0.18000873276E+01  0.83214353854E+02 -0.32493381884E+03  0.34544963690E+03  0.82617165342E+02 0.  0.
         25    2    1    2    0    0  0.77732952631E+01 -0.99948457015E+02 -0.32730912846E+03  0.36445791443E+03  0.12509271616E+03 0.  0.
        -24    2    1    2    0    0 -0.59732079355E+01  0.16734103161E+02  0.14498800900E+03  0.16622559333E+03  0.79332942098E+02 0.  0.
        -13    1    3    3    0    0 -0.29798003717E+02  0.72606858602E+01 -0.48296511420E+02  0.57211813465E+02  0.00000000000E+00 0.  1.
         14    1    3    3    0    0  0.27997916389E+02  0.75953667994E+02 -0.27663730742E+03  0.28823782344E+03  0.00000000000E+00 0. -1.
         11    1    5    5    0    0 -0.41397131401E+02  0.19512804319E+02  0.81814633662E+02  0.93744900138E+02  0.00000000000E+00 0. -1.
        -12    1    5    5    0    0  0.35423923465E+02 -0.27787011582E+01  0.63173375337E+02  0.72480693190E+02  0.00000000000E+00 0.  1.
          5    1    4    4  501    0 -0.20392312710E+02 -0.11337199847E+03 -0.17942243808E+03  0.21325791929E+03  0.41800000000E+01 0. -1.
         -5    1    4    4    0  501  0.28165607973E+02  0.13423541451E+02 -0.14788669038E+03  0.15119999514E+03  0.41800000000E+01 0. -1.
</event>
<event>
11    1  0.8453735E-009  0.1351350E+03  0.7561462E-02  0.1113116E+00
         22   -1    0    0    0    0  0.00000000000E+00  0.00000000000E+00  0.12284327861E+04  0.12284327861E+04  0.00000000000E+00 0. -1.
         22   -1    0    0    0    0 -0.00000000000E+00 -0.00000000000E+00 -0.78909970546E+03  0.78909970546E+03  0.00000000000E+00 0. -1.
         24    2    1    2    0    0 -0.57341442723E+02  0.23473649454E+02 -0.49955942038E+03  0.50969655777E+03  0.79949441752E+02 0.  0.
         25    2    1    2    0    0  0.13428957085E+02 -0.20274774876E+02 -0.26860454334E+03  0.29729464750E+03  0.12507718954E+03 0.  0.
        -24    2    1    2    0    0  0.43912485638E+02 -0.31988745771E+01  0.12074970443E+04  0.12105412863E+04  0.73637996211E+02 0.  0.
        -13    1    3    3    0    0 -0.30048462212E+00 -0.16524278977E+02 -0.25142603012E+03  0.25196863040E+03  0.00000000000E+00 0.  1.
         14    1    3    3    0    0 -0.57040958101E+02  0.39997928430E+02 -0.24813339027E+03  0.25772792737E+03  0.00000000000E+00 0. -1.
         11    1    5    5    0    0  0.23935924200E+01  0.17975939582E+02  0.82722983070E+03  0.82742858090E+03  0.00000000000E+00 0. -1.
        -12    1    5    5    0    0  0.41518893218E+02 -0.21174814159E+02  0.38026721362E+03  0.38311270535E+03  0.00000000000E+00 0.  1.
          5    1    4    4  501    0 -0.20022297590E+02  0.20203786802E+02 -0.23048464389E+03  0.23227080934E+03  0.41800000000E+01 0. -1.
         -5    1    4    4    0  501  0.33451254675E+02 -0.40478561679E+02 -0.38119899450E+02  0.65023838160E+02  0.41800000000E+01 0. -1.
</event>
<event>
11    1  0.8453735E-009  0.1478885E+03  0.7561462E-02  0.1099056E+00
         22   -1    0    0    0    0  0.00000000000E+00  0.00000000000E+00  0.15912156721E+03  0.15912156721E+03  0.00000000000E+00 0.  1.
         22   -1    0    0    0    0 -0.00000000000E+00 -0.00000000000E+00 -0.16674156840E+04  0.16674156840E+04  0.00000000000E+00 0.  1.
         24    2    1    2    0    0 -0.77216597899E+02  0.18618895512E+02 -0.15392137925E+04  0.15434938989E+04  0.82977410455E+02 0.  0.
         25    2    1    2    0    0  0.40556652767E+02 -0.88121617758E+02 -0.21110837795E+02  0.15970094191E+03  0.12509381189E+03 0.  0.
        -24    2    1    2    0    0  0.36659945131E+02  0.69502722246E+02  0.52030513502E+02  0.12334241042E+03  0.79571325836E+02 0.  0.
        -11    1    3    3    0    0 -0.94302906107E+02  0.10188695442E+02 -0.13480956670E+04  0.13514284202E+04  0.00000000000E+00 0.  1.
         12    1    3    3    0    0  0.17086308208E+02  0.84302000701E+01 -0.19111812545E+03  0.19206547862E+03  0.00000000000E+00 0. -1.
         11    1    5    5    0    0  0.48367790718E+02  0.88932227987E+01  0.30974573823E+02  0.58120192827E+02  0.00000000000E+00 0. -1.
        -12    1    5    5    0    0 -0.11707845586E+02  0.60609499447E+02  0.21055939678E+02  0.65222217589E+02  0.00000000000E+00 0.  1.
          5    1    4    4  501    0 -0.52694522651E+01  0.29780657133E+02  0.36158488187E+01  0.30744128368E+02  0.41800000000E+01 0.  1.
         -5    1    4    4    0  501  0.45826105032E+02 -0.11790227489E+03 -0.24726686614E+02  0.12895681354E+03  0.41800000000E+01 0.  1.
</event>
<event>
11    1  0.8453735E-009  0.1621567E+03  0.7561462E-02  0.1085066E+00
         22   -1    0    0    0    0  0.00000000000E+00  0.00000000000E+00  0.22480096734E+03  0.22480096734E+03  0.00000000000E+00 0.  1.
         22   -1    0    0    0    0 -0.00000000000E+00 -0.00000000000E+00 -0.53862041673E+03  0.53862041673E+03  0.00000000000E+00 0.  1.
         24    2    1    2    0    0  0.99238153071E+02  0.56539067261E+02 -0.33719633517E+03  0.36345513495E+03  0.73166860832E+02 0.  0.
         25    2    1    2    0    0 -0.94905935769E+02  0.45158285288E+02 -0.12305665649E+03  0.20453878434E+03  0.12508703457E+03 0.  0.
        -24    2    1    2    0    0 -0.43322173020E+01 -0.10169735255E+03  0.14643354226E+03  0.19542746478E+03  0.79924915181E+02 0.  0.
        -13    1    3    3    0    0  0.59873568679E+02  0.27827812948E+02 -0.28290309456E+03  0.29050540840E+03  0.00000000000E+00 0.  1.
         14    1    3    3    0    0  0.39364584392E+02  0.28711254314E+02 -0.54293240610E+02  0.72949726555E+02  0.00000000000E+00 0. -1.
         11    1    5    5    0    0 -0.42430674698E+01 -0.59460705093E+02  0.21210086475E+02  0.63272796998E+02  0.00000000000E+00 0. -1.
        -12    1    5    5    0    0 -0.89149832242E-01 -0.42236647457E+02  0.12522345579E+03  0.13215466778E+03  0.00000000000E+00 0.  1.
          5    1    4    4  501    0  0.21017498034E+02  0.36953892152E+02 -0.13575381186E+02  0.44822859605E+02  0.41800000000E+01 0. -1.
         -5    1    4    4    0  501 -0.11592343380E+03  0.82043931357E+01 -0.10948127531E+03  0.15971592474E+03  0.41800000000E+01 0. -1.
</event>
<event>
11    1  0.8453735E-009  0.1791804E+03  0.7561462E-02  0.1070308E+00
         22   -1    0    0    0    0  0.00000000000E+00  0.00000000000E+00  0.26021004125E+04  0.26021004125E+04  0.00000000000E+00 0. -1.
         22   -1    0    0    0    0 -0.00000000000E+00 -0.00000000000E+00 -0.71008076430E+02  0.71008076430E+02  0.00000000000E+00 0. -1.
         24    2    1    2    0    0  0.77089557016E+02  0.91087222835E+02  0.50429332311E+02  0.14993514090E+03  0.75483421723E+02 0.  0.
         25    2    1    2    0    0 -0.18586391985E+03 -0.10524336382E+03  0.81368037741E+03  0.85049690672E+03  0.12509064486E+03 0.  0.
        -24    2    1    2    0    0  0.10877436283E+03  0.14156140982E+02  0.16669826264E+04  0.16726764413E+04  0.83565198615E+02 0.  0.
        -11    1    3    3    0    0  0.50306466723E+01  0.51491315554E+02  0.43192211917E+02  0.67396069275E+02  0.00000000000E+00 0.  1.
         12    1    3    3    0    0  0.72058910344E+02  0.39595907281E+02  0.72371203936E+01  0.82539071626E+02  0.00000000000E+00 0. -1.
         13    1    5    5    0    0  0.11678718129E+03  0.28683366716E+02  0.15231883786E+04  0.15279282765E+04  0.00000000000E+00 0. -1.
        -14    1    5    5    0    0 -0.80128184576E+01 -0.14527225734E+02  0.14379424774E+03  0.14474816486E+03  0.00000000000E+00 0.  1.
          5    1    4    4  501    0 -0.11096746258E+03  0.25013719194E+01  0.46045513784E+03  0.47366279247E+03  0.41800000000E+01 0.  1.
         -5    1    4    4    0  501 -0.74896457272E+02 -0.10774473574E+03  0.35322523958E+03  0.37683411425E+03  0.41800000000E+01 0.  1.
</event>
<event>
11    1  0.8453735E-009  0.1365830E+03  0.7561462E-02  0.1111435E+00
         22   -1    0    0    0    0  0.00000000000E+00  0.00000000000E+00  0.36458638997E+03  0.36458638997E+03  0.00000000000E+00 0. -1.
         22   -1    0    0    0    0 -0.00000000000E+00 -0.00000000000E+00 -0.10714792898E+04  0.10714792898E+04  0.00000000000E+00 0.  1.
         24    2    1    2    0    0  0.83009567658E+00  0.10537668777E+02 -0.76539934602E+03  0.76979784884E+03  0.81491334931E+02 0.  0.
         25    2    1    2    0    0 -0.46197512952E+02  0.20470807835E+02 -0.28181989574E+03  0.31244787408E+03  0.12509179110E+03 0.  0.
        -24    2    1    2    0    0  0.45367417275E+02 -0.31008476613E+02  0.34032634197E+03  0.35381995681E+03  0.79666897930E+02 0.  0.
        -13    1    3    3    0    0  0.37475804742E+02  0.21164192619E+02 -0.46432315356E+03  0.46631357467E+03  0.00000000000E+00 0.  1.
         14    1    3    3    0    0 -0.36645709066E+02 -0.10626523841E+02 -0.30107619246E+03  0.30348427417E+03  0.00000000000E+00 0. -1.
         11    1    5    5    0    0  0.44743993229E+02 -0.33457738384E+01  0.30807680755E+03  0.31132706032E+03  0.00000000000E+00 0. -1.
        -12    1    5    5    0    0  0.62342404588E+00 -0.27662702774E+02  0.32249534417E+02  0.42492896493E+02  0.00000000000E+00 0.  1.
          5    1    4    4  501    0  0.27222880509E+02  0.48442064470E+02 -0.10367200220E+03  0.11769908782E+03  0.41800000000E+01 0.  1.
         -5    1    4    4    0  501 -0.73420393461E+02 -0.27971256635E+02 -0.17814789355E+03  0.19474878626E+03  0.41800000000E+01 0.  1.
</event>
<event>
11    1  0.8453735E-009  0.1850645E+03  0.7561462E-02  0.1065618E+00
         22   -1    0    0    0    0  0.00000000000E+00  0.00000000000E+00  0.15871214126E+04  0.15871214126E+04  0.00000000000E+00 0. -1.
         22   -1    0    0    0    0 -0.00000000000E+00 -0.00000000000E+00 -0.42256869876E+03  0.42256869876E+03  0.00000000000E+00 0.  1.
         24    2    1    2    0    0  0.90974111977E+01  0.12982727022E+02 -0.94942128558E+02  0.12541185757E+03  0.80391617421E+02 0.  0.
         25    2    1    2    0    0 -0.11499945355E+02  0.12355179783E+03 -0.28311963374E+03  0.33346861774E+03  0.12508915429E+03 0.  0.
        -24    2    1    2    0    0  0.24025341578E+01 -0.13653452485E+03  0.15426144761E+04  0.15508096360E+04  0.81875861119E+02 0.  0.
        -13    1    3    3    0    0 -0.32346504788E+02 -0.96261358543E+01 -0.49311183013E+02  0.59754093028E+02  0.00000000000E+00 0.  1.
         14    1    3    3    0    0  0.41443915985E+02  0.22608862876E+02 -0.45630945545E+02  0.65657764538E+02  0.00000000000E+00 0. -1.
         11    1    5    5    0    0 -0.32009577009E+02 -0.98037568282E+02  0.11861220154E+04  0.11905970827E+04  0.00000000000E+00 0. -1.
        -12    1    5    5    0    0  0.34412111167E+02 -0.38496956569E+02  0.35649246071E+03  0.36021255337E+03  0.00000000000E+00 0.  1.
          5    1    4    4  501    0  0.18378207314E+02  0.59145377854E+02 -0.27064021147E+02  0.67719036218E+02  0.41800000000E+01 0.  1.
         -5    1    4    4    0  501 -0.29878152670E+02  0.64406419976E+02 -0.25605561259E+03  0.26574958153E+03  0.41800000000E+01 0.  1.
</event>
<event>
11    1  0.8453735E-009  0.3515955E+03  0.7561462E-02  0.9804473E-01
         22   -1    0    0    0    0  0.00000000000E+00  0.00000000000E+00  0.35139523485E+03  0.35139523485E+03  0.00000000000E+00 0.  1.
         22   -1    0    0    0    0 -0.00000000000E+00 -0.00000000000E+00 -0.28007185936E+04  0.28007185936E+04  0.00000000000E+00 0.  1.
        -24    2    1    2    0    0  0.89887643876E+02 -0.29737574581E+03 -0.18801079542E+04  0.19073019137E+04  0.80514272274E+02 0.  0.
         25    2    1    2    0    0 -0.15195958029E+03  0.36212699686E+03 -0.84727288089E+03  0.94220336044E+03  0.12509261309E+03 0.  0.
         24    2    1    2    0    0  0.62071936417E+02 -0.64751251046E+02  0.27805747632E+03  0.30260855427E+03  0.78805629074E+02 0.  0.
        -11    1    5    5    0    0  0.79595961505E+02 -0.53127016160E+02  0.19918933530E+03  0.22098504074E+03  0.00000000000E+00 0.  1.
         12    1    5    5    0    0 -0.17524025088E+02 -0.11624234885E+02  0.78868141019E+02  0.81623513522E+02  0.00000000000E+00 0. -1.
         11    1    3    3    0    0  0.20154441242E+02 -0.79914335856E+02 -0.31420944901E+03  0.32483854517E+03  0.00000000000E+00 0. -1.
        -12    1    3    3    0    0  0.69733202635E+02 -0.21746140996E+03 -0.15658985052E+04  0.15824633686E+04  0.00000000000E+00 0.  1.
          5    1    4    4  501    0  0.13835631705E+02  0.54611936649E+02 -0.18481892377E+03  0.19325991647E+03  0.41800000000E+01 0.  1.
         -5    1    4    4    0  501 -0.16579521200E+03  0.30751506021E+03 -0.66245395712E+03  0.74894344398E+03  0.41800000000E+01 0.  1.
</event>
<event>
11    1  0.8453735E-009  0.1710584E+03  0.7561462E-02  0.1077114E+00
         22   -1    0    0    0    0  0.00000000000E+00  0.00000000000E+00  0.51700196932E+02  0.51700196932E+02  0.00000000000E+00 0.  1.
         22   -1    0    0    0    0 -0.00000000000E+00 -0.00000000000E+00 -0.14860502368E+04  0.14860502368E+04  0.00000000000E+00 0.  1.
        -24    2    1    2    0    0  0.69906111872E+02  0.79861128656E+02 -0.56810280332E+03  0.58310682119E+03  0.77511969556E+02 0.  0.
         25    2    1    2    0    0 -0.85710921210E+02  0.47501985334E+02 -0.74089221376E+03  0.75774020355E+03  0.12508454358E+03 0.  0.
         24    2    1    2    0    0  0.15804809338E+02 -0.12736311399E+03 -0.12535502279E+03  0.19690340900E+03  0.81153656315E+02 0.  0.
        -11    1    5    5    0    0 -0.26617237274E+02 -0.91027527145E+02 -0.90336047279E+02  0.13097743873E+03  0.00000000000E+00 0.  1.
         12    1    5    5    0    0  0.42422046612E+02 -0.36335586845E+02 -0.35018975513E+02  0.65925970270E+02  0.00000000000E+00 0. -1.
         11    1    3    3    0    0  0.36250681118E+02 -0.56563631659E+01 -0.22195059166E+03  0.22496260015E+03  0.00000000000E+00 0. -1.
        -12    1    3    3    0    0  0.33655430754E+02  0.85517491822E+02 -0.34615221166E+03  0.35814422104E+03  0.00000000000E+00 0.  1.
          5    1    4    4  501    0 -0.27643380013E+02  0.85111752141E+02 -0.41514009105E+03  0.42469628490E+03  0.41800000000E+01 0. -1.
         -5    1    4    4    0  501 -0.58067541198E+02 -0.37609766807E+02 -0.32575212271E+03  0.33304391866E+03  0.41800000000E+01 0. -1.
</event>
<event>
11    1  0.8453735E-009  0.1305766E+03  0.7561462E-02  0.1118563E+00
         22   -1    0    0    0    0  0.00000000000E+00  0.00000000000E+00  0.92779358097E+02  0.92779358097E+02  0.00000000000E+00 0.  1.
         22   -1    0    0    0    0 -0.00000000000E+00 -0.00000000000E+00 -0.20074016839E+04  0.20074016839E+04  0.00000000000E+00 0. -1.
         24    2    1    2    0    0 -0.14524992161E+02 -0.34641328236E+02 -0.18271728335E+04  0.18293228776E+04  0.80315814074E+02 0.  0.
         25    2    1    2    0    0  0.36438716171E+02  0.22029384420E+02 -0.12162364733E+03  0.17958924710E+03  0.12508761837E+03 0.  0.
        -24    2    1    2    0    0 -0.21913724010E+02  0.12611943816E+02  0.34174155096E+02  0.91268917237E+02  0.80764286354E+02 0.  0.
        -13    1    3    3    0    0 -0.35299918440E+02  0.79911822720E+01 -0.11062045033E+04  0.11067964341E+04  0.00000000000E+00 0.  1.
         14    1    3    3    0    0  0.20774926280E+02 -0.42632510508E+02 -0.72096833019E+03  0.72252644357E+03  0.00000000000E+00 0. -1.
         11    1    5    5    0    0  0.28039302375E+01  0.27729159862E+02 -0.16867266570E+02  0.32577185467E+02  0.00000000000E+00 0. -1.
        -12    1    5    5    0    0 -0.24717654248E+02 -0.15117216046E+02  0.51041421666E+02  0.58691731770E+02  0.00000000000E+00 0.  1.
          5    1    4    4  501    0 -0.43689801563E+01  0.40995121966E+02  0.80963423116E+01  0.42222164457E+02  0.41800000000E+01 0.  1.
         -5    1    4    4    0  501  0.40807696327E+02 -0.18965737545E+02 -0.12971998964E+03  0.13736708264E+03  0.41800000000E+01 0.  1.
</event>
<event>
11    1  0.8453735E-009  0.1532742E+03  0.7561462E-02  0.1093579E+00
         22   -1    0    0    0    0  0.00000000000E+00  0.00000000000E+00  0.16988092410E+04  0.16988092410E+04  0.00000000000E+00 0. -1.
         22   -1    0    0    0    0 -0.00000000000E+00 -0.00000000000E+00 -0.13208771577E+03  0.13208771577E+03  0.00000000000E+00 0.  1.
        -24    2    1    2    0    0  0.34663840008E+01 -0.89078486089E+02 -0.93413326610E+02  0.15175692491E+03  0.79731563176E+02 0.  0.
         25    2    1    2    0    0 -0.31246925930E+01  0.75269522159E+02  0.67495569139E+03  0.69057007936E+03  0.12508630817E+03 0.  0.
         24    2    1    2    0    0 -0.34169140781E+00  0.13808963930E+02  0.98517916050E+03  0.98856995254E+03  0.80633544888E+02 0.  0.
        -13    1    5    5    0    0  0.31817099951E+01  0.11904072241E+02  0.20752421023E+02  0.24134895747E+02  0.00000000000E+00 0.  1.
         14    1    5    5    0    0 -0.35234014029E+01  0.19048916891E+01  0.96442673947E+03  0.96443505680E+03  0.00000000000E+00 0. -1.
         13    1    3    3    0    0 -0.37382130992E+02 -0.31134162458E+02 -0.35759461199E+02  0.60377966632E+02  0.00000000000E+00 0. -1.
        -14    1    3    3    0    0  0.40848514993E+02 -0.57944323632E+02 -0.57653865412E+02  0.91378958273E+02  0.00000000000E+00 0.  1.
          5    1    4    4  501    0  0.40109325469E+01  0.61453903708E+02  0.11615577820E+03  0.13153823425E+03  0.41800000000E+01 0.  1.
         -5    1    4    4    0  501 -0.71356251399E+01  0.13815618451E+02  0.55879991319E+03  0.55903184511E+03  0.41800000000E+01 0.  1.
</event>
<event>
11    1  0.8453735E-009  0.1354383E+03  0.7561462E-02  0.1112762E+00
         22   -1    0    0    0    0  0.00000000000E+00  0.00000000000E+00  0.15370247965E+03  0.15370247965E+03  0.00000000000E+00 0.  1.
         22   -1    0    0    0    0 -0.00000000000E+00 -0.00000000000E+00 -0.29762335425E+04  0.29762335425E+04  0.00000000000E+00 0.  1.
        -24    2    1    2    0    0 -0.21711296728E+02 -0.46786934002E+02 -0.28256861199E+04  0.28273191300E+04  0.81061811001E+02 0.  0.
         25    2    1    2    0    0 -0.82086152545E+01  0.80121522768E+02 -0.89150707178E+02  0.17344312180E+03  0.12509127921E+03 0.  0.
         24    2    1    2    0    0  0.29919911982E+02 -0.33334588766E+02  0.92305764199E+02  0.12917377036E+03  0.78480015955E+02 0.  0.
        -11    1    5    5    0    0  0.17907607826E+01 -0.29737172568E+02  0.96055017116E+02  0.10056874549E+03  0.00000000000E+00 0.  1.
         12    1    5    5    0    0  0.28129151200E+02 -0.35974161984E+01 -0.37492529169E+01  0.28605024873E+02  0.00000000000E+00 0. -1.
         13    1    3    3    0    0 -0.30828672923E+02 -0.61189807963E+02 -0.26298886457E+04  0.26307810415E+04  0.00000000000E+00 0. -1.
        -14    1    3    3    0    0  0.91173761949E+01  0.14402873961E+02 -0.19579747420E+03  0.19653808849E+03  0.00000000000E+00 0.  1.
          5    1    4    4  501    0 -0.62450836163E+02  0.15841294111E+02 -0.38336080601E+02  0.75087821999E+02  0.41800000000E+01 0. -1.
         -5    1    4    4    0  501  0.54242220909E+02  0.64280228657E+02 -0.50814626577E+02  0.98355299804E+02  0.41800000000E+01 0. -1.
</event>
<event>
11    1  0.8453735E-009  0.1302199E+03  0.7561462E-02  0.1118999E+00
         22   -1    0    0    0    0  0.00000000000E+00  0.00000000000E+00  0.49819320848E+03  0.49819320848E+03  0.00000000000E+00 0.  1.
         22   -1    0    0    0    0 -0.00000000000E+00 -0.00000000000E+00 -0.18920465353E+03  0.18920465353E+03  0.00000000000E+00 0.  1.
         24    2    1    2    0    0 -0.36769739121E+02 -0.34455336186E+00 -0.14866221247E+03  0.17430838982E+03  0.83251600048E+02 0.  0.
         25    2    1    2    0    0  0.25905393962E+02  0.25519763759E+02  0.17724083067E+03  0.21996906607E+03  0.12509888166E+03 0.  0.
        -24    2    1    2    0    0  0.10864345158E+02 -0.25175210397E+02  0.28040993675E+03  0.29312040611E+03  0.80857990567E+02 0.  0.
        -11    1    3    3    0    0 -0.34956888653E+02 -0.19148984559E+02 -0.15015771553E+03  0.15535767508E+03  0.00000000000E+00 0.  1.
         12    1    3    3    0    0 -0.18128504677E+01  0.18804431197E+02  0.14955030572E+01  0.18950714732E+02  0.00000000000E+00 0. -1.
         13    1    5    5    0    0 -0.35310972915E+00  0.28927546979E+02  0.12085273093E+03  0.12426709232E+03  0.00000000000E+00 0. -1.
        -14    1    5    5    0    0  0.11217454888E+02 -0.54102757377E+02  0.15955720582E+03  0.16885331379E+03  0.00000000000E+00 0.  1.
          5    1    4    4  501    0  0.36708923302E+02 -0.43235713287E+02  0.10595805769E+03  0.12025578715E+03  0.41800000000E+01 0.  1.
         -5    1    4    4    0  501 -0.10803529340E+02  0.68755477046E+02  0.71282772985E+02  0.99713278927E+02  0.41800000000E+01 0.  1.
</event>
<event>
11    1  0.8453735E-009  0.1358345E+03  0.7561462E-02  0.1112301E+00
         22   -1    0    0    0    0  0.00000000000E+00  0.00000000000E+00  0.82710061822E+02  0.82710061822E+02  0.00000000000E+00 0. -1.
         22   -1    0    0    0    0 -0.00000000000E+00 -0.00000000000E+00 -0.14133866961E+04  0.14133866961E+04  0.00000000000E+00 0.  1.
        -24    2    1    2    0    0 -0.40368995093E+01  0.18577801271E+02 -0.12085817804E+04  0.12113182272E+04  0.79123298385E+02 0.  0.
         25    2    1    2    0    0  0.43199860985E+02 -0.49194003723E+02 -0.12814567170E+03  0.19067237539E+03  0.12509341937E+03 0.  0.
         24    2    1    2    0    0 -0.39162961476E+02  0.30616202452E+02  0.60508178103E+01  0.94106155360E+02  0.79676010670E+02 0.  0.
        -13    1    5    5    0    0 -0.29166036615E+02  0.56917338418E+02 -0.43636008003E+01  0.64103682549E+02  0.00000000000E+00 0.  1.
         14    1    5    5    0    0 -0.99969248612E+01 -0.26301135966E+02  0.10414418611E+02  0.30002472811E+02  0.00000000000E+00 0. -1.
         13    1    3    3    0    0  0.36038005981E+02  0.30411086790E+01 -0.69532387361E+03  0.69626379730E+03  0.00000000000E+00 0. -1.
        -14    1    3    3    0    0 -0.40074905490E+02  0.15536692592E+02 -0.51325790676E+03  0.51505442986E+03  0.00000000000E+00 0.  1.
          5    1    4    4  501    0 -0.57658764179E+01  0.39258342762E+02 -0.39566677469E+02  0.56191255309E+02  0.41800000000E+01 0. -1.
         -5    1    4    4    0  501  0.48965737403E+02 -0.88452346485E+02 -0.88578994233E+02  0.13448112008E+03  0.41800000000E+01 0. -1.
</event>
<event>
11    1  0.8453735E-009  0.1321452E+03  0.7561462E-02  0.1116661E+00
         22   -1    0    0    0    0  0.00000000000E+00  0.00000000000E+00  0.40381585373E+03  0.40381585373E+03  0.00000000000E+00 0. -1.
         22   -1    0    0    0    0 -0.00000000000E+00 -0.00000000000E+00 -0.67484522193E+03  0.67484522193E+03  0.00000000000E+00 0. -1.
         24    2    1    2    0    0  0.41857949382E+02  0.75368242370E+01 -0.62153352770E+03  0.62831949091E+03  0.81685769613E+02 0.  0.
         25    2    1    2    0    0 -0.45949471648E+02  0.28854521021E+01  0.47085056615E+02  0.14136317473E+03  0.12508742876E+03 0.  0.
        -24    2    1    2    0    0  0.40915222654E+01 -0.10422276339E+02  0.30341910288E+03  0.30897841003E+03  0.57263788513E+02 0.  0.
        -13    1    3    3    0    0 -0.23528488918E+01 -0.32324655406E+01  0.10031477217E+01  0.41220185262E+01  0.00000000000E+00 0.  1.
         14    1    3    3    0    0  0.44210798274E+02  0.10769289778E+02 -0.62253667542E+03  0.62419747238E+03  0.00000000000E+00 0. -1.
         13    1    5    5    0    0  0.19949924551E+01 -0.53291654078E+01  0.30341731410E+03  0.30347066826E+03  0.00000000000E+00 0. -1.
        -14    1    5    5    0    0  0.20965298102E+01 -0.50931109313E+01  0.17887783473E-02  0.55077417699E+01  0.00000000000E+00 0.  1.
          5    1    4    4  501    0 -0.10379646948E+02  0.24293956516E+02 -0.38074825424E+02  0.46530614922E+02  0.41800000000E+01 0. -1.
         -5    1    4    4    0  501 -0.35569824699E+02 -0.21408504414E+02  0.85159882039E+02  0.94832559806E+02  0.41800000000E+01 0. -1.
</event>
<event>
11    1  0.8453735E-009  0.6073836E+03  0.7561462E-02  0.9181157E-01
         22   -1    0    0    0    0  0.00000000000E+00  0.00000000000E+00  0.41081700972E+03  0.41081700972E+03  0.00000000000E+00 0. -1.
         22   -1    0    0    0    0 -0.00000000000E+00 -0.00000000000E+00 -0.11505138051E+04  0.11505138051E+04  0.00000000000E+00 0. -1.
        -24    2    1    2    0    0 -0.36027176894E+03  0.49933249142E+03 -0.56327720113E+03  0.83850970162E+03  0.81784044350E+02 0.  0.
         25    2    1    2    0    0  0.31138953972E+03 -0.46961372863E+03 -0.21439752199E+03  0.61572224040E+03  0.12508829009E+03 0.  0.
         24    2    1    2    0    0  0.48882229219E+02 -0.29718762785E+02  0.37977927789E+02  0.10709887277E+03  0.82189831206E+02 0.  0.
        -13    1    5    5    0    0  0.39445964372E+01 -0.49974340157E+02  0.12747795557E+02  0.51725243418E+02  0.00000000000E+00 0.  1.
         14    1    5    5    0    0  0.44937632781E+02  0.20255577372E+02  0.25230132231E+02  0.55373629347E+02  0.00000000000E+00 0. -1.
         11    1    3    3    0    0 -0.14685549761E+03  0.14393438666E+03 -0.20898525157E+03  0.29318676678E+03  0.00000000000E+00 0. -1.
        -12    1    3    3    0    0 -0.21341627133E+03  0.35539810476E+03 -0.35429194956E+03  0.54532293484E+03  0.00000000000E+00 0.  1.
          5    1    4    4  501    0  0.82921418228E+02 -0.53084805505E+02 -0.11850489325E+02  0.99256559852E+02  0.41800000000E+01 0. -1.
         -5    1    4    4    0  501  0.22846812149E+03 -0.41652892313E+03 -0.20254703267E+03  0.51646568054E+03  0.41800000000E+01 0. -1.
</event>
<event>
11    1  0.8453735E-009  0.1787663E+03  0.7561462E-02  0.1070645E+00
         22   -1    0    0    0    0  0.00000000000E+00  0.00000000000E+00  0.96009049516E+03  0.96009049516E+03  0.00000000000E+00 0.  1.
         22   -1    0    0    0    0 -0.00000000000E+00 -0.00000000000E+00 -0.30035517742E+03  0.30035517742E+03  0.00000000000E+00 0.  1.
        -24    2    1    2    0    0  0.29399036461E+02 -0.12345621671E+03 -0.25790409718E+03  0.29857890403E+03  0.80802832896E+02 0.  0.
         25    2    1    2    0    0 -0.61896725780E+02  0.14133281215E+03  0.59702948929E+03  0.62920389572E+03  0.12508862002E+03 0.  0.
         24    2    1    2    0    0  0.32497689319E+02 -0.17876595443E+02  0.32060992562E+03  0.33266287283E+03  0.80611352002E+02 0.  0.
        -11    1    5    5    0    0  0.34111738118E+02 -0.47540828165E+02  0.19513315019E+03  0.20371717484E+03  0.00000000000E+00 0.  1.
         12    1    5    5    0    0 -0.16140487984E+01  0.29664232722E+02  0.12547677543E+03  0.12894569799E+03  0.00000000000E+00 0. -1.
         11    1    3    3    0    0 -0.99777189390E+01 -0.92034771609E+02 -0.11864431288E+03  0.15048729860E+03  0.00000000000E+00 0. -1.
        -12    1    3    3    0    0  0.39376755400E+02 -0.31421445096E+02 -0.13925978429E+03  0.14809160543E+03  0.00000000000E+00 0.  1.
          5    1    4    4  501    0 -0.86412661980E+02  0.14623498929E+03  0.55166447720E+03  0.57723737582E+03  0.41800000000E+01 0. -1.
         -5    1    4    4    0  501  0.24515936201E+02 -0.49021771408E+01  0.45365012092E+02  0.51966519901E+02  0.41800000000E+01 0. -1.
</event>
<event>
11    1  0.8453735E-009  0.1794724E+03  0.7561462E-02  0.1070070E+00
         22   -1    0    0    0    0  0.00000000000E+00  0.00000000000E+00  0.18480818658E+04  0.18480818658E+04  0.00000000000E+00 0.  1.
         22   -1    0    0    0    0 -0.00000000000E+00 -0.00000000000E+00 -0.14381370433E+04  0.14381370433E+04  0.00000000000E+00 0.  1.
         24    2    1    2    0    0 -0.11323063111E+03  0.63532744010E+02 -0.14069376221E+04  0.14151978447E+04  0.80336056262E+02 0.  0.
         25    2    1    2    0    0  0.63764401001E+02 -0.33862161321E+02  0.17835684888E+03  0.22950460748E+03  0.12509458225E+03 0.  0.
        -24    2    1    2    0    0  0.49466230108E+02 -0.29670582689E+02  0.16385255957E+04  0.16415164570E+04  0.80516453769E+02 0.  0.
        -11    1    3    3    0    0 -0.10988933310E+03  0.76160427621E+02 -0.13573370944E+04  0.13639061787E+04  0.00000000000E+00 0.  1.
         12    1    3    3    0    0 -0.33412980100E+01 -0.12627683611E+02 -0.49600527620E+02  0.51291666048E+02  0.00000000000E+00 0. -1.
         11    1    5    5    0    0  0.15044708660E+02  0.19785001203E+02  0.17558597838E+03  0.17733647491E+03  0.00000000000E+00 0. -1.
        -12    1    5    5    0    0  0.34421521447E+02 -0.49455583892E+02  0.14629396173E+04  0.14641799821E+04  0.00000000000E+00 0.  1.
          5    1    4    4  501    0  0.66951503552E+02 -0.65872124521E+02  0.72311774090E+02  0.11860904556E+03  0.41800000000E+01 0. -1.
         -5    1    4    4    0  501 -0.31871025505E+01  0.32009963200E+02  0.10604507479E+03  0.11089556192E+03  0.41800000000E+01 0. -1.
</event>
<event>
11    1  0.8453735E-009  0.1865387E+03  0.7561462E-02  0.1064473E+00
         22   -1    0    0    0    0  0.00000000000E+00  0.00000000000E+00  0.16792704226E+03  0.16792704226E+03  0.00000000000E+00 0. -1.
         22   -1    0    0    0    0 -0.00000000000E+00 -0.00000000000E+00 -0.10306992145E+04  0.10306992145E+04  0.00000000000E+00 0.  1.
        -24    2    1    2    0    0 -0.11852008890E+02 -0.34318591859E+02 -0.80301860469E+03  0.80788136043E+03  0.80716647561E+02 0.  0.
         25    2    1    2    0    0 -0.11102776355E+03  0.94742038347E+02 -0.11307057202E+03  0.22301540687E+03  0.12509076438E+03 0.  0.
         24    2    1    2    0    0  0.12287977244E+03 -0.60423446489E+02  0.53317004517E+02  0.16772948943E+03  0.80870558863E+02 0.  0.
        -13    1    5    5    0    0  0.51605961135E+01 -0.33720548199E+02 -0.35459310280E+01  0.34296949572E+02  0.00000000000E+00 0.  1.
         14    1    5    5    0    0  0.11771917633E+03 -0.26702898290E+02  0.56862935544E+02  0.13343253985E+03  0.00000000000E+00 0. -1.
         11    1    3    3    0    0  0.34046238158E+01 -0.36258640724E+02 -0.13921463878E+03  0.14389925692E+03  0.00000000000E+00 0. -1.
        -12    1    3    3    0    0 -0.15256632706E+02  0.19400488655E+01 -0.66380396591E+03  0.66398210352E+03  0.00000000000E+00 0.  1.
          5    1    4    4  501    0 -0.57876713626E+02  0.49604300299E+02  0.14373873169E+02  0.77681279715E+02  0.41800000000E+01 0. -1.
         -5    1    4    4    0  501 -0.53151049928E+02  0.45137738048E+02 -0.12744444519E+03  0.14533412715E+03  0.41800000000E+01 0. -1.
</event>
<event>
11    1  0.8453735E-009  0.1286841E+03  0.7561462E-02  0.1120896E+00
         22   -1    0    0    0    0  0.00000000000E+00  0.00000000000E+00  0.30037858936E+03  0.30037858936E+03  0.00000000000E+00 0. -1.
         22   -1    0    0    0    0 -0.00000000000E+00 -0.00000000000E+00 -0.20949586062E+04  0.20949586062E+04  0.00000000000E+00 0.  1.
        -24    2    1    2    0    0  0.26898041477E+02  0.13628457735E+02 -0.18663087626E+04  0.18684030567E+04  0.83140516116E+02 0.  0.
         25    2    1    2    0    0 -0.30839232927E+02 -0.73463978724E+01 -0.20301017731E+03  0.24055393773E+03  0.12509211414E+03 0.  0.
         24    2    1    2    0    0  0.39411914507E+01 -0.62820598623E+01  0.27473892305E+03  0.28638020115E+03  0.80480721342E+02 0.  0.
        -13    1    5    5    0    0  0.79976346567E+00  0.25702276464E+02  0.29881720066E+02  0.39422884612E+02  0.00000000000E+00 0.  1.
         14    1    5    5    0    0  0.31414279850E+01 -0.31984336327E+02  0.24485720298E+03  0.24695731654E+03  0.00000000000E+00 0. -1.
         11    1    3    3    0    0 -0.16833194329E+02  0.35359453730E+02 -0.73859220867E+03  0.73962970337E+03  0.00000000000E+00 0. -1.
        -12    1    3    3    0    0  0.43731235806E+02 -0.21730995995E+02 -0.11277165539E+04  0.11287733533E+04  0.00000000000E+00 0.  1.
          5    1    4    4  501    0 -0.64711796809E+02 -0.47593717943E+01 -0.45480399960E+02  0.79348644895E+02  0.41800000000E+01 0.  1.
         -5    1    4    4    0  501  0.33872563882E+02 -0.25870260781E+01 -0.15752977735E+03  0.16120529284E+03  0.41800000000E+01 0.  1.
</event>
<event>
11    1  0.8453735E-009  0.1594848E+03  0.7561462E-02  0.1087563E+00
         22   -1    0    0    0    0  0.00000000000E+00  0.00000000000E+00  0.14131449216E+04  0.14131449216E+04  0.00000000000E+00 0.  1.
         22   -1    0    0    0    0 -0.00000000000E+00 -0.00000000000E+00 -0.99407446324E+02  0.99407446324E+02  0.00000000000E+00 0. -1.
         24    2    1    2    0    0 -0.18494305054E+02 -0.11021534874E+03 -0.26620780264E+02  0.14023059443E+03  0.80414496542E+02 0.  0.
         25    2    1    2    0    0  0.12177237130E+02  0.24852615817E+02  0.30780254355E+03  0.33340011288E+03  0.12508913557E+03 0.  0.
        -24    2    1    2    0    0  0.63170679240E+01  0.85362732927E+02  0.10325557120E+04  0.10389216607E+04  0.76552054184E+02 0.  0.
        -13    1    3    3    0    0  0.16695476261E+02 -0.15556142114E+02  0.18734434096E+02  0.29524760896E+02  0.00000000000E+00 0.  1.
         14    1    3    3    0    0 -0.35189781315E+02 -0.94659206630E+02 -0.45355214360E+02  0.11070583353E+03  0.00000000000E+00 0. -1.
         13    1    5    5    0    0 -0.16840210336E+02  0.34486877719E+02  0.15849842021E+03  0.16307877430E+03  0.00000000000E+00 0. -1.
        -14    1    5    5    0    0  0.23157278260E+02  0.50875855208E+02  0.87405729183E+03  0.87584288636E+03  0.00000000000E+00 0.  1.
          5    1    4    4  501    0 -0.21855776918E+02 -0.40893470508E+02  0.68115488188E+02  0.82505412222E+02  0.41800000000E+01 0. -1.
         -5    1    4    4    0  501  0.34033014048E+02  0.65746086325E+02  0.23968705536E+03  0.25089470066E+03  0.41800000000E+01 0. -1.
</event>
<event>
11    1  0.8453735E-009  0.1422663E+03  0.7561462E-02  0.1105054E+00
         22   -1    0    0    0    0  0.00000000000E+00  0.00000000000E+00  0.15633749784E+04  0.15633749784E+04  0.00000000000E+00 0.  1.
         22   -1    0    0    0    0 -0.00000000000E+00 -0.00000000000E+00 -0.14723569688E+03  0.14723569688E+03  0.00000000000E+00 0. -1.
         24    2    1    2    0    0 -0.41081609839E+02  0.29603951316E+02 -0.11714693808E+03  0.14878740121E+03  0.76486554753E+02 0.  0.
         25    2    1    2    0    0  0.89038051012E+02  0.14895449958E+02  0.49491769035E+03  0.51840270511E+03  0.12509274752E+03 0.  0.
        -24    2    1    2    0    0 -0.47956441173E+02 -0.44499401275E+02  0.10383685293E+04  0.10434205690E+04  0.78976352301E+02 0.  0.
        -11    1    3    3    0    0  0.15889384581E+02 -0.72228922418E+01 -0.51538546272E+02  0.54413826060E+02  0.00000000000E+00 0.  1.
         12    1    3    3    0    0 -0.56970994420E+02  0.36826843558E+02 -0.65608391808E+02  0.94373575154E+02  0.00000000000E+00 0. -1.
         11    1    5    5    0    0  0.59394082029E+01 -0.31953528345E+02  0.15764949484E+03  0.16096480288E+03  0.00000000000E+00 0. -1.
        -12    1    5    5    0    0 -0.53895849376E+02 -0.12545872929E+02  0.88071903444E+03  0.88245576611E+03  0.00000000000E+00 0.  1.
          5    1    4    4  501    0  0.55237914746E+01 -0.46420650364E+02  0.21061358707E+03  0.21577985196E+03  0.41800000000E+01 0.  1.
         -5    1    4    4    0  501  0.83514259538E+02  0.61316100322E+02  0.28430410328E+03  0.30262285315E+03  0.41800000000E+01 0.  1.
</event>
<event>
11    1  0.8453735E-009  0.2059698E+03  0.7561462E-02  0.1050381E+00
         22   -1    0    0    0    0  0.00000000000E+00  0.00000000000E+00  0.17921319253E+04  0.17921319253E+04  0.00000000000E+00 0.  1.
         22   -1    0    0    0    0 -0.00000000000E+00 -0.00000000000E+00 -0.18105085690E+03  0.18105085690E+03  0.00000000000E+00 0. -1.
        -24    2    1    2    0    0 -0.15448644247E+03  0.60455296125E+02 -0.10652940181E+03  0.21301176585E+03  0.80651070696E+02 0.  0.
         25    2    1    2    0    0  0.13580504208E+03 -0.48477739661E+02  0.43937920967E+03  0.47905602485E+03  0.12508990511E+03 0.  0.
         24    2    1    2    0    0  0.18681400390E+02 -0.11977556465E+02  0.12782312605E+04  0.12811149914E+04  0.82994032579E+02 0.  0.
        -13    1    5    5    0    0 -0.13065201214E+02  0.20445264063E+02  0.87537179839E+03  0.87570799569E+03  0.00000000000E+00 0.  1.
         14    1    5    5    0    0  0.31746601604E+02 -0.32422820528E+02  0.40285946210E+03  0.40540699576E+03  0.00000000000E+00 0. -1.
         11    1    3    3    0    0 -0.15734851268E+03  0.70600913046E+02 -0.10605060365E+03  0.20245931418E+03  0.00000000000E+00 0. -1.
        -12    1    3    3    0    0  0.28620702020E+01 -0.10145616921E+02 -0.47879815223E+00  0.10552451669E+02  0.00000000000E+00 0.  1.
          5    1    4    4  501    0 -0.18289513136E+02  0.67295213889E+01  0.17529041296E+02  0.26543029925E+02  0.41800000000E+01 0. -1.
         -5    1    4    4    0  501  0.15409455522E+03 -0.55207261050E+02  0.42185016837E+03  0.45251299493E+03  0.41800000000E+01 0. -1.
</event>
<event>
11    1  0.8453735E-009  0.1678990E+03  0.7561462E-02  0.1079875E+00
         22   -1    0    0    0    0  0.00000000000E+00  0.00000000000E+00  0.53786125146E+03  0.53786125146E+03  0.00000000000E+00 0.  1.
         22   -1    0    0    0    0 -0.00000000000E+00 -0.00000000000E+00 -0.38193909182E+03  0.38193909182E+03  0.00000000000E+00 0. -1.
        -24    2    1    2    0    0  0.18673231773E+02  0.63283442548E+02 -0.30314098334E+03  0.32469703115E+03  0.95813478012E+02 0.  0.
         25    2    1    2    0    0  0.36853492931E+02 -0.14970678071E+03  0.12788841796E+03  0.23616314652E+03  0.12508910503E+03 0.  0.
         24    2    1    2    0    0 -0.55526724705E+02  0.86423338160E+02  0.33117472502E+03  0.35894016560E+03  0.92785416174E+02 0.  0.
        -11    1    5    5    0    0 -0.73080861022E+02  0.29568460798E+02  0.19494144601E+03  0.21027903722E+03  0.00000000000E+00 0.  1.
         12    1    5    5    0    0  0.17554136318E+02  0.56854877362E+02  0.13623327901E+03  0.14866112838E+03  0.00000000000E+00 0. -1.
         13    1    3    3    0    0 -0.23337767166E+02 -0.10613386093E+02 -0.12114883003E+03  0.12383187941E+03  0.00000000000E+00 0. -1.
        -14    1    3    3    0    0  0.42010998940E+02  0.73896828641E+02 -0.18199215331E+03  0.20086515173E+03  0.00000000000E+00 0.  1.
          5    1    4    4  501    0 -0.65350496986E+01 -0.23991605368E+02 -0.23600718424E+02  0.34536506957E+02  0.41800000000E+01 0. -1.
         -5    1    4    4    0  501  0.43388542630E+02 -0.12571517534E+03  0.15148913638E+03  0.20162663957E+03  0.41800000000E+01 0. -1.
</event>
<event>
11    1  0.8453735E-009  0.1477820E+03  0.7561462E-02  0.1099167E+00
         22   -1    0    0    0    0  0.00000000000E+00  0.00000000000E+00  0.20952727878E+03  0.20952727878E+03  0.00000000000E+00 0.  1.
         22   -1    0    0    0    0 -0.00000000000E+00 -0.00000000000E+00 -0.16778540605E+04  0.16778540605E+04  0.00000000000E+00 0. -1.
         24    2    1    2    0    0 -0.34543272246E+02  0.72937411623E+02 -0.15881739127E+04  0.15926220471E+04  0.87381372346E+02 0.  0.
         25    2    1    2    0    0  0.31650372538E+02 -0.12077216484E+02 -0.10673844131E+02  0.13003572070E+03  0.12509097677E+03 0.  0.
        -24    2    1    2    0    0  0.28928997073E+01 -0.60860195139E+02  0.13052097518E+03  0.16472357142E+03  0.79911186955E+02 0.  0.
        -13    1    3    3    0    0 -0.30295205775E+02  0.31127234500E+02 -0.24702006114E+03  0.25080991772E+03  0.00000000000E+00 0.  1.
         14    1    3    3    0    0 -0.42480664706E+01  0.41810177123E+02 -0.13411538516E+04  0.13418121294E+04  0.00000000000E+00 0. -1.
         13    1    5    5    0    0  0.38028919299E+01  0.19582706720E+02  0.23180337779E+02  0.30582224397E+02  0.00000000000E+00 0. -1.
        -14    1    5    5    0    0 -0.90999222259E+00 -0.80442901859E+02  0.10734063740E+03  0.13414134703E+03  0.00000000000E+00 0.  1.
          5    1    4    4  501    0 -0.31465369672E+02  0.37537262567E+02 -0.23448430870E+01  0.49214695556E+02  0.41800000000E+01 0. -1.
         -5    1    4    4    0  501  0.63115742210E+02 -0.49614479051E+02 -0.83290010440E+01  0.80821025140E+02  0.41800000000E+01 0. -1.
</event>
<event>
11    1  0.8453735E-009  0.1347690E+03  0.7561462E-02  0.1113544E+00
         22   -1    0    0    0    0  0.00000000000E+00  0.00000000000E+00  0.13457827180E+04  0.13457827180E+04  0.00000000000E+00 0.  1.
         22   -1    0    0    0    0 -0.00000000000E+00 -0.00000000000E+00 -0.34326237757E+02  0.34326237757E+02  0.00000000000E+00 0. -1.
         24    2    1    2    0    0  0.46977897185E+02 -0.24148556981E+01  0.93724328636E+02  0.13585254620E+03  0.86364982361E+02 0.  0.
         25    2    1    2    0    0 -0.62132034118E+02 -0.30248732005E+02  0.44997981376E+03  0.47212629587E+03  0.12508409574E+03 0.  0.
        -24    2    1    2    0    0  0.15154136933E+02  0.32663587703E+02  0.76775233786E+03  0.77213011370E+03  0.73788226506E+02 0.  0.
        -13    1    3    3    0    0  0.12671202913E+02  0.33914029131E+02  0.73528186821E+02  0.81958007615E+02  0.00000000000E+00 0.  1.
         14    1    3    3    0    0  0.34306694273E+02 -0.36328884829E+02  0.20196141815E+02  0.53894538583E+02  0.00000000000E+00 0. -1.
         11    1    5    5    0    0  0.21830630050E+02 -0.19211980844E+02  0.32522642960E+03  0.32652397635E+03  0.00000000000E+00 0. -1.
        -12    1    5    5    0    0 -0.66764931170E+01  0.51875568547E+02  0.44252590825E+03  0.44560613735E+03  0.00000000000E+00 0.  1.
          5    1    4    4  501    0  0.22660255386E+02 -0.12522238309E+02  0.18691417298E+02  0.32204582081E+02  0.41800000000E+01 0. -1.
         -5    1    4    4    0  501 -0.84792289504E+02 -0.17726493696E+02  0.43128839646E+03  0.43992171379E+03  0.41800000000E+01 0. -1.
</event>
<event>
11    1  0.8453735E-009  0.1915478E+03  0.7561462E-02  0.1060667E+00
         22   -1    0    0    0    0  0.00000000000E+00  0.00000000000E+00  0.67784987624E+03  0.67784987624E+03  0.00000000000E+00 0. -1.
         22   -1    0    0    0    0 -0.00000000000E+00 -0.00000000000E+00 -0.54938820373E+03  0.54938820373E+03  0.00000000000E+00 0. -1.
         24    2    1    2    0    0 -0.36900563821E+02 -0.47770177057E+01 -0.40087658859E+03  0.40839633073E+03  0.68564219250E+02 0.  0.
         25    2    1    2    0    0  0.16382443942E+03  0.68988675658E+02 -0.44398269686E+02  0.22184695002E+03  0.12508788336E+03 0.  0.
        -24    2    1    2    0    0 -0.12692387560E+03 -0.64211657952E+02  0.57373653078E+03  0.59699479922E+03  0.83644344283E+02 0.  0.
        -11    1    3    3    0    0 -0.11888988751E+02  0.30933254969E+01 -0.80317012080E+01  0.14677361494E+02  0.00000000000E+00 0.  1.
         12    1    3    3    0    0 -0.25011575070E+02 -0.78703432026E+01 -0.39284488738E+03  0.39371896923E+03  0.00000000000E+00 0. -1.
         11    1    5    5    0    0 -0.83153731951E+02 -0.82527954433E+02  0.42679357838E+03  0.44258125237E+03  0.00000000000E+00 0. -1.
        -12    1    5    5    0    0 -0.43770143649E+02  0.18316296481E+02  0.14694295240E+03  0.15441354685E+03  0.00000000000E+00 0.  1.
          5    1    4    4  501    0  0.18927887513E+02  0.61889740331E+02  0.12343538481E+02  0.66018483973E+02  0.41800000000E+01 0.  1.
         -5    1    4    4    0  501  0.14489655191E+03  0.70989353273E+01 -0.56741808168E+02  0.15582846605E+03  0.41800000000E+01 0.  1.
</event>
<event>
11    1  0.8453735E-009  0.2575810E+03  0.7561462E-02  0.1019936E+00
         22   -1    0    0    0    0  0.00000000000E+00  0.00000000000E+00  0.98638302422E+03  0.98638302422E+03  0.00000000000E+00 0. -1.
         22   -1    0    0    0    0 -0.00000000000E+00 -0.00000000000E+00 -0.54324855343E+03  0.54324855343E+03  0.00000000000E+00 0.  1.
        -24    2    1    2    0    0  0.10836891435E+03 -0.19637139624E+03 -0.46783103316E+03  0.52886775220E+03  0.10261421377E+03 0.  0.
         25    2    1    2    0    0 -0.93701775087E+02  0.21986196292E+03  0.39897740952E+03  0.48161139705E+03  0.12508900457E+03 0.  0.
         24    2    1    2    0    0 -0.14667139267E+02 -0.23490566674E+02  0.51198809443E+03  0.51915242840E+03  0.81366475804E+02 0.  0.
        -13    1    5    5    0    0 -0.21610330322E+02  0.22951867344E+02  0.10991382276E+03  0.11434527985E+03  0.00000000000E+00 0.  1.
         14    1    5    5    0    0  0.69431910550E+01 -0.46442434018E+02  0.40207427167E+03  0.40480714855E+03  0.00000000000E+00 0. -1.
         13    1    3    3    0    0  0.78685129780E+02 -0.42512710118E+02 -0.15380192373E+03  0.17791490076E+03  0.00000000000E+00 0. -1.
        -14    1    3    3    0    0  0.29683784575E+02 -0.15385868612E+03 -0.31402910944E+03  0.35095285144E+03  0.00000000000E+00 0.  1.
          5    1    4    4  501    0  0.80418035775E+01  0.13617012117E+03  0.17779432251E+03  0.22413225119E+03  0.41800000000E+01 0. -1.
         -5    1    4    4    0  501 -0.10174357866E+03  0.83691841747E+02  0.22118308701E+03  0.25747914586E+03  0.41800000000E+01 0. -1.
</event>
<event>
11    1  0.8453735E-009  0.1639773E+03  0.7561462E-02  0.1083395E+00
         22   -1    0    0    0    0  0.00000000000E+00  0.00000000000E+00  0.15074364039E+04  0.15074364039E+04  0.00000000000E+00 0. -1.
         22   -1    0    0    0    0 -0.00000000000E+00 -0.00000000000E+00 -0.58139391477E+03  0.58139391477E+03  0.00000000000E+00 0.  1.
         24    2    1    2    0    0  0.76996586453E+02  0.77443135936E+02 -0.47532745456E+03  0.49466862888E+03  0.82673754704E+02 0.  0.
         25    2    1    2    0    0 -0.44174864940E+02 -0.76341697057E+02 -0.33233099036E+02  0.15663559532E+03  0.12510314723E+03 0.  0.
        -24    2    1    2    0    0 -0.32821721513E+02 -0.11014388785E+01  0.14346030427E+04  0.14375260945E+04  0.85538900497E+02 0.  0.
        -11    1    3    3    0    0  0.43868804717E+02  0.27736340502E+02 -0.36965874615E+03  0.37328456333E+03  0.00000000000E+00 0.  1.
         12    1    3    3    0    0  0.33127781736E+02  0.49706795434E+02 -0.10566870841E+03  0.12138406556E+03  0.00000000000E+00 0. -1.
         13    1    5    5    0    0  0.33532189727E+01  0.34846453336E+02  0.35573931048E+03  0.35745765680E+03  0.00000000000E+00 0. -1.
        -14    1    5    5    0    0 -0.36174940486E+02 -0.35947892215E+02  0.10788637322E+04  0.10800684377E+04  0.00000000000E+00 0.  1.
          5    1    4    4  501    0 -0.25757768747E+02 -0.55743173060E+02 -0.80736649338E+02  0.10152163779E+03  0.41800000000E+01 0.  1.
         -5    1    4    4    0  501 -0.18417096193E+02 -0.20598523997E+02  0.47503550302E+02  0.55113957527E+02  0.41800000000E+01 0.  1.
</event>
<event>
11    1  0.8453735E-009  0.1839561E+03  0.7561462E-02  0.1066487E+00
         22   -1    0    0    0    0  0.00000000000E+00  0.00000000000E+00  0.46824366262E+04  0.46824366262E+04  0.00000000000E+00 0.  1.
         22   -1    0    0    0    0 -0.00000000000E+00 -0.00000000000E+00 -0.88087271335E+02  0.88087271335E+02  0.00000000000E+00 0.  1.
         24    2    1    2    0    0  0.69029565513E+02 -0.44106756651E+02 -0.36490374927E+02  0.11913856233E+03  0.78434448267E+02 0.  0.
         25    2    1    2    0    0  0.66388880643E+02  0.90898751342E+02  0.82615960860E+03  0.84312368647E+03  0.12509110816E+03 0.  0.
        -24    2    1    2    0    0 -0.13541844616E+03 -0.46791994692E+02  0.38046801212E+04  0.38082616487E+04  0.82087235661E+02 0.  0.
        -13    1    3    3    0    0  0.80582041190E+02 -0.26153502625E+02 -0.45268028637E+02  0.96055533306E+02  0.00000000000E+00 0.  1.
         14    1    3    3    0    0 -0.11552475678E+02 -0.17953254025E+02  0.87776537092E+01  0.23083029026E+02  0.00000000000E+00 0. -1.
         11    1    5    5    0    0 -0.95770817753E+02 -0.62530901781E+02  0.21578679958E+04  0.21608971402E+04  0.00000000000E+00 0. -1.
        -12    1    5    5    0    0 -0.39647628403E+02  0.15738907089E+02  0.16468121254E+04  0.16473645085E+04  0.00000000000E+00 0.  1.
          5    1    4    4  501    0  0.75285789757E+02  0.33506851247E+02  0.69161829794E+03  0.69652279336E+03  0.41800000000E+01 0. -1.
         -5    1    4    4    0  501 -0.88969091140E+01  0.57391900095E+02  0.13454131066E+03  0.14660089311E+03  0.41800000000E+01 0. -1.
</event>
<event>
11    1  0.8453735E-009  0.1389083E+03  0.7561462E-02  0.1108784E+00
         22   -1    0    0    0    0  0.00000000000E+00  0.00000000000E+00  0.29050820769E+03  0.29050820769E+03  0.00000000000E+00 0.  1.
         22   -1    0    0    0    0 -0.00000000000E+00 -0.00000000000E+00 -0.22895117056E+03  0.22895117056E+03  0.00000000000E+00 0.  1.
         24    2    1    2    0    0 -0.57103305822E+02  0.25903885423E+02 -0.95956394506E+02  0.14034140164E+03  0.80970862370E+02 0.  0.
         25    2    1    2    0    0  0.65683155586E+02  0.29426635162E+02 -0.47016275368E+02  0.15178361519E+03  0.12509009515E+03 0.  0.
        -24    2    1    2    0    0 -0.85798497637E+01 -0.55330520585E+02  0.20452970701E+03  0.22733436142E+03  0.81935526511E+02 0.  0.
        -13    1    3    3    0    0 -0.35382470097E+02  0.15863163838E+02 -0.10713028439E+03  0.11393180851E+03  0.00000000000E+00 0.  1.
         14    1    3    3    0    0 -0.21720835725E+02  0.10040721585E+02  0.11173889881E+02  0.26409593136E+02  0.00000000000E+00 0. -1.
         11    1    5    5    0    0  0.29240822571E+02 -0.45902745489E+02  0.79308168873E+02  0.96186659148E+02  0.00000000000E+00 0. -1.
        -12    1    5    5    0    0 -0.37820672335E+02 -0.94277750965E+01  0.12522153813E+03  0.13114770227E+03  0.00000000000E+00 0.  1.
          5    1    4    4  501    0 -0.11375716561E+02  0.15617632821E+02 -0.67844712883E+02  0.70666079899E+02  0.41800000000E+01 0.  1.
         -5    1    4    4    0  501  0.77058872147E+02  0.13809002341E+02  0.20828437515E+02  0.81117535290E+02  0.41800000000E+01 0.  1.
</event>
<event>
11    1  0.8453735E-009  0.2219845E+03  0.7561462E-02  0.1039981E+00
         22   -1    0    0    0    0  0.00000000000E+00  0.00000000000E+00  0.60640276159E+03  0.60640276159E+03  0.00000000000E+00 0.  1.
         22   -1    0    0    0    0 -0.00000000000E+00 -0.00000000000E+00 -0.75519500516E+03  0.75519500516E+03  0.00000000000E+00 0. -1.
         24    2    1    2    0    0 -0.16731031635E+03  0.69997043517E+02 -0.61479140984E+03  0.64771168973E+03  0.93110833641E+02 0.  0.
         25    2    1    2    0    0  0.18529199385E+03 -0.68302641908E+02 -0.68836648999E+01  0.23386578350E+03  0.12508975167E+03 0.  0.
        -24    2    1    2    0    0 -0.17981677495E+02 -0.16944016081E+01  0.47288283117E+03  0.48002029353E+03  0.80467996488E+02 0.  0.
        -11    1    3    3    0    0 -0.45520635707E+02 -0.16784269217E+02 -0.92747048618E+02  0.10467022019E+03  0.00000000000E+00 0.  1.
         12    1    3    3    0    0 -0.12178968065E+03  0.86781312734E+02 -0.52204436122E+03  0.54304146953E+03  0.00000000000E+00 0. -1.
         11    1    5    5    0    0 -0.20283422055E+02  0.90164849591E+01  0.31685771674E+02  0.38687237403E+02  0.00000000000E+00 0. -1.
        -12    1    5    5    0    0  0.23017445600E+01 -0.10710886567E+02  0.44119705950E+03  0.44133305613E+03  0.00000000000E+00 0.  1.
          5    1    4    4  501    0  0.11423286661E+02 -0.64299135799E+01  0.40926984429E+02  0.43177838311E+02  0.41800000000E+01 0.  1.
         -5    1    4    4    0  501  0.17386870719E+03 -0.61872728329E+02 -0.47810649329E+02  0.19068794519E+03  0.41800000000E+01 0.  1.
</event>
<event>
11    1  0.8453735E-009  0.3400634E+03  0.7561462E-02  0.9845301E-01
         22   -1    0    0    0    0  0.00000000000E+00  0.00000000000E+00  0.33436905543E+03  0.33436905543E+03  0.00000000000E+00 0. -1.
         22   -1    0    0    0    0 -0.00000000000E+00 -0.00000000000E+00 -0.99762751099E+03  0.99762751099E+03  0.00000000000E+00 0. -1.
         24    2    1    2    0    0  0.14342646296E+03 -0.23319511407E+03 -0.33317274208E+03  0.43852142497E+03  0.79660859834E+02 0.  0.
         25    2    1    2    0    0  0.18900845156E+03  0.28115277094E+03 -0.40202174730E+03  0.54040469708E+03  0.12507867906E+03 0.  0.
        -24    2    1    2    0    0 -0.33243491452E+03 -0.47957656866E+02  0.71936033823E+02  0.35307044436E+03  0.81676413226E+02 0.  0.
        -11    1    3    3    0    0  0.12104878697E+02 -0.22861804690E+02 -0.80284662127E+02  0.84349375663E+02  0.00000000000E+00 0.  1.
         12    1    3    3    0    0  0.13132158426E+03 -0.21033330938E+03 -0.25288807995E+03  0.35417204931E+03  0.00000000000E+00 0. -1.
         13    1    5    5    0    0 -0.29684492152E+03 -0.57735236710E+02  0.41521217561E+02  0.30524461747E+03  0.00000000000E+00 0. -1.
        -14    1    5    5    0    0 -0.35589993002E+02  0.97775798440E+01  0.30414816263E+02  0.47825826891E+02  0.00000000000E+00 0.  1.
          5    1    4    4  501    0  0.11201523189E+03  0.19344176040E+03 -0.34331459027E+03  0.40969440701E+03  0.41800000000E+01 0. -1.
         -5    1    4    4    0  501  0.76993219665E+02  0.87711010538E+02 -0.58707157037E+02  0.13071029007E+03  0.41800000000E+01 0. -1.
</event>
<event>
11    1  0.8453735E-009  0.3403040E+03  0.7561462E-02  0.9844431E-01
         22   -1    0    0    0    0  0.00000000000E+00  0.00000000000E+00  0.53654912503E+03  0.53654912503E+03  0.00000000000E+00 0.  1.
         22   -1    0    0    0    0 -0.00000000000E+00 -0.00000000000E+00 -0.20678092132E+04  0.20678092132E+04  0.00000000000E+00 0. -1.
         24    2    1    2    0    0 -0.19435280039E+03  0.24730766570E+03 -0.19072362694E+04  0.19346413325E+04  0.79704490744E+02 0.  0.
         25    2    1    2    0    0  0.22141046748E+03 -0.27349258274E+03  0.10996161570E+03  0.38930715752E+03  0.12509083919E+03 0.  0.
        -24    2    1    2    0    0 -0.27057667090E+02  0.26184917036E+02  0.26601456548E+03  0.28040984820E+03  0.80300477528E+02 0.  0.
        -11    1    3    3    0    0 -0.25127009834E+02  0.80051079453E+02 -0.61309644332E+03  0.61881078752E+03  0.00000000000E+00 0.  1.
         12    1    3    3    0    0 -0.16922579055E+03  0.16725658625E+03 -0.12941398260E+04  0.13158305450E+04  0.00000000000E+00 0. -1.
         11    1    5    5    0    0  0.12032046716E+02 -0.22592956402E+02  0.63402356594E+02  0.68374488289E+02  0.00000000000E+00 0. -1.
        -12    1    5    5    0    0 -0.39089713807E+02  0.48777873438E+02  0.20261220888E+03  0.21203535991E+03  0.00000000000E+00 0.  1.
          5    1    4    4  501    0  0.91882623669E+02 -0.19905733667E+03  0.34812531125E+02  0.22202617985E+03  0.41800000000E+01 0.  1.
         -5    1    4    4    0  501  0.12952784381E+03 -0.74435246067E+02  0.75149084574E+02  0.16728097767E+03  0.41800000000E+01 0.  1.
</event>
<event>
11    1  0.8453735E-009  0.1677151E+03  0.7561462E-02  0.1080037E+00
         22   -1    0    0    0    0  0.00000000000E+00  0.00000000000E+00  0.56867963052E+02  0.56867963052E+02  0.00000000000E+00 0. -1.
         22   -1    0    0    0    0 -0.00000000000E+00 -0.00000000000E+00 -0.98995077141E+03  0.98995077141E+03  0.00000000000E+00 0.  1.
        -24    2    1    2    0    0 -0.10729886547E+03  0.10742546980E+02 -0.57746217350E+03  0.59280011310E+03  0.79504486754E+02 0.  0.
         25    2    1    2    0    0  0.13159268680E+03  0.35138238878E+02 -0.21115293715E+03  0.28068621760E+03  0.12509140192E+03 0.  0.
         24    2    1    2    0    0 -0.24293821329E+02 -0.45880785857E+02 -0.14446769770E+03  0.17333240376E+03  0.80485838808E+02 0.  0.
        -13    1    5    5    0    0 -0.13452612360E+02  0.21443042122E+02 -0.23883147930E+02  0.34802034277E+02  0.00000000000E+00 0.  1.
         14    1    5    5    0    0 -0.10841208969E+02 -0.67323827979E+02 -0.12058454977E+03  0.13853036949E+03  0.00000000000E+00 0. -1.
         13    1    3    3    0    0 -0.14788088525E+02  0.14099456421E+01 -0.29610335857E+03  0.29647575696E+03  0.00000000000E+00 0. -1.
        -14    1    3    3    0    0 -0.92510776948E+02  0.93326013376E+01 -0.28135881493E+03  0.29632435613E+03  0.00000000000E+00 0.  1.
          5    1    4    4  501    0  0.15009425148E+03  0.52644775695E+02 -0.18234352490E+03  0.24200493839E+03  0.41800000000E+01 0. -1.
         -5    1    4    4    0  501 -0.18501564676E+02 -0.17506536818E+02 -0.28809412252E+02  0.38681279208E+02  0.41800000000E+01 0. -1.
</event>
<event>
11    1  0.8453735E-009  0.1621384E+03  0.7561462E-02  0.1085083E+00
         22   -1    0    0    0    0  0.00000000000E+00  0.00000000000E+00  0.14668956843E+04  0.14668956843E+04  0.00000000000E+00 0.  1.
         22   -1    0    0    0    0 -0.00000000000E+00 -0.00000000000E+00 -0.37055383617E+03  0.37055383617E+03  0.00000000000E+00 0. -1.
         24    2    1    2    0    0 -0.11393486434E+02  0.19081026585E+02 -0.32203327097E+03  0.33271113322E+03  0.80606286635E+02 0.  0.
         25    2    1    2    0    0  0.33841182768E+02  0.82865523619E+02  0.10856201587E+03  0.18827328055E+03  0.12509674745E+03 0.  0.
        -24    2    1    2    0    0 -0.22447696334E+02 -0.10194655020E+03  0.13098131032E+04  0.13164651067E+04  0.81074124251E+02 0.  0.
        -13    1    3    3    0    0 -0.44683606807E+02  0.12674066987E+02 -0.13870889914E+03  0.14627855411E+03  0.00000000000E+00 0.  1.
         14    1    3    3    0    0  0.33290120373E+02  0.64069595976E+01 -0.18332437183E+03  0.18643257911E+03  0.00000000000E+00 0. -1.
         11    1    5    5    0    0 -0.11536075798E+02 -0.46220727087E+02  0.21653909834E+03  0.22171742774E+03  0.00000000000E+00 0. -1.
        -12    1    5    5    0    0 -0.10911620537E+02 -0.55725823118E+02  0.10932740049E+04  0.10947476790E+04  0.00000000000E+00 0.  1.
          5    1    4    4  501    0  0.81192707173E+02  0.44341842028E+02  0.67171647131E+02  0.11440261024E+03  0.41800000000E+01 0.  1.
         -5    1    4    4    0  501 -0.47351524404E+02  0.38523681591E+02  0.41390368738E+02  0.73870670303E+02  0.41800000000E+01 0.  1.
</event>
<event>
11    1  0.8453735E-009  0.1353596E+03  0.7561462E-02  0.1112854E+00
         22   -1    0    0    0    0  0.00000000000E+00  0.00000000000E+00  0.20511194140E+04  0.20511194140E+04  0.00000000000E+00 0.  1.
         22   -1    0    0    0    0 -0.00000000000E+00 -0.00000000000E+00 -0.29129452082E+03  0.29129452082E+03  0.00000000000E+00 0. -1.
        -24    2    1    2    0    0  0.12759697709E+02 -0.29793010107E+02 -0.11541375053E+03  0.14598831418E+03  0.83317589565E+02 0.  0.
         25    2    1    2    0    0  0.28039077924E+02  0.61486763007E+02 -0.12773258571E+03  0.19112670401E+03  0.12508793554E+03 0.  0.
         24    2    1    2    0    0 -0.40798775633E+02 -0.31693752900E+02  0.20029712295E+04  0.20052989167E+04  0.81614735640E+02 0.  0.
        -13    1    5    5    0    0 -0.38470549063E+02  0.19766526930E+02  0.72405125990E+03  0.72534193709E+03  0.00000000000E+00 0.  1.
         14    1    5    5    0    0 -0.23282265700E+01 -0.51460279829E+02  0.12789199696E+04  0.12799569796E+04  0.00000000000E+00 0. -1.
         13    1    3    3    0    0  0.16458302859E+02 -0.46682350709E+02 -0.11850257597E+03  0.12842499022E+03  0.00000000000E+00 0. -1.
        -14    1    3    3    0    0 -0.36986051501E+01  0.16889340601E+02  0.30888254479E+01  0.17563323964E+02  0.00000000000E+00 0.  1.
          5    1    4    4  501    0  0.30418763690E+02  0.43027014380E+02  0.85232709100E+01  0.53541980705E+02  0.41800000000E+01 0.  1.
         -5    1    4    4    0  501 -0.23796857660E+01  0.18459748627E+02 -0.13625585662E+03  0.13758472331E+03  0.41800000000E+01 0.  1.
</event>
<event>
11    1  0.8453735E-009  0.1372927E+03  0.7561462E-02  0.1110620E+00
         22   -1    0    0    0    0  0.00000000000E+00  0.00000000000E+00  0.52441927833E+02  0.52441927833E+02  0.00000000000E+00 0. -1.
         22   -1    0    0    0    0 -0.00000000000E+00 -0.00000000000E+00 -0.97804492935E+03  0.97804492935E+03  0.00000000000E+00 0. -1.
        -24    2    1    2    0    0 -0.24198193663E+02  0.21236350628E+01 -0.66467544560E+03  0.66988842089E+03  0.79793396016E+02 0.  0.
         25    2    1    2    0    0 -0.33284942026E+02 -0.26429668643E+02 -0.20589384127E+03  0.24463282383E+03  0.12508608983E+03 0.  0.
         24    2    1    2    0    0  0.57483135689E+02  0.24306033581E+02 -0.55033714643E+02  0.11596561247E+03  0.80772639995E+02 0.  0.
        -11    1    5    5    0    0  0.58464162288E+02 -0.16217829829E+02 -0.40293744863E+02  0.72833111642E+02  0.00000000000E+00 0.  1.
         12    1    5    5    0    0 -0.98102659887E+00  0.40523863409E+02 -0.14739969781E+02  0.43132500831E+02  0.00000000000E+00 0. -1.
         11    1    3    3    0    0 -0.28447426164E+02  0.48775801804E+01 -0.77641849441E+02  0.82832986355E+02  0.00000000000E+00 0. -1.
        -12    1    3    3    0    0  0.42492325013E+01 -0.27539451176E+01 -0.58703359616E+03  0.58705543453E+03  0.00000000000E+00 0.  1.
          5    1    4    4  501    0  0.36280270484E+02 -0.53210604985E+01 -0.14526353155E+03  0.14987840975E+03  0.41800000000E+01 0.  1.
         -5    1    4    4    0  501 -0.69565212511E+02 -0.21108608145E+02 -0.60630309725E+02  0.94754414076E+02  0.41800000000E+01 0.  1.
</event>
<event>
11    1  0.8453735E-009  0.1426975E+03  0.7561462E-02  0.1104583E+00
         22   -1    0    0    0    0  0.00000000000E+00  0.00000000000E+00  0.32521459305E+04  0.32521459305E+04  0.00000000000E+00 0. -1.
         22   -1    0    0    0    0 -0.00000000000E+00 -0.00000000000E+00 -0.15967011809E+03  0.15967011809E+03  0.00000000000E+00 0.  1.
        -24    2    1    2    0    0  0.41447423042E+02  0.51659472352E+02 -0.12035199453E+03  0.15614472718E+03  0.74229261617E+02 0.  0.
         25    2    1    2    0    0 -0.54282604966E+02 -0.11619958123E+03  0.37327486170E+03  0.41404148215E+03  0.12508909901E+03 0.  0.
         24    2    1    2    0    0  0.12835181923E+02  0.64540108876E+02  0.28395529452E+04  0.28416298392E+04  0.86423647793E+02 0.  0.
        -11    1    5    5    0    0 -0.28350973058E+02  0.58936228785E+02  0.19678147928E+04  0.19689012965E+04  0.00000000000E+00 0.  1.
         12    1    5    5    0    0  0.41186154981E+02  0.56038800909E+01  0.87173815239E+03  0.87272854265E+03  0.00000000000E+00 0. -1.
         13    1    3    3    0    0  0.33592499163E+02  0.57570449807E+02 -0.45625465976E+02  0.80774351353E+02  0.00000000000E+00 0. -1.
        -14    1    3    3    0    0  0.78549238793E+01 -0.59109774544E+01 -0.74726528551E+02  0.75370375831E+02  0.00000000000E+00 0.  1.
          5    1    4    4  501    0 -0.26840708131E+02 -0.12206069566E+03  0.36288930225E+03  0.38382985179E+03  0.41800000000E+01 0.  1.
         -5    1    4    4    0  501 -0.27441896835E+02  0.58611144314E+01  0.10385559446E+02  0.30211630364E+02  0.41800000000E+01 0.  1.
</event>
<event>
11    1  0.8453735E-009  0.1271752E+04  0.7561462E-02  0.8456332E-01
         22   -1    0    0    0    0  0.00000000000E+00  0.00000000000E+00  0.13731153133E+04  0.13731153133E+04  0.00000000000E+00 0.  1.
         22   -1    0    0    0    0 -0.00000000000E+00 -0.00000000000E+00 -0.19051185271E+04  0.19051185271E+04  0.00000000000E+00 0.  1.
        -24    2    1    2    0    0  0.14316593403E+03 -0.21573400780E+03 -0.56155782928E+03  0.62369755293E+03  0.81325242741E+02 0.  0.
         25    2    1    2    0    0 -0.99444578304E+03  0.10242768297E+04 -0.22430389479E+03  0.14505257285E+04  0.12508881850E+03 0.  0.
         24    2    1    2    0    0  0.85127984901E+03 -0.80854282193E+03  0.25385851020E+03  0.12040105590E+04  0.82331079956E+02 0.  0.
        -13    1    5    5    0    0  0.17602075223E+03 -0.19990679814E+03  0.32126352709E+02  0.26828741248E+03  0.00000000000E+00 0.  1.
         14    1    5    5    0    0  0.67525909678E+03 -0.60863602379E+03  0.22173215749E+03  0.93572314650E+03  0.00000000000E+00 0. -1.
         11    1    3    3    0    0  0.11965731130E+03 -0.11173022803E+03 -0.36638621472E+03  0.40129836075E+03  0.00000000000E+00 0. -1.
        -12    1    3    3    0    0  0.23508622727E+02 -0.10400377977E+03 -0.19517161456E+03  0.22239919217E+03  0.00000000000E+00 0.  1.
          5    1    4    4  501    0 -0.68102689131E+02  0.50947415790E+02  0.12700869280E+02  0.86095295592E+02  0.41800000000E+01 0. -1.
         -5    1    4    4    0  501 -0.92634309391E+03  0.97332941394E+03 -0.23700476407E+03  0.13644304329E+04  0.41800000000E+01 0. -1.
</event>
<event>
11    1  0.8453735E-009  0.1270635E+03  0.7561462E-02  0.1122931E+00
         22   -1    0    0    0    0  0.00000000000E+00  0.00000000000E+00  0.29113325454E+03  0.29113325454E+03  0.00000000000E+00 0.  1.
         22   -1    0    0    0    0 -0.00000000000E+00 -0.00000000000E+00 -0.52115865256E+03  0.52115865256E+03  0.00000000000E+00 0.  1.
         24    2    1    2    0    0  0.58764947856E+01  0.13483236540E+02 -0.26974252628E+03  0.28229505075E+03  0.81933719160E+02 0.  0.
         25    2    1    2    0    0 -0.16396662335E+01  0.87988313184E+01 -0.22214758055E+03  0.25510290612E+03  0.12509131556E+03 0.  0.
        -24    2    1    2    0    0 -0.42368285522E+01 -0.22282067859E+02  0.26186470880E+03  0.27489395024E+03  0.80492961804E+02 0.  0.
        -13    1    3    3    0    0  0.24002522230E+02  0.20336024800E+02 -0.25741034200E+03  0.25932558521E+03  0.00000000000E+00 0.  1.
         14    1    3    3    0    0 -0.18126027444E+02 -0.68527882599E+01 -0.12332184277E+02  0.22969465533E+02  0.00000000000E+00 0. -1.
         13    1    5    5    0    0  0.15517217895E+01 -0.45602344804E+02  0.85624885441E+02  0.97023722352E+02  0.00000000000E+00 0. -1.
        -14    1    5    5    0    0 -0.57885503417E+01  0.23320276945E+02  0.17623982336E+03  0.17787022789E+03  0.00000000000E+00 0.  1.
          5    1    4    4  501    0 -0.40825092643E+02  0.31341808260E+02 -0.19605010518E+03  0.20273656127E+03  0.41800000000E+01 0. -1.
         -5    1    4    4    0  501  0.39185426410E+02 -0.22542976941E+02 -0.26097475375E+02  0.52366344853E+02  0.41800000000E+01 0. -1.
</event>
<event>
11    1  0.1049417E-008  0.1789955E+03  0.7561462E-02  0.1070458E+00
         22   -1    0    0    0    0  0.00000000000E+00  0.00000000000E+00  0.34918731140E+03  0.34918731140E+03  0.00000000000E+00 0. -1.
         22   -1    0    0    0    0 -0.00000000000E+00 -0.00000000000E+00 -0.79338622013E+03  0.79338622013E+03  0.00000000000E+00 0.  1.
        -24    2    1    2    0    0  0.29246911346E+02  0.29977807838E+02 -0.53790924227E+03  0.54592429214E+03  0.83264212279E+02 0.  0.
         25    2    1    2    0    0  0.31743503724E+02  0.85941901095E+02 -0.20714219740E+03  0.25874516118E+03  0.12508999999E+03 0.  0.
         24    2    1    2    0    0 -0.60990415069E+02 -0.11591970893E+03  0.30085253093E+03  0.33790407821E+03  0.80682780393E+02 0.  0.
        -13    1    5    5    0    0 -0.64951500106E+02 -0.39599522215E+02  0.12778071527E+03  0.14871022399E+03  0.00000000000E+00 0.  1.
         14    1    5    5    0    0  0.39610850366E+01 -0.76320186718E+02  0.17307181567E+03  0.18919385422E+03  0.00000000000E+00 0. -1.
         13    1    3    3    0    0 -0.17182707524E+02  0.15144128690E+02 -0.43893913317E+02  0.49510258512E+02  0.00000000000E+00 0. -1.
        -14    1    3    3    0    0  0.46429618870E+02  0.14833679148E+02 -0.49401532895E+03  0.49641403363E+03  0.00000000000E+00 0.  1.
          5    1    4    4  501    0  0.40578985953E+02  0.23075478422E+02 -0.18582932531E+03  0.19164848643E+03  0.41800000000E+01 0.  1.
         -5    1    4    4    0  501 -0.88354822290E+01  0.62866422673E+02 -0.21312872091E+02  0.67096674751E+02  0.41800000000E+01 0.  1.
</event>
<event>
11    1  0.8453735E-009  0.3328314E+03  0.7561462E-02  0.9871802E-01
         22   -1    0    0    0    0  0.00000000000E+00  0.00000000000E+00  0.39083641794E+04  0.39083641794E+04  0.00000000000E+00 0. -1.
         22   -1    0    0    0    0 -0.00000000000E+00 -0.00000000000E+00 -0.29010339890E+03  0.29010339890E+03  0.00000000000E+00 0. -1.
        -24    2    1    2    0    0  0.30683371395E+03 -0.61657851702E+02 -0.11708896645E+03  0.34365032993E+03  0.80231568005E+02 0.  0.
         25    2    1    2    0    0 -0.30598574155E+03 -0.99831472546E+02  0.46356734449E+03  0.57804387968E+03  0.12508575867E+03 0.  0.
         24    2    1    2    0    0 -0.84797240122E+00  0.16148932425E+03  0.32717824025E+04  0.32767733687E+04  0.81265612964E+02 0.  0.
        -11    1    5    5    0    0  0.93920012842E+00  0.94971384534E+02  0.11389233289E+04  0.11428765441E+04  0.00000000000E+00 0.  1.
         12    1    5    5    0    0 -0.17871725296E+01  0.66517939714E+02  0.21328590736E+04  0.21338968246E+04  0.00000000000E+00 0. -1.
         13    1    3    3    0    0  0.30834798883E+03 -0.55960443717E+02 -0.12167966569E+03  0.33617851585E+03  0.00000000000E+00 0. -1.
        -14    1    3    3    0    0 -0.15142748795E+01 -0.56974079846E+01  0.45906992405E+01  0.74718140816E+01  0.00000000000E+00 0.  1.
          5    1    4    4  501    0 -0.65488008937E+02  0.29686912827E+02  0.10243516378E+03  0.12522151288E+03  0.41800000000E+01 0.  1.
         -5    1    4    4    0  501 -0.24049773261E+03 -0.12951838537E+03  0.36113218070E+03  0.45282236680E+03  0.41800000000E+01 0.  1.
</event>
<event>
11    1  0.8453735E-009  0.2564027E+03  0.7561462E-02  0.1020543E+00
         22   -1    0    0    0    0  0.00000000000E+00  0.00000000000E+00  0.14219413777E+04  0.14219413777E+04  0.00000000000E+00 0. -1.
         22   -1    0    0    0    0 -0.00000000000E+00 -0.00000000000E+00 -0.13377384188E+04  0.13377384188E+04  0.00000000000E+00 0.  1.
         24    2    1    2    0    0 -0.55183532593E+01 -0.74367664722E+02 -0.12829759187E+04  0.12873147876E+04  0.74774009421E+02 0.  0.
         25    2    1    2    0    0  0.15653823308E+03  0.21731661995E+03  0.53893903566E+03  0.61468127371E+03  0.12508817837E+03 0.  0.
        -24    2    1    2    0    0 -0.15101987982E+03 -0.14294895523E+03  0.82823984192E+03  0.85768373522E+03  0.79992162216E+02 0.  0.
        -13    1    3    3    0    0  0.22370218019E+02 -0.58612171696E+02 -0.10806047554E+04  0.10824243395E+04  0.00000000000E+00 0.  1.
         14    1    3    3    0    0 -0.27888571279E+02 -0.15755493026E+02 -0.20237116329E+03  0.20489044805E+03  0.00000000000E+00 0. -1.
         11    1    5    5    0    0 -0.13335010467E+03 -0.15162028402E+03  0.72544831786E+03  0.75302471595E+03  0.00000000000E+00 0. -1.
        -12    1    5    5    0    0 -0.17669775148E+02  0.86713287868E+01  0.10279152406E+03  0.10465901927E+03  0.00000000000E+00 0.  1.
          5    1    4    4  501    0 -0.19962040943E+02  0.86859478318E+01  0.35947604981E+02  0.42233061364E+02  0.41800000000E+01 0.  1.
         -5    1    4    4    0  501  0.17650027402E+03  0.20863067212E+03  0.50299143068E+03  0.57244821234E+03  0.41800000000E+01 0.  1.
</event>
<event>
11    1  0.8453735E-009  0.1386496E+03  0.7561462E-02  0.1109076E+00
         22   -1    0    0    0    0  0.00000000000E+00  0.00000000000E+00  0.25760213561E+04  0.25760213561E+04  0.00000000000E+00 0. -1.
         22   -1    0    0    0    0 -0.00000000000E+00 -0.00000000000E+00 -0.41284678739E+03  0.41284678739E+03  0.00000000000E+00 0. -1.
        -24    2    1    2    0    0 -0.34899315815E+02 -0.48781414438E+02 -0.37838300985E+03  0.39149509300E+03  0.80604696260E+02 0.  0.
         25    2    1    2    0    0  0.10059988811E+02  0.60495844152E+02  0.15266234511E+03  0.20667061374E+03  0.12508397352E+03 0.  0.
         24    2    1    2    0    0  0.24839327005E+02 -0.11714429715E+02  0.23888952334E+04  0.23907024367E+04  0.88788989617E+02 0.  0.
        -11    1    5    5    0    0  0.23014479477E+02 -0.49737387719E+02  0.13642360853E+04  0.13653364313E+04  0.00000000000E+00 0.  1.
         12    1    5    5    0    0  0.18248475275E+01  0.38022958005E+02  0.10246591481E+04  0.10253660054E+04  0.00000000000E+00 0. -1.
         13    1    3    3    0    0 -0.28441130559E+02 -0.37965545412E+02 -0.37561331313E+03  0.37859693811E+03  0.00000000000E+00 0. -1.
        -14    1    3    3    0    0 -0.64581852559E+01 -0.10815869025E+02 -0.27696967197E+01  0.12898154887E+02  0.00000000000E+00 0.  1.
          5    1    4    4  501    0  0.18498316976E+02  0.13701187751E+02  0.15700692024E+03  0.15874052942E+03  0.41800000000E+01 0. -1.
         -5    1    4    4    0  501 -0.84383281655E+01  0.46794656401E+02 -0.43445751257E+01  0.47930084320E+02  0.41800000000E+01 0. -1.
</event>
<event>
11    1  0.8453735E-009  0.1285084E+03  0.7561462E-02  0.1121115E+00
         22   -1    0    0    0    0  0.00000000000E+00  0.00000000000E+00  0.59607253295E+03  0.59607253295E+03  0.00000000000E+00 0. -1.
         22   -1    0    0    0    0 -0.00000000000E+00 -0.00000000000E+00 -0.99077437856E+02  0.99077437856E+02  0.00000000000E+00 0. -1.
         24    2    1    2    0    0  0.24436473131E+02  0.18317760663E+02 -0.42684599430E+02  0.10068704033E+03  0.85925685837E+02 0.  0.
         25    2    1    2    0    0  0.29042001956E+01 -0.37425884411E+02  0.17235756503E+03  0.21624488376E+03  0.12508232621E+03 0.  0.
        -24    2    1    2    0    0 -0.27340673327E+02  0.19108123748E+02  0.36732212949E+03  0.37821804671E+03  0.83729990038E+02 0.  0.
        -11    1    3    3    0    0 -0.68146535215E+01  0.24223336390E+02  0.18835481863E+02  0.31432227180E+02  0.00000000000E+00 0.  1.
         12    1    3    3    0    0  0.31251126653E+02 -0.59055757275E+01 -0.61520081293E+02  0.69254813147E+02  0.00000000000E+00 0. -1.
         11    1    5    5    0    0 -0.44766620972E+02  0.13619189225E+02  0.34975936126E+03  0.35287553536E+03  0.00000000000E+00 0. -1.
        -12    1    5    5    0    0  0.17425947645E+02  0.54889345229E+01  0.17562768237E+02  0.25342511353E+02  0.00000000000E+00 0.  1.
          5    1    4    4  501    0  0.46917273710E+02 -0.13128580823E+02  0.15557518935E+03  0.16307882189E+03  0.41800000000E+01 0.  1.
         -5    1    4    4    0  501 -0.44013073514E+02 -0.24297303588E+02  0.16782375673E+02  0.53166061873E+02  0.41800000000E+01 0.  1.
</event>
<event>
11    1  0.8453735E-009  0.1535473E+03  0.7561462E-02  0.1093308E+00
         22   -1    0    0    0    0  0.00000000000E+00  0.00000000000E+00  0.21036005114E+03  0.21036005114E+03  0.00000000000E+00 0. -1.
         22   -1    0    0    0    0 -0.00000000000E+00 -0.00000000000E+00 -0.47913512160E+03  0.47913512160E+03  0.00000000000E+00 0. -1.
         24    2    1    2    0    0  0.30350580425E+02  0.10669655412E+00 -0.32397794130E+03  0.33543038532E+03  0.81428912731E+02 0.  0.
         25    2    1    2    0    0 -0.28691718258E+02 -0.89096960958E+02 -0.78234632408E+02  0.17472185211E+03  0.12508231189E+03 0.  0.
        -24    2    1    2    0    0 -0.16588621677E+01  0.88990264404E+02  0.13343750325E+03  0.17934293532E+03  0.80226567871E+02 0.  0.
        -11    1    3    3    0    0  0.15842554764E+02 -0.39289013991E+02 -0.12229894318E+03  0.12942814480E+03  0.00000000000E+00 0.  1.
         12    1    3    3    0    0  0.14508025662E+02  0.39395710545E+02 -0.20167899812E+03  0.20600224052E+03  0.00000000000E+00 0. -1.
         11    1    5    5    0    0  0.15835232877E+02  0.93999509186E+01  0.79533952014E+02  0.81638000959E+02  0.00000000000E+00 0. -1.
        -12    1    5    5    0    0 -0.17494095045E+02  0.79590313486E+02  0.53903551233E+02  0.97704934357E+02  0.00000000000E+00 0.  1.
          5    1    4    4  501    0 -0.60381111515E+02 -0.17019816535E+02 -0.72061097215E+02  0.95633816794E+02  0.41800000000E+01 0.  1.
         -5    1    4    4    0  501  0.31689393258E+02 -0.72077144424E+02 -0.61735351926E+01  0.79088035316E+02  0.41800000000E+01 0.  1.
</event>
<event>
11    1  0.8453735E-009  0.1903397E+03  0.7561462E-02  0.1061573E+00
         22   -1    0    0    0    0  0.00000000000E+00  0.00000000000E+00  0.93514755073E+03  0.93514755073E+03  0.00000000000E+00 0. -1.
         22   -1    0    0    0    0 -0.00000000000E+00 -0.00000000000E+00 -0.18831361046E+03  0.18831361046E+03  0.00000000000E+00 0. -1.
         24    2    1    2    0    0 -0.82545873055E+02 -0.12418504220E+03 -0.10067862573E+03  0.19717236799E+03  0.80653649362E+02 0.  0.
         25    2    1    2    0    0  0.41062322636E+02  0.11471509140E+03  0.17403002682E+03  0.24653508803E+03  0.12508969926E+03 0.  0.
        -24    2    1    2    0    0  0.41483550419E+02  0.94699508015E+01  0.67348253919E+03  0.67975370517E+03  0.81705594452E+02 0.  0.
        -11    1    3    3    0    0 -0.35184166769E+02 -0.77533644055E+00 -0.34748383896E+02  0.49456818753E+02  0.00000000000E+00 0.  1.
         12    1    3    3    0    0 -0.47361706286E+02 -0.12340970576E+03 -0.65930241838E+02  0.14771554924E+03  0.00000000000E+00 0. -1.
         13    1    5    5    0    0  0.13075740417E+02 -0.11571060718E+02  0.57242663722E+03  0.57269286658E+03  0.00000000000E+00 0. -1.
        -14    1    5    5    0    0  0.28407810002E+02  0.21041011519E+02  0.10105590197E+03  0.10706083858E+03  0.00000000000E+00 0.  1.
          5    1    4    4  501    0  0.39633296361E+02  0.12552823710E+03  0.85017961144E+02  0.15675988839E+03  0.41800000000E+01 0.  1.
         -5    1    4    4    0  501  0.14290262751E+01 -0.10813145698E+02  0.89012065673E+02  0.89775199645E+02  0.41800000000E+01 0.  1.
</event>
<event>
11    1  0.8453735E-009  0.1291086E+03  0.7561462E-02  0.1120369E+00
         22   -1    0    0    0    0  0.00000000000E+00  0.00000000000E+00  0.43041237958E+03  0.43041237958E+03  0.00000000000E+00 0.  1.
         22   -1    0    0    0    0 -0.00000000000E+00 -0.00000000000E+00 -0.65558502013E+03  0.65558502013E+03  0.00000000000E+00 0.  1.
         24    2    1    2    0    0 -0.23693404335E+02  0.16825855333E+01 -0.56279975550E+03  0.56901319621E+03  0.80425394986E+02 0.  0.
         25    2    1    2    0    0 -0.43736799725E+01 -0.18973734224E+02 -0.37749631361E+02  0.13210689679E+03  0.12509222935E+03 0.  0.
        -24    2    1    2    0    0  0.28067084308E+02  0.17291148691E+02  0.37537674631E+03  0.38487730672E+03  0.78333227385E+02 0.  0.
        -11    1    3    3    0    0 -0.19048324728E+02  0.26409537533E+02 -0.50407743961E+03  0.50512807036E+03  0.00000000000E+00 0.  1.
         12    1    3    3    0    0 -0.46450796069E+01 -0.24726951999E+02 -0.58722315895E+02  0.63885125842E+02  0.00000000000E+00 0. -1.
         11    1    5    5    0    0  0.16781955880E+02 -0.12952130165E+02  0.24003312025E+02  0.32024220633E+02  0.00000000000E+00 0. -1.
        -12    1    5    5    0    0  0.11285128428E+02  0.30243278856E+02  0.35137343428E+03  0.35285308609E+03  0.00000000000E+00 0.  1.
          5    1    4    4  501    0  0.27463064834E+02  0.37228063712E+02  0.14781030591E+02  0.48745255392E+02  0.41800000000E+01 0.  1.
         -5    1    4    4    0  501 -0.31836744807E+02 -0.56201797937E+02 -0.52530661952E+02  0.83361641397E+02  0.41800000000E+01 0.  1.
</event>
<event>
11    1  0.8453735E-009  0.1395612E+03  0.7561462E-02  0.1108049E+00
         22   -1    0    0    0    0  0.00000000000E+00  0.00000000000E+00  0.13311308720E+03  0.13311308720E+03  0.00000000000E+00 0.  1.
         22   -1    0    0    0    0 -0.00000000000E+00 -0.00000000000E+00 -0.15898741907E+04  0.15898741907E+04  0.00000000000E+00 0. -1.
        -24    2    1    2    0    0 -0.61676923698E+02  0.86791204500E+01 -0.15198605827E+04  0.15232282032E+04  0.79803496022E+02 0.  0.
         25    2    1    2    0    0  0.42465644677E+02  0.19860201026E+01  0.32259063094E+02  0.13599935707E+03  0.12509157732E+03 0.  0.
         24    2    1    2    0    0  0.19211279021E+02 -0.10665140553E+02  0.30840416193E+02  0.63759717602E+02  0.51296704115E+02 0.  0.
        -13    1    5    5    0    0 -0.19046591131E+01 -0.28177418593E+02  0.13467332480E+02  0.31288395437E+02  0.00000000000E+00 0.  1.
         14    1    5    5    0    0  0.21115938134E+02  0.17512278040E+02  0.17373083713E+02  0.32471322165E+02  0.00000000000E+00 0. -1.
         11    1    3    3    0    0 -0.54229025245E+02  0.16723842086E+02 -0.14947726209E+04  0.14958494785E+04  0.00000000000E+00 0. -1.
        -12    1    3    3    0    0 -0.74478984528E+01 -0.80447216362E+01 -0.25087961853E+02  0.27378724724E+02  0.00000000000E+00 0.  1.
          5    1    4    4  501    0 -0.19705752061E+02  0.45433621948E+02 -0.74970388522E+01  0.50261403275E+02  0.41800000000E+01 0.  1.
         -5    1    4    4    0  501  0.62171396738E+02 -0.43447601845E+02  0.39756101946E+02  0.85737953792E+02  0.41800000000E+01 0.  1.
</event>
<event>
11    1  0.8453735E-009  0.3218140E+03  0.7561462E-02  0.9913595E-01
         22   -1    0    0    0    0  0.00000000000E+00  0.00000000000E+00  0.79208198341E+03  0.79208198341E+03  0.00000000000E+00 0. -1.
         22   -1    0    0    0    0 -0.00000000000E+00 -0.00000000000E+00 -0.59475970670E+03  0.59475970670E+03  0.00000000000E+00 0. -1.
         24    2    1    2    0    0  0.11366638783E+03  0.27564622438E+03 -0.47627305506E+03  0.56756133088E+03  0.79930923895E+02 0.  0.
         25    2    1    2    0    0 -0.20020395792E+03 -0.21334660920E+03  0.55445806675E+03  0.63927341165E+03  0.12509335165E+03 0.  0.
        -24    2    1    2    0    0  0.86537570087E+02 -0.62299615183E+02  0.11913726501E+03  0.18000694758E+03  0.82697159405E+02 0.  0.
        -13    1    3    3    0    0  0.96366652373E+01 -0.10851252777E+00 -0.31310986220E+01  0.10133156983E+02  0.00000000000E+00 0.  1.
         14    1    3    3    0    0  0.10402972260E+03  0.27575473691E+03 -0.47314195644E+03  0.55742817390E+03  0.00000000000E+00 0. -1.
         13    1    5    5    0    0  0.51498771804E+02  0.11233888707E+02  0.37538704435E+02  0.64710726186E+02  0.00000000000E+00 0. -1.
        -14    1    5    5    0    0  0.35038798283E+02 -0.73533503890E+02  0.81598560577E+02  0.11529622139E+03  0.00000000000E+00 0.  1.
          5    1    4    4  501    0 -0.28437180942E+02 -0.75777785895E+01  0.15747594789E+03  0.16025680189E+03  0.41800000000E+01 0.  1.
         -5    1    4    4    0  501 -0.17176677698E+03 -0.20576883061E+03  0.39698211886E+03  0.47901660975E+03  0.41800000000E+01 0.  1.
</event>
<event>
11    1  0.8453735E-009  0.1458062E+03  0.7561462E-02  0.1101243E+00
         22   -1    0    0    0    0  0.00000000000E+00  0.00000000000E+00  0.11220202739E+04  0.11220202739E+04  0.00000000000E+00 0. -1.
         22   -1    0    0    0    0 -0.00000000000E+00 -0.00000000000E+00 -0.17680618911E+03  0.17680618911E+03  0.00000000000E+00 0. -1.
         24    2    1    2    0    0 -0.18265136576E+02 -0.12209872003E+01 -0.13455017389E+03  0.16035548457E+03  0.85293763635E+02 0.  0.
         25    2    1    2    0    0 -0.19081770958E+02 -0.64924015862E+02  0.16647984695E+03  0.21895753031E+03  0.12509044256E+03 0.  0.
        -24    2    1    2    0    0  0.37346907533E+02  0.66145003062E+02  0.91328441170E+03  0.91951344809E+03  0.75143939422E+02 0.  0.
        -11    1    3    3    0    0 -0.27074892962E+02 -0.39214797316E+02 -0.83093840710E+02  0.95788498899E+02  0.00000000000E+00 0.  1.
         12    1    3    3    0    0  0.88097563865E+01  0.37993810116E+02 -0.51456333181E+02  0.64566985675E+02  0.00000000000E+00 0. -1.
         13    1    5    5    0    0 -0.11309780389E+02  0.40315326680E+02  0.59707830612E+03  0.59854468533E+03  0.00000000000E+00 0. -1.
        -14    1    5    5    0    0  0.48656687922E+02  0.25829676382E+02  0.31620610558E+03  0.32096876276E+03  0.00000000000E+00 0.  1.
          5    1    4    4  501    0 -0.40344034352E+02 -0.60190152584E+02  0.17923368083E+03  0.19337187055E+03  0.41800000000E+01 0. -1.
         -5    1    4    4    0  501  0.21262263395E+02 -0.47338632777E+01 -0.12753833886E+02  0.25585659753E+02  0.41800000000E+01 0. -1.
</event>
<event>
11    1  0.8453735E-009  0.1329803E+03  0.7561462E-02  0.1115660E+00
         22   -1    0    0    0    0  0.00000000000E+00  0.00000000000E+00  0.66510671132E+03  0.66510671132E+03  0.00000000000E+00 0.  1.
         22   -1    0    0    0    0 -0.00000000000E+00 -0.00000000000E+00 -0.45593148963E+03  0.45593148963E+03  0.00000000000E+00 0. -1.
         24    2    1    2    0    0 -0.37948461963E+02  0.20296001410E+02 -0.42383317755E+03  0.43360859700E+03  0.80807422706E+02 0.  0.
         25    2    1    2    0    0  0.69851247054E+02 -0.31800760255E+02  0.24798906094E+03  0.28816629557E+03  0.12510297554E+03 0.  0.
        -24    2    1    2    0    0 -0.31902785091E+02  0.11504758845E+02  0.38501933831E+03  0.39926330838E+03  0.10010570099E+03 0.  0.
        -13    1    3    3    0    0  0.25454046430E+01  0.43346691795E+02 -0.16516856329E+03  0.17078076318E+03  0.00000000000E+00 0.  1.
         14    1    3    3    0    0 -0.40493866606E+02 -0.23050690385E+02 -0.25866461427E+03  0.26282783382E+03  0.00000000000E+00 0. -1.
         13    1    5    5    0    0  0.25053381430E+02  0.35842938835E+02  0.16364982583E+03  0.16939201186E+03  0.00000000000E+00 0. -1.
        -14    1    5    5    0    0 -0.56956166522E+02 -0.24338179990E+02  0.22136951247E+03  0.22987129652E+03  0.00000000000E+00 0.  1.
          5    1    4    4  501    0  0.73456717884E+02 -0.23802125808E+02  0.54908170050E+02  0.94840972863E+02  0.41800000000E+01 0.  1.
         -5    1    4    4    0  501 -0.36054708301E+01 -0.79986344477E+01  0.19308089089E+03  0.19332532270E+03  0.41800000000E+01 0.  1.
</event>
<event>
11    1  0.8453735E-009  0.2853910E+03  0.7561462E-02  0.1006571E+00
         22   -1    0    0    0    0  0.00000000000E+00  0.00000000000E+00  0.18235741035E+04  0.18235741035E+04  0.00000000000E+00 0.  1.
         22   -1    0    0    0    0 -0.00000000000E+00 -0.00000000000E+00 -0.46034992724E+03  0.46034992724E+03  0.00000000000E+00 0.  1.
        -24    2    1    2    0    0  0.13544795564E+02 -0.11178267762E+02 -0.25073939008E+03  0.26350333425E+03  0.79090772314E+02 0.  0.
         25    2    1    2    0    0 -0.26927265270E+03  0.17199937644E+02 -0.77881924857E+02  0.30743462297E+03  0.12508738480E+03 0.  0.
         24    2    1    2    0    0  0.25572785713E+03 -0.60216698825E+01  0.16918454912E+04  0.17129860736E+04  0.80914303990E+02 0.  0.
        -11    1    5    5    0    0  0.44427247219E+02 -0.20870827919E+02  0.50559319114E+03  0.50797032067E+03  0.00000000000E+00 0.  1.
         12    1    5    5    0    0  0.21130060991E+03  0.14849158036E+02  0.11862523001E+04  0.12050157529E+04  0.00000000000E+00 0. -1.
         11    1    3    3    0    0  0.15348314945E+02 -0.96598141333E+01 -0.65184879227E+01  0.19271052528E+02  0.00000000000E+00 0. -1.
        -12    1    3    3    0    0 -0.18035193810E+01 -0.15184536285E+01 -0.24422090215E+03  0.24423228172E+03  0.00000000000E+00 0.  1.
          5    1    4    4  501    0 -0.26004434732E+03  0.48447742710E+02 -0.69851096280E+02  0.27361815436E+03  0.41800000000E+01 0.  1.
         -5    1    4    4    0  501 -0.92283053809E+01 -0.31247805066E+02 -0.80308285769E+01  0.33816468610E+02  0.41800000000E+01 0.  1.
</event>
<event>
11    1  0.8453735E-009  0.1356032E+03  0.7561462E-02  0.1112570E+00
         22   -1    0    0    0    0  0.00000000000E+00  0.00000000000E+00  0.61217872992E+03  0.61217872992E+03  0.00000000000E+00 0. -1.
         22   -1    0    0    0    0 -0.00000000000E+00 -0.00000000000E+00 -0.61331498995E+03  0.61331498995E+03  0.00000000000E+00 0. -1.
         24    2    1    2    0    0 -0.10025525106E+02  0.49068965239E+02 -0.46661867073E+03  0.47593438754E+03  0.79197745349E+02 0.  0.
         25    2    1    2    0    0  0.27091515520E+02 -0.66283741342E+02 -0.10166976751E+03  0.17638519792E+03  0.12509001495E+03 0.  0.
        -24    2    1    2    0    0 -0.17065990414E+02  0.17214776102E+02  0.56715217821E+03  0.57317413441E+03  0.79242656198E+02 0.  0.
        -13    1    3    3    0    0  0.45452045424E+01  0.33605012221E+02 -0.61262698879E+02  0.70021953734E+02  0.00000000000E+00 0.  1.
         14    1    3    3    0    0 -0.14570729648E+02  0.15463953018E+02 -0.40535597185E+03  0.40591243381E+03  0.00000000000E+00 0. -1.
         11    1    5    5    0    0  0.27046703988E+02  0.26116709995E+02  0.28123500561E+03  0.28373708802E+03  0.00000000000E+00 0. -1.
        -12    1    5    5    0    0 -0.44112694402E+02 -0.89019338927E+01  0.28591717260E+03  0.28943704639E+03  0.00000000000E+00 0.  1.
          5    1    4    4  501    0 -0.47432864603E+01  0.30107907088E+02  0.25096238801E+01  0.30866736913E+02  0.41800000000E+01 0.  1.
         -5    1    4    4    0  501  0.31834801980E+02 -0.96391648429E+02 -0.10417939139E+03  0.14551846101E+03  0.41800000000E+01 0.  1.
</event>
<event>
11    1  0.8453735E-009  0.1822314E+03  0.7561462E-02  0.1067852E+00
         22   -1    0    0    0    0  0.00000000000E+00  0.00000000000E+00  0.50900541188E+03  0.50900541188E+03  0.00000000000E+00 0. -1.
         22   -1    0    0    0    0 -0.00000000000E+00 -0.00000000000E+00 -0.26393266373E+03  0.26393266373E+03  0.00000000000E+00 0. -1.
         24    2    1    2    0    0 -0.54597491425E+02  0.60542634083E+02 -0.14761696791E+03  0.18747379917E+03  0.81910680293E+02 0.  0.
         25    2    1    2    0    0  0.10996866587E+03  0.65787123812E+02  0.22808539609E+02  0.18051891537E+03  0.12508315711E+03 0.  0.
        -24    2    1    2    0    0 -0.55371174447E+02 -0.12632975789E+03  0.36988117646E+03  0.40494536107E+03  0.90241265862E+02 0.  0.
        -11    1    3    3    0    0 -0.20067355843E+02  0.51107882132E+01  0.51450599516E+01  0.21337538953E+02  0.00000000000E+00 0.  1.
         12    1    3    3    0    0 -0.34530135582E+02  0.55431845869E+02 -0.15276202787E+03  0.16613626021E+03  0.00000000000E+00 0. -1.
         11    1    5    5    0    0 -0.20387170994E+02 -0.12528054168E+03  0.31766170448E+03  0.34208158290E+03  0.00000000000E+00 0. -1.
        -12    1    5    5    0    0 -0.34984003454E+02 -0.10492162130E+01  0.52219471981E+02  0.62863778173E+02  0.00000000000E+00 0.  1.
          5    1    4    4  501    0  0.19212953229E+02  0.68229519589E+02  0.48599870865E+02  0.86045480783E+02  0.41800000000E+01 0. -1.
         -5    1    4    4    0  501  0.90755712643E+02 -0.24423957764E+01 -0.25791331256E+02  0.94473434586E+02  0.41800000000E+01 0. -1.
</event>
<event>
11    1  0.8453735E-009  0.1338877E+03  0.7561462E-02  0.1114582E+00
         22   -1    0    0    0    0  0.00000000000E+00  0.00000000000E+00  0.10716127777E+04  0.10716127777E+04  0.00000000000E+00 0.  1.
         22   -1    0    0    0    0 -0.00000000000E+00 -0.00000000000E+00 -0.45168191369E+03  0.45168191369E+03  0.00000000000E+00 0.  1.
         24    2    1    2    0    0  0.33148528631E+02  0.27617080317E+02 -0.41084681139E+03  0.41939850830E+03  0.72377332502E+02 0.  0.
         25    2    1    2    0    0 -0.78953987304E+02 -0.29653836050E+02  0.12999205116E+03  0.19914397138E+03  0.12508919165E+03 0.  0.
        -24    2    1    2    0    0  0.45805458672E+02  0.20367557331E+01  0.90078562429E+03  0.90475221175E+03  0.71130410730E+02 0.  0.
        -13    1    3    3    0    0  0.12620425678E+02  0.11349188498E+02 -0.37292151150E+03  0.37330755814E+03  0.00000000000E+00 0.  1.
         14    1    3    3    0    0  0.20528102953E+02  0.16267891819E+02 -0.37925299887E+02  0.46090950160E+02  0.00000000000E+00 0. -1.
         11    1    5    5    0    0  0.13110255625E+02  0.38823209889E+01  0.26195310587E+02  0.29549035781E+02  0.00000000000E+00 0. -1.
        -12    1    5    5    0    0  0.32695203048E+02 -0.18455652558E+01  0.87459031370E+03  0.87520317597E+03  0.00000000000E+00 0.  1.
          5    1    4    4  501    0  0.19761739657E+02 -0.23409291283E+02 -0.54306651107E+01  0.31392448076E+02  0.41800000000E+01 0.  1.
         -5    1    4    4    0  501 -0.98715726960E+02 -0.62445447674E+01  0.13542271627E+03  0.16775152330E+03  0.41800000000E+01 0.  1.
</event>
<event>
11    1  0.8453735E-009  0.3427395E+03  0.7561462E-02  0.9835673E-01
         22   -1    0    0    0    0  0.00000000000E+00  0.00000000000E+00  0.12273743688E+04  0.12273743688E+04  0.00000000000E+00 0.  1.
         22   -1    0    0    0    0 -0.00000000000E+00 -0.00000000000E+00 -0.53189429526E+03  0.53189429526E+03  0.00000000000E+00 0. -1.
        -24    2    1    2    0    0  0.35165616446E+02  0.12318007902E+03 -0.49660864415E+03  0.51888731626E+03  0.78828605770E+02 0.  0.
         25    2    1    2    0    0  0.74624543238E+01 -0.24821520488E+02  0.18638438250E+03  0.22595831052E+03  0.12508486698E+03 0.  0.
         24    2    1    2    0    0 -0.42628070769E+02 -0.98358558534E+02  0.10057043352E+04  0.10144230373E+04  0.78238930797E+02 0.  0.
        -13    1    5    5    0    0 -0.38997491030E+01 -0.37094661441E+02  0.66741978315E+03  0.66846120971E+03  0.00000000000E+00 0.  1.
         14    1    5    5    0    0 -0.38728321666E+02 -0.61263897093E+02  0.33828455209E+03  0.34596182762E+03  0.00000000000E+00 0. -1.
         13    1    3    3    0    0  0.49980763800E+02  0.72456960255E+02 -0.39113049481E+03  0.40091289804E+03  0.00000000000E+00 0. -1.
        -14    1    3    3    0    0 -0.14815147354E+02  0.50723118767E+02 -0.10547814933E+03  0.11797441823E+03  0.00000000000E+00 0.  1.
          5    1    4    4  501    0 -0.51872038268E+02 -0.67869571940E+01  0.37154297128E+02  0.64301518933E+02  0.41800000000E+01 0.  1.
         -5    1    4    4    0  501  0.59334492592E+02 -0.18034563294E+02  0.14923008537E+03  0.16165679158E+03  0.41800000000E+01 0.  1.
</event>
<event>
11    1  0.8453735E-009  0.1381064E+03  0.7561462E-02  0.1109691E+00
         22   -1    0    0    0    0  0.00000000000E+00  0.00000000000E+00  0.58428571835E+03  0.58428571835E+03  0.00000000000E+00 0. -1.
         22   -1    0    0    0    0 -0.00000000000E+00 -0.00000000000E+00 -0.26891339875E+03  0.26891339875E+03  0.00000000000E+00 0.  1.
         24    2    1    2    0    0 -0.49625803422E+02  0.26120288402E+02 -0.21314977707E+03  0.23451259528E+03  0.80114543313E+02 0.  0.
         25    2    1    2    0    0  0.83397401723E+02 -0.41127374892E+02  0.10870477402E+03  0.19002528192E+03  0.12508514017E+03 0.  0.
        -24    2    1    2    0    0 -0.33771598302E+02  0.15007086490E+02  0.41981732265E+03  0.42866123990E+03  0.78346287089E+02 0.  0.
        -11    1    3    3    0    0 -0.45546957306E+02 -0.55138182520E+01 -0.18904515603E+03  0.19453276981E+03  0.00000000000E+00 0.  1.
         12    1    3    3    0    0 -0.40788461154E+01  0.31634106654E+02 -0.24104621040E+02  0.39979825474E+02  0.00000000000E+00 0. -1.
         13    1    5    5    0    0  0.14959932384E+02  0.31630116986E+02  0.18223624472E+03  0.18556484788E+03  0.00000000000E+00 0. -1.
        -14    1    5    5    0    0 -0.48731530686E+02 -0.16623030496E+02  0.23758107793E+03  0.24309639203E+03  0.00000000000E+00 0.  1.
          5    1    4    4  501    0  0.81047541489E+01 -0.72720882264E+02  0.61085263247E+02  0.95409095704E+02  0.41800000000E+01 0.  1.
         -5    1    4    4    0  501  0.75292647574E+02  0.31593507372E+02  0.47619510776E+02  0.94616186212E+02  0.41800000000E+01 0.  1.
</event>
<event>
11    1  0.8453735E-009  0.1469967E+03  0.7561462E-02  0.1099988E+00
         22   -1    0    0    0    0  0.00000000000E+00  0.00000000000E+00  0.10445616588E+03  0.10445616588E+03  0.00000000000E+00 0.  1.
         22   -1    0    0    0    0 -0.00000000000E+00 -0.00000000000E+00 -0.34763827634E+03  0.34763827634E+03  0.00000000000E+00 0.  1.
        -24    2    1    2    0    0  0.34259668765E+00  0.29906378185E+01 -0.12880201396E+03  0.15361144350E+03  0.83650794902E+02 0.  0.
         25    2    1    2    0    0  0.74915573056E+02  0.15475569636E+02 -0.11459009143E+03  0.18608955938E+03  0.12508636502E+03 0.  0.
         24    2    1    2    0    0 -0.75258169744E+02 -0.18466207454E+02  0.20999492181E+00  0.11239343935E+03  0.81409140637E+02 0.  0.
        -13    1    5    5    0    0 -0.71569481247E+02 -0.43754084495E+02 -0.10781347001E+02  0.84574511522E+02  0.00000000000E+00 0.  1.
         14    1    5    5    0    0 -0.36886884965E+01  0.25287877041E+02  0.10991341923E+02  0.27818927825E+02  0.00000000000E+00 0. -1.
         11    1    3    3    0    0 -0.28226761829E+02  0.13536730681E+02 -0.11672578197E+03  0.12085073991E+03  0.00000000000E+00 0. -1.
        -12    1    3    3    0    0  0.28569358517E+02 -0.10546092863E+02 -0.12076231991E+02  0.32760703592E+02  0.00000000000E+00 0.  1.
          5    1    4    4  501    0  0.73983764467E+02  0.63872572571E+02 -0.81165927243E+02  0.12711680879E+03  0.41800000000E+01 0. -1.
         -5    1    4    4    0  501  0.93180858924E+00 -0.48397002935E+02 -0.33424164188E+02  0.58972750589E+02  0.41800000000E+01 0. -1.
</event>
<event>
11    1  0.8453735E-009  0.1269245E+03  0.7561462E-02  0.1123107E+00
         22   -1    0    0    0    0  0.00000000000E+00  0.00000000000E+00  0.35740212199E+03  0.35740212199E+03  0.00000000000E+00 0. -1.
         22   -1    0    0    0    0 -0.00000000000E+00 -0.00000000000E+00 -0.33148556201E+04  0.33148556201E+04  0.00000000000E+00 0.  1.
         24    2    1    2    0    0 -0.88669167482E+01 -0.19711054682E+02 -0.32399954104E+04  0.32411251068E+04  0.82792211139E+02 0.  0.
         25    2    1    2    0    0  0.26526777026E+02  0.11368219140E+01 -0.81883171388E+01  0.12813485137E+03  0.12508608770E+03 0.  0.
        -24    2    1    2    0    0 -0.17659860278E+02  0.18574232768E+02  0.29073022945E+03  0.30299778396E+03  0.81404655770E+02 0.  0.
        -13    1    3    3    0    0 -0.25354870237E+02  0.18403977138E+02 -0.22993394814E+04  0.22995529188E+04  0.00000000000E+00 0.  1.
         14    1    3    3    0    0  0.16487953489E+02 -0.38115031820E+02 -0.94065592904E+03  0.94157218794E+03  0.00000000000E+00 0. -1.
         13    1    5    5    0    0 -0.40444761063E+02  0.37854966755E+02  0.18185329268E+03  0.19010364874E+03  0.00000000000E+00 0. -1.
        -14    1    5    5    0    0  0.22784900785E+02 -0.19280733988E+02  0.10887693677E+03  0.11289413522E+03  0.00000000000E+00 0.  1.
          5    1    4    4  501    0 -0.55947709283E+00  0.41435723572E+02 -0.49184038536E+02  0.64449780831E+02  0.41800000000E+01 0. -1.
         -5    1    4    4    0  501  0.27086254119E+02 -0.40298901658E+02  0.40995721397E+02  0.63685070541E+02  0.41800000000E+01 0. -1.
</event>
<event>
11    1  0.8453735E-009  0.1295762E+03  0.7561462E-02  0.1119791E+00
         22   -1    0    0    0    0  0.00000000000E+00  0.00000000000E+00  0.17673370169E+03  0.17673370169E+03  0.00000000000E+00 0.  1.
         22   -1    0    0    0    0 -0.00000000000E+00 -0.00000000000E+00 -0.20106594240E+04  0.20106594240E+04  0.00000000000E+00 0. -1.
        -24    2    1    2    0    0 -0.28621050084E+02  0.21891455459E+01 -0.17233937494E+04  0.17255495105E+04  0.81308922741E+02 0.  0.
         25    2    1    2    0    0  0.60906385925E+02 -0.68833669979E+01 -0.25653642011E+03  0.29191430223E+03  0.12508419729E+03 0.  0.
         24    2    1    2    0    0 -0.32285335841E+02  0.46942214521E+01  0.14600444718E+03  0.16992931296E+03  0.80587183733E+02 0.  0.
        -11    1    5    5    0    0 -0.39711168102E+02 -0.36449771902E+01  0.15207705551E+03  0.15721861704E+03  0.00000000000E+00 0.  1.
         12    1    5    5    0    0  0.74258322607E+01  0.83391986422E+01 -0.60726083352E+01  0.12710695919E+02  0.00000000000E+00 0. -1.
         11    1    3    3    0    0 -0.36500881307E+02  0.78015310964E+01 -0.16974564100E+04  0.16978667327E+04  0.00000000000E+00 0. -1.
        -12    1    3    3    0    0  0.78798312232E+01 -0.56123855505E+01 -0.25937339419E+02  0.27682777819E+02  0.00000000000E+00 0.  1.
          5    1    4    4  501    0  0.44821256515E+02 -0.76011027148E+01 -0.26790422604E+03  0.27176620196E+03  0.41800000000E+01 0. -1.
         -5    1    4    4    0  501  0.16085129410E+02  0.71773571681E+00  0.11367805927E+02  0.20148100265E+02  0.41800000000E+01 0. -1.
</event>
<event>
11    1  0.8453735E-009  0.2127466E+03  0.7561462E-02  0.1045859E+00
         22   -1    0    0    0    0  0.00000000000E+00  0.00000000000E+00  0.12254013480E+04  0.12254013480E+04  0.00000000000E+00 0. -1.
         22   -1    0    0    0    0 -0.00000000000E+00 -0.00000000000E+00 -0.13730574997E+03  0.13730574997E+03  0.00000000000E+00 0. -1.
         24    2    1    2    0    0 -0.11538613535E+03 -0.11717226929E+03 -0.22906722081E+02  0.18477502672E+03  0.81078922422E+02 0.  0.
         25    2    1    2    0    0  0.14131329725E+03  0.19002242430E+03  0.63867060592E+03  0.69255048513E+03  0.12509221345E+03 0.  0.
        -24    2    1    2    0    0 -0.25927161903E+02 -0.72850155004E+02  0.47233171419E+03  0.48538158613E+03  0.80738300155E+02 0.  0.
        -13    1    3    3    0    0 -0.11067087134E+02 -0.71213665989E+01  0.22864125675E+02  0.26381101621E+02  0.00000000000E+00 0.  1.
         14    1    3    3    0    0 -0.10431904822E+03 -0.11005090269E+03 -0.45770847756E+02  0.15839392510E+03  0.00000000000E+00 0. -1.
         11    1    5    5    0    0 -0.45288356346E+02 -0.57328273149E+02  0.43118971040E+03  0.43733526325E+03  0.00000000000E+00 0. -1.
        -12    1    5    5    0    0  0.19361194442E+02 -0.15521881855E+02  0.41142003793E+02  0.48046322884E+02  0.00000000000E+00 0.  1.
          5    1    4    4  501    0  0.83369961995E+02  0.28704279856E+02  0.14287379628E+03  0.16794308651E+03  0.41800000000E+01 0.  1.
         -5    1    4    4    0  501  0.57943335259E+02  0.16131814444E+03  0.49579680965E+03  0.52460739862E+03  0.41800000000E+01 0.  1.
</event>
<event>
11    1  0.8453735E-009  0.1362146E+03  0.7561462E-02  0.1111861E+00
         22   -1    0    0    0    0  0.00000000000E+00  0.00000000000E+00  0.13783593747E+03  0.13783593747E+03  0.00000000000E+00 0. -1.
         22   -1    0    0    0    0 -0.00000000000E+00 -0.00000000000E+00 -0.15253258974E+04  0.15253258974E+04  0.00000000000E+00 0. -1.
         24    2    1    2    0    0 -0.13259361824E+01 -0.31956432256E+02 -0.12771075754E+04  0.12798702312E+04  0.77724370867E+02 0.  0.
         25    2    1    2    0    0 -0.43776328319E+02 -0.16105849682E+00 -0.20723680798E+03  0.24601460009E+03  0.12513870710E+03 0.  0.
        -24    2    1    2    0    0  0.45102264502E+02  0.32117490753E+02  0.96854423493E+02  0.13727700358E+03  0.79990304944E+02 0.  0.
        -11    1    3    3    0    0 -0.21343379850E+01  0.20422547602E+02 -0.13411290439E+03  0.13567574202E+03  0.00000000000E+00 0.  1.
         12    1    3    3    0    0  0.80840180258E+00 -0.52378979858E+02 -0.11429946711E+04  0.11441944892E+04  0.00000000000E+00 0. -1.
         11    1    5    5    0    0  0.27439155897E+02  0.42561887953E+02  0.10389775761E+03  0.11558185679E+03  0.00000000000E+00 0. -1.
        -12    1    5    5    0    0  0.17663108605E+02 -0.10444397200E+02 -0.70433341197E+01  0.21695146784E+02  0.00000000000E+00 0.  1.
          5    1    4    4  501    0 -0.67704497078E+02  0.40686875107E+02 -0.16257937466E+03  0.18080057023E+03  0.41800000000E+01 0.  1.
         -5    1    4    4    0  501  0.23928168759E+02 -0.40847933604E+02 -0.44657433321E+02  0.65214029861E+02  0.41800000000E+01 0.  1.
</event>
<event>
11    1  0.8453735E-009  0.3189644E+03  0.7561462E-02  0.9924698E-01
         22   -1    0    0    0    0  0.00000000000E+00  0.00000000000E+00  0.18956961782E+04  0.18956961782E+04  0.00000000000E+00 0. -1.
         22   -1    0    0    0    0 -0.00000000000E+00 -0.00000000000E+00 -0.10251864311E+03  0.10251864311E+03  0.00000000000E+00 0. -1.
        -24    2    1    2    0    0 -0.14424034164E+03 -0.25136939077E+03  0.26568960986E+03  0.40142873053E+03  0.81007469652E+02 0.  0.
         25    2    1    2    0    0  0.81261833178E+02  0.30499022468E+03  0.12649570604E+04  0.13097278050E+04  0.12509210973E+03 0.  0.
         24    2    1    2    0    0  0.62978508466E+02 -0.53620833913E+02  0.26253086478E+03  0.28705828570E+03  0.81477101519E+02 0.  0.
        -13    1    5    5    0    0  0.76453803145E+02 -0.49754981931E+02  0.25566096428E+03  0.27144662625E+03  0.00000000000E+00 0.  1.
         14    1    5    5    0    0 -0.13475294678E+02 -0.38658519823E+01  0.68699004956E+01  0.15611659458E+02  0.00000000000E+00 0. -1.
         13    1    3    3    0    0 -0.88919721353E+02 -0.21074253667E+03  0.22872299415E+03  0.32347077404E+03  0.00000000000E+00 0. -1.
        -14    1    3    3    0    0 -0.55320620291E+02 -0.40626854100E+02  0.36966615707E+02  0.77957956492E+02  0.00000000000E+00 0.  1.
          5    1    4    4  501    0  0.46627084977E+02  0.29009753984E+03  0.11896881172E+04  0.12254411273E+04  0.41800000000E+01 0. -1.
         -5    1    4    4    0  501  0.34634748202E+02  0.14892684841E+02  0.75268943185E+02  0.84286677790E+02  0.41800000000E+01 0. -1.
</event>
<event>
11    1  0.8453735E-009  0.1308538E+03  0.7561462E-02  0.1118224E+00
         22   -1    0    0    0    0  0.00000000000E+00  0.00000000000E+00  0.45765816222E+03  0.45765816222E+03  0.00000000000E+00 0.  1.
         22   -1    0    0    0    0 -0.00000000000E+00 -0.00000000000E+00 -0.52427030242E+03  0.52427030242E+03  0.00000000000E+00 0.  1.
        -24    2    1    2    0    0 -0.22021179222E+02  0.31613029772E+02 -0.35576821527E+03  0.36692155641E+03  0.81093092028E+02 0.  0.
         25    2    1    2    0    0  0.30483616345E+02 -0.24506388930E+02 -0.13174563733E+03  0.18583504206E+03  0.12509171010E+03 0.  0.
         24    2    1    2    0    0 -0.84624371234E+01 -0.71066408421E+01  0.42090171240E+03  0.42917186618E+03  0.83115113121E+02 0.  0.
        -13    1    5    5    0    0  0.19274762278E+02 -0.37796179381E+02  0.22071490056E+03  0.22475572288E+03  0.00000000000E+00 0.  1.
         14    1    5    5    0    0 -0.27737199401E+02  0.30689538539E+02  0.20018681184E+03  0.20441614330E+03  0.00000000000E+00 0. -1.
         13    1    3    3    0    0 -0.78449093810E+01  0.38290802089E+02 -0.65823201163E+02  0.76553392734E+02  0.00000000000E+00 0. -1.
        -14    1    3    3    0    0 -0.14176269841E+02 -0.66777723164E+01 -0.28994501411E+03  0.29036816367E+03  0.00000000000E+00 0.  1.
          5    1    4    4  501    0  0.58629423988E+02 -0.15322397373E+02 -0.14182219861E+03  0.15428283649E+03  0.41800000000E+01 0. -1.
         -5    1    4    4    0  501 -0.28145807643E+02 -0.91839915570E+01  0.10076561276E+02  0.31552205564E+02  0.41800000000E+01 0. -1.
</event>
<event>
11    1  0.1356234E-008  0.1855637E+03  0.7561462E-02  0.1065229E+00
         22   -1    0    0    0    0  0.00000000000E+00  0.00000000000E+00  0.50853673808E+03  0.50853673808E+03  0.00000000000E+00 0. -1.
         22   -1    0    0    0    0 -0.00000000000E+00 -0.00000000000E+00 -0.10471759750E+04  0.10471759750E+04  0.00000000000E+00 0.  1.
        -24    2    1    2    0    0 -0.27980491324E+02 -0.10629118794E+02 -0.80760807507E+03  0.81223552319E+03  0.81239498800E+02 0.  0.
         25    2    1    2    0    0 -0.10713590839E+03 -0.20976220143E+02 -0.19283212743E+03  0.25446049246E+03  0.12509119942E+03 0.  0.
         24    2    1    2    0    0  0.13511639972E+03  0.31605338937E+02  0.46180096557E+03  0.48901669744E+03  0.81374809710E+02 0.  0.
        -13    1    5    5    0    0  0.74259365233E+02  0.93490766130E+01  0.12228088317E+03  0.14336831222E+03  0.00000000000E+00 0.  1.
         14    1    5    5    0    0  0.60857034485E+02  0.22256262324E+02  0.33952008240E+03  0.34564838523E+03  0.00000000000E+00 0. -1.
         11    1    3    3    0    0  0.15686018621E+02 -0.18437907954E+02 -0.88217577772E+02  0.91478678706E+02  0.00000000000E+00 0. -1.
        -12    1    3    3    0    0 -0.43666509945E+02  0.78087891592E+01 -0.71939049729E+03  0.72075684449E+03  0.00000000000E+00 0.  1.
          5    1    4    4  501    0  0.73959538778E+01  0.18166372051E+02  0.66198498965E+01  0.21118996660E+02  0.41800000000E+01 0.  1.
         -5    1    4    4    0  501 -0.11453186227E+03 -0.39142592194E+02 -0.19945197733E+03  0.23334149580E+03  0.41800000000E+01 0.  1.
</event>
<event>
11    1  0.8453735E-009  0.1866617E+03  0.7561462E-02  0.1064378E+00
         22   -1    0    0    0    0  0.00000000000E+00  0.00000000000E+00  0.16637899595E+03  0.16637899595E+03  0.00000000000E+00 0.  1.
         22   -1    0    0    0    0 -0.00000000000E+00 -0.00000000000E+00 -0.54945555843E+03  0.54945555843E+03  0.00000000000E+00 0.  1.
         24    2    1    2    0    0  0.96861491737E+02  0.10939884581E+03 -0.41630472815E+03  0.44841040881E+03  0.80075039846E+02 0.  0.
         25    2    1    2    0    0 -0.58729229655E+02 -0.86473582486E+02 -0.16107102528E+02  0.16379934305E+03  0.12507590955E+03 0.  0.
        -24    2    1    2    0    0 -0.38132262082E+02 -0.22925263323E+02  0.49335268192E+02  0.10362480251E+03  0.79526686701E+02 0.  0.
        -13    1    3    3    0    0  0.72352689766E+02  0.65373097001E+02 -0.16137153768E+03  0.18854529085E+03  0.00000000000E+00 0.  1.
         14    1    3    3    0    0  0.24508801971E+02  0.44025748808E+02 -0.25493319046E+03  0.25986511796E+03  0.00000000000E+00 0. -1.
         13    1    5    5    0    0 -0.35711902959E+02 -0.50871137063E+02  0.40622713357E+02  0.74252390127E+02  0.00000000000E+00 0. -1.
        -14    1    5    5    0    0 -0.24203591229E+01  0.27945873741E+02  0.87125548354E+01  0.29372412383E+02  0.00000000000E+00 0.  1.
          5    1    4    4  501    0 -0.71653085824E+02 -0.30721782319E+02  0.36288089279E+02  0.86094659767E+02  0.41800000000E+01 0.  1.
         -5    1    4    4    0  501  0.12923856168E+02 -0.55751800168E+02 -0.52395191807E+02  0.77704683287E+02  0.41800000000E+01 0.  1.
</event>
<event>
11    1  0.8453735E-009  0.1366220E+03  0.7561462E-02  0.1111390E+00
         22   -1    0    0    0    0  0.00000000000E+00  0.00000000000E+00  0.15479484639E+03  0.15479484639E+03  0.00000000000E+00 0. -1.
         22   -1    0    0    0    0 -0.00000000000E+00 -0.00000000000E+00 -0.16594658531E+04  0.16594658531E+04  0.00000000000E+00 0. -1.
        -24    2    1    2    0    0 -0.16876698599E+02 -0.51890430902E+02 -0.15282983849E+04  0.15312240529E+04  0.77289760493E+02 0.  0.
         25    2    1    2    0    0  0.46893299460E+02  0.55601727851E+02 -0.64499363378E+02  0.15841635234E+03  0.12508013087E+03 0.  0.
         24    2    1    2    0    0 -0.30016600861E+02 -0.37112969485E+01  0.88126741567E+02  0.12462029426E+03  0.82759441210E+02 0.  0.
        -11    1    5    5    0    0  0.72268646084E+01 -0.14595403767E+02 -0.99924565416E+01  0.19107657390E+02  0.00000000000E+00 0.  1.
         12    1    5    5    0    0 -0.37243465469E+02  0.10884106818E+02  0.98119198109E+02  0.10551263687E+03  0.00000000000E+00 0. -1.
         11    1    3    3    0    0  0.28796478290E+01 -0.46160299254E+02 -0.14322973143E+04  0.14330438452E+04  0.00000000000E+00 0. -1.
        -12    1    3    3    0    0 -0.19756346428E+02 -0.57301316482E+01 -0.96001070557E+02  0.98180207684E+02  0.00000000000E+00 0.  1.
          5    1    4    4  501    0  0.79531255597E+02  0.30531590343E+02 -0.43351199682E+01  0.85402952472E+02  0.41800000000E+01 0.  1.
         -5    1    4    4    0  501 -0.32637956137E+02  0.25070137508E+02 -0.60164243410E+02  0.73013399870E+02  0.41800000000E+01 0.  1.
</event>
<event>
11    1  0.8453735E-009  0.1340117E+03  0.7561462E-02  0.1114436E+00
         22   -1    0    0    0    0  0.00000000000E+00  0.00000000000E+00  0.39226289013E+03  0.39226289013E+03  0.00000000000E+00 0.  1.
         22   -1    0    0    0    0 -0.00000000000E+00 -0.00000000000E+00 -0.89907243783E+02  0.89907243783E+02  0.00000000000E+00 0.  1.
         24    2    1    2    0    0  0.14692953643E+02 -0.42077444006E+02 -0.41833306806E+01  0.98245959009E+02  0.87454982849E+02 0.  0.
         25    2    1    2    0    0 -0.13201261770E+02  0.59007168582E+02  0.13218398837E+03  0.19177097434E+03  0.12508949021E+03 0.  0.
        -24    2    1    2    0    0 -0.14916918732E+01 -0.16929724576E+02  0.17435498866E+03  0.19215320057E+03  0.78957898265E+02 0.  0.
        -11    1    3    3    0    0  0.16477331451E+02  0.24302619021E+02  0.86577878894E+01  0.30611714002E+02  0.00000000000E+00 0.  1.
         12    1    3    3    0    0 -0.17843778075E+01 -0.66380063026E+02 -0.12841118570E+02  0.67634245007E+02  0.00000000000E+00 0. -1.
         11    1    5    5    0    0  0.18411329245E+02  0.23355848819E+02  0.36061676410E+02  0.46743098144E+02  0.00000000000E+00 0. -1.
        -12    1    5    5    0    0 -0.19903021118E+02 -0.40285573395E+02  0.13829331225E+03  0.14541010243E+03  0.00000000000E+00 0.  1.
          5    1    4    4  501    0  0.54827260413E+02  0.19842742345E+02  0.72156726636E+02  0.92864570785E+02  0.41800000000E+01 0. -1.
         -5    1    4    4    0  501 -0.68028522183E+02  0.39164426236E+02  0.60027261731E+02  0.98906403553E+02  0.41800000000E+01 0. -1.
</event>
<event>
11    1  0.8453735E-009  0.1473669E+03  0.7561462E-02  0.1099600E+00
         22   -1    0    0    0    0  0.00000000000E+00  0.00000000000E+00  0.10888350378E+04  0.10888350378E+04  0.00000000000E+00 0. -1.
         22   -1    0    0    0    0 -0.00000000000E+00 -0.00000000000E+00 -0.44297239789E+03  0.44297239789E+03  0.00000000000E+00 0. -1.
         24    2    1    2    0    0  0.70901714966E+02 -0.14834991306E+02 -0.21832126458E+03  0.24387643679E+03  0.81021057161E+02 0.  0.
         25    2    1    2    0    0 -0.78463392581E+02  0.54094612124E+02 -0.18023511229E+03  0.23919597945E+03  0.12508912762E+03 0.  0.
        -24    2    1    2    0    0  0.75616776144E+01 -0.39259620818E+02  0.10444190168E+04  0.10487350194E+04  0.86229702584E+02 0.  0.
        -13    1    3    3    0    0  0.39470860147E+02  0.27643137961E+02 -0.59914805041E+02  0.76888723102E+02  0.00000000000E+00 0.  1.
         14    1    3    3    0    0  0.31430854819E+02 -0.42478129267E+02 -0.15840645954E+03  0.16698771369E+03  0.00000000000E+00 0. -1.
         13    1    5    5    0    0 -0.19453667583E+02 -0.47052579128E+02  0.90915633569E+03  0.91058093166E+03  0.00000000000E+00 0. -1.
        -14    1    5    5    0    0  0.27015345198E+02  0.77929583102E+01  0.13526268107E+03  0.13815408776E+03  0.00000000000E+00 0.  1.
          5    1    4    4  501    0 -0.68943115505E+02 -0.15807100466E+02 -0.38072079433E+02  0.80436143822E+02  0.41800000000E+01 0.  1.
         -5    1    4    4    0  501 -0.95202770763E+01  0.69901712590E+02 -0.14216303286E+03  0.15875983563E+03  0.41800000000E+01 0.  1.
</event>
<event>
11    1  0.8453735E-009  0.1278895E+03  0.7561462E-02  0.1121890E+00
         22   -1    0    0    0    0  0.00000000000E+00  0.00000000000E+00  0.14685820366E+03  0.14685820366E+03  0.00000000000E+00 0.  1.
         22   -1    0    0    0    0 -0.00000000000E+00 -0.00000000000E+00 -0.47338558838E+03  0.47338558838E+03  0.00000000000E+00 0.  1.
        -24    2    1    2    0    0 -0.19524175667E+02 -0.15795071442E+02 -0.38432002304E+03  0.39352827818E+03  0.80820467095E+02 0.  0.
         25    2    1    2    0    0  0.45578456059E+02  0.28562655379E+02  0.24213019418E+02  0.13829656424E+03  0.12508576431E+03 0.  0.
         24    2    1    2    0    0 -0.26054280392E+02 -0.12767583937E+02  0.33579618909E+02  0.88418949616E+02  0.76475375898E+02 0.  0.
        -11    1    5    5    0    0 -0.49209123426E+02 -0.24325010156E+02  0.29186031258E+02  0.62169674022E+02  0.00000000000E+00 0.  1.
         12    1    5    5    0    0  0.23154843034E+02  0.11557426219E+02  0.43935876506E+01  0.26249275594E+02  0.00000000000E+00 0. -1.
         13    1    3    3    0    0 -0.61063587468E+01  0.29616047676E+01  0.15567976779E+01  0.69629260339E+01  0.00000000000E+00 0. -1.
        -14    1    3    3    0    0 -0.13417816920E+02 -0.18756676210E+02 -0.38587682072E+03  0.38656535215E+03  0.00000000000E+00 0.  1.
          5    1    4    4  501    0 -0.37412866857E+02  0.17510274490E+01  0.33585362559E+02  0.50480072126E+02  0.41800000000E+01 0.  1.
         -5    1    4    4    0  501  0.82991322915E+02  0.26811627930E+02 -0.93723431415E+01  0.87816492115E+02  0.41800000000E+01 0.  1.
</event>
<event>
11    1  0.8453735E-009  0.1805737E+03  0.7561462E-02  0.1069180E+00
         22   -1    0    0    0    0  0.00000000000E+00  0.00000000000E+00  0.57943269328E+03  0.57943269328E+03  0.00000000000E+00 0. -1.
         22   -1    0    0    0    0 -0.00000000000E+00 -0.00000000000E+00 -0.35489001785E+03  0.35489001785E+03  0.00000000000E+00 0. -1.
        -24    2    1    2    0    0 -0.63286326176E+02 -0.82486490945E+01 -0.25362290678E+03  0.27370435961E+03  0.80723592182E+02 0.  0.
         25    2    1    2    0    0  0.16509044738E+03  0.75240371900E+02  0.77532992445E+02  0.23361241975E+03  0.12508968127E+03 0.  0.
         24    2    1    2    0    0 -0.10180412121E+03 -0.66991722805E+02  0.40063258976E+03  0.42700593178E+03  0.83520199829E+02 0.  0.
        -13    1    5    5    0    0 -0.70931748013E+01  0.56832271026E+01  0.13057794541E+00  0.90900632375E+01  0.00000000000E+00 0.  1.
         14    1    5    5    0    0 -0.94710946408E+02 -0.72674949908E+02  0.40050201182E+03  0.41791586855E+03  0.00000000000E+00 0. -1.
         11    1    3    3    0    0 -0.79971316138E+02  0.36688050410E+01 -0.22221928346E+03  0.23619966443E+03  0.00000000000E+00 0. -1.
        -12    1    3    3    0    0  0.16684989962E+02 -0.11917454136E+02 -0.31403623319E+02  0.37504695182E+02  0.00000000000E+00 0.  1.
          5    1    4    4  501    0  0.10223519776E+03 -0.21516710288E+02  0.30222701464E+02  0.10883881920E+03  0.41800000000E+01 0. -1.
         -5    1    4    4    0  501  0.62855249627E+02  0.96757082187E+02  0.47310290981E+02  0.12477360054E+03  0.41800000000E+01 0. -1.
</event>
<event>
11    1  0.8453735E-009  0.1661234E+03  0.7561462E-02  0.1081455E+00
         22   -1    0    0    0    0  0.00000000000E+00  0.00000000000E+00  0.23914752015E+03  0.23914752015E+03  0.00000000000E+00 0.  1.
         22   -1    0    0    0    0 -0.00000000000E+00 -0.00000000000E+00 -0.12883895135E+04  0.12883895135E+04  0.00000000000E+00 0. -1.
         24    2    1    2    0    0 -0.11667561193E+02 -0.42142234635E+02 -0.10614947733E+04  0.10639333573E+04  0.57192089735E+02 0.  0.
         25    2    1    2    0    0 -0.42881214172E+02  0.13321290787E+03 -0.15934550893E+03  0.24623997649E+03  0.12513455740E+03 0.  0.
        -24    2    1    2    0    0  0.54548775365E+02 -0.91070673232E+02  0.17159828885E+03  0.21736369989E+03  0.80818122209E+02 0.  0.
        -13    1    3    3    0    0 -0.10499622113E+01  0.55136948899E+01 -0.11426316125E+02  0.12730434092E+02  0.00000000000E+00 0.  1.
         14    1    3    3    0    0 -0.10617598982E+02 -0.47655929525E+02 -0.10500684572E+04  0.10512029232E+04  0.00000000000E+00 0. -1.
         13    1    5    5    0    0 -0.80539801542E+01 -0.29424809704E+02  0.98358837905E+02  0.10298129450E+03  0.00000000000E+00 0. -1.
        -14    1    5    5    0    0  0.62602755519E+02 -0.61645863528E+02  0.73239450942E+02  0.11438240539E+03  0.00000000000E+00 0.  1.
          5    1    4    4  501    0 -0.22140948566E+02 -0.17084362197E+02 -0.55645273839E+02  0.62417673264E+02  0.41800000000E+01 0.  1.
         -5    1    4    4    0  501 -0.20740265605E+02  0.15029727006E+03 -0.10370023509E+03  0.18382230323E+03  0.41800000000E+01 0.  1.
</event>
<event>
11    1  0.8453735E-009  0.1297084E+03  0.7561462E-02  0.1119628E+00
         22   -1    0    0    0    0  0.00000000000E+00  0.00000000000E+00  0.55025465205E+03  0.55025465205E+03  0.00000000000E+00 0. -1.
         22   -1    0    0    0    0 -0.00000000000E+00 -0.00000000000E+00 -0.43176999249E+03  0.43176999249E+03  0.00000000000E+00 0.  1.
        -24    2    1    2    0    0 -0.94995804367E+01 -0.31632911458E+02 -0.40415297469E+03  0.41373134996E+03  0.82116501846E+02 0.  0.
         25    2    1    2    0    0 -0.36891687547E+01 -0.11425011314E+02  0.24065346019E+03  0.27148723754E+03  0.12508833437E+03 0.  0.
         24    2    1    2    0    0  0.13188749191E+02  0.43057922772E+02  0.28198417407E+03  0.29680605704E+03  0.80937217951E+02 0.  0.
        -11    1    5    5    0    0 -0.43060356196E+00  0.12402185233E+02 -0.41981454059E+00  0.12416757315E+02  0.00000000000E+00 0.  1.
         12    1    5    5    0    0  0.13619352753E+02  0.30655737539E+02  0.28240398861E+03  0.28438929972E+03  0.00000000000E+00 0. -1.
         11    1    3    3    0    0 -0.39587022556E+02  0.37353711527E+00 -0.12431237778E+03  0.13046393813E+03  0.00000000000E+00 0. -1.
        -12    1    3    3    0    0  0.30087442119E+02 -0.32006448573E+02 -0.27984059692E+03  0.28326741183E+03  0.00000000000E+00 0.  1.
          5    1    4    4  501    0 -0.58046930568E+02 -0.29871535997E+02  0.99796269726E+02  0.11932528090E+03  0.41800000000E+01 0. -1.
         -5    1    4    4    0  501  0.54357761814E+02  0.18446524683E+02  0.14085719046E+03  0.15216195663E+03  0.41800000000E+01 0. -1.
</event>
<event>
11    1  0.8453735E-009  0.1258670E+03  0.7561462E-02  0.1124454E+00
         22   -1    0    0    0    0  0.00000000000E+00  0.00000000000E+00  0.60015097931E+03  0.60015097931E+03  0.00000000000E+00 0.  1.
         22   -1    0    0    0    0 -0.00000000000E+00 -0.00000000000E+00 -0.28747377986E+03  0.28747377986E+03  0.00000000000E+00 0.  1.
        -24    2    1    2    0    0  0.93367581862E+01 -0.96793130340E+01 -0.25966838280E+03  0.27209333949E+03  0.80163908423E+02 0.  0.
         25    2    1    2    0    0 -0.20843297999E+02  0.42997929798E+01  0.22171885704E+03  0.25546133778E+03  0.12509321422E+03 0.  0.
         24    2    1    2    0    0  0.11506539813E+02  0.53795200542E+01  0.35062672521E+03  0.36007008190E+03  0.80932217029E+02 0.  0.
        -13    1    5    5    0    0  0.24701585659E+02 -0.23607492078E+02  0.72753181328E+02  0.80377281676E+02  0.00000000000E+00 0.  1.
         14    1    5    5    0    0 -0.13195045846E+02  0.28987012133E+02  0.27787354388E+03  0.27969280023E+03  0.00000000000E+00 0. -1.
         11    1    3    3    0    0 -0.35649260685E+02 -0.27506618571E+01 -0.11187762555E+03  0.11745228404E+03  0.00000000000E+00 0. -1.
        -12    1    3    3    0    0  0.44986018871E+02 -0.69286511770E+01 -0.14779075725E+03  0.15464105545E+03  0.00000000000E+00 0.  1.
          5    1    4    4  501    0  0.47613232576E+02 -0.65085836729E+01  0.14082467345E+03  0.14885712153E+03  0.41800000000E+01 0. -1.
         -5    1    4    4    0  501 -0.68456530575E+02  0.10808376653E+02  0.80894183593E+02  0.10660421626E+03  0.41800000000E+01 0. -1.
</event>
<event>
11    1  0.8453735E-009  0.1459751E+03  0.7561462E-02  0.1101064E+00
         22   -1    0    0    0    0  0.00000000000E+00  0.00000000000E+00  0.14167026986E+04  0.14167026986E+04  0.00000000000E+00 0.  1.
         22   -1    0    0    0    0 -0.00000000000E+00 -0.00000000000E+00 -0.26858780677E+03  0.26858780677E+03  0.00000000000E+00 0.  1.
        -24    2    1    2    0    0 -0.71293846064E+02 -0.18637036030E+02 -0.21738742168E+03  0.24328216768E+03  0.80614951523E+02 0.  0.
         25    2    1    2    0    0  0.88453422824E+02  0.38650688335E+02  0.13218572388E+03  0.20600714846E+03  0.12509194979E+03 0.  0.
         24    2    1    2    0    0 -0.17159576760E+02 -0.20013652305E+02  0.12333165896E+04  0.12360011892E+04  0.77033318458E+02 0.  0.
        -13    1    5    5    0    0  0.30846680590E+01  0.26185607279E+02  0.64055032823E+03  0.64109275788E+03  0.00000000000E+00 0.  1.
         14    1    5    5    0    0 -0.20244244819E+02 -0.46199259584E+02  0.59276626141E+03  0.59490843135E+03  0.00000000000E+00 0. -1.
         11    1    3    3    0    0 -0.33077951931E+02  0.23076967244E+02 -0.38866252768E+02  0.56011453520E+02  0.00000000000E+00 0. -1.
        -12    1    3    3    0    0 -0.38215894133E+02 -0.41714003273E+02 -0.17852116891E+03  0.18727071416E+03  0.00000000000E+00 0.  1.
          5    1    4    4  501    0 -0.13409609940E+02 -0.18591059469E+02 -0.69057708870E+01  0.24302411454E+02  0.41800000000E+01 0. -1.
         -5    1    4    4    0  501  0.10186303276E+03  0.57241747804E+02  0.13909149477E+03  0.18170473701E+03  0.41800000000E+01 0. -1.
</event>
<event>
11    1  0.8453735E-009  0.1294230E+03  0.7561462E-02  0.1119980E+00
         22   -1    0    0    0    0  0.00000000000E+00  0.00000000000E+00  0.72962955462E+02  0.72962955462E+02  0.00000000000E+00 0. -1.
         22   -1    0    0    0    0 -0.00000000000E+00 -0.00000000000E+00 -0.46425593152E+03  0.46425593152E+03  0.00000000000E+00 0. -1.
         24    2    1    2    0    0  0.29953342808E+01 -0.31317662399E+02 -0.23440111782E+03  0.24976786717E+03  0.80313980293E+02 0.  0.
         25    2    1    2    0    0 -0.20361050265E+02 -0.33364335684E+01 -0.15122158642E+03  0.19733474625E+03  0.12508928700E+03 0.  0.
        -24    2    1    2    0    0  0.17365715984E+02  0.34654095967E+02 -0.56702718101E+01  0.90116273554E+02  0.81156123108E+02 0.  0.
        -11    1    3    3    0    0 -0.55673021473E+01  0.20043833352E+02 -0.19037433802E+02  0.28198829664E+02  0.00000000000E+00 0.  1.
         12    1    3    3    0    0  0.85626364280E+01 -0.51361495751E+02 -0.21536368402E+03  0.22156903751E+03  0.00000000000E+00 0. -1.
         11    1    5    5    0    0  0.45762641600E+02  0.39201548549E+02 -0.98434918376E+01  0.61056327325E+02  0.00000000000E+00 0. -1.
        -12    1    5    5    0    0 -0.28396925617E+02 -0.45474525813E+01  0.41732200275E+01  0.29059946229E+02  0.00000000000E+00 0.  1.
          5    1    4    4  501    0  0.32364502888E+02 -0.38456114262E+02 -0.25555074782E+02  0.56540852651E+02  0.41800000000E+01 0. -1.
         -5    1    4    4    0  501 -0.52725553153E+02  0.35119680694E+02 -0.12566651164E+03  0.14079389360E+03  0.41800000000E+01 0. -1.
</event>
<event>
11    1  0.8453735E-009  0.2045985E+03  0.7561462E-02  0.1051319E+00
         22   -1    0    0    0    0  0.00000000000E+00  0.00000000000E+00  0.93680374050E+02  0.93680374050E+02  0.00000000000E+00 0.  1.
         22   -1    0    0    0    0 -0.00000000000E+00 -0.00000000000E+00 -0.15918195034E+04  0.15918195034E+04  0.00000000000E+00 0.  1.
         24    2    1    2    0    0 -0.27114016030E+02  0.97985134578E+02 -0.99146440878E+03  0.99982770236E+03  0.79482728148E+02 0.  0.
         25    2    1    2    0    0 -0.18762205011E+02 -0.23345782487E+03 -0.42797218886E+03  0.50364900006E+03  0.12509014547E+03 0.  0.
        -24    2    1    2    0    0  0.45876221041E+02  0.13547269029E+03 -0.78702531746E+02  0.18202317506E+03  0.80503852600E+02 0.  0.
        -11    1    3    3    0    0 -0.15505647751E+02  0.61298155890E+02 -0.87264738667E+03  0.87493505501E+03  0.00000000000E+00 0.  1.
         12    1    3    3    0    0 -0.11608368279E+02  0.36686978689E+02 -0.11881702211E+03  0.12489264735E+03  0.00000000000E+00 0. -1.
         11    1    5    5    0    0  0.60826600227E+01  0.67365929722E+01 -0.41154312301E+02  0.42143301470E+02  0.00000000000E+00 0. -1.
        -12    1    5    5    0    0  0.39793561019E+02  0.12873609732E+03 -0.37548219445E+02  0.13987987359E+03  0.00000000000E+00 0.  1.
          5    1    4    4  501    0 -0.24322204864E+02 -0.20394700730E+03 -0.25220382333E+03  0.32528478651E+03  0.41800000000E+01 0.  1.
         -5    1    4    4    0  501  0.55599998523E+01 -0.29510817572E+02 -0.17576836553E+03  0.17836421355E+03  0.41800000000E+01 0.  1.
</event>
<event>
11    1  0.8453735E-009  0.1492206E+03  0.7561462E-02  0.1097678E+00
         22   -1    0    0    0    0  0.00000000000E+00  0.00000000000E+00  0.51652405088E+03  0.51652405088E+03  0.00000000000E+00 0.  1.
         22   -1    0    0    0    0 -0.00000000000E+00 -0.00000000000E+00 -0.15025006986E+04  0.15025006986E+04  0.00000000000E+00 0. -1.
         24    2    1    2    0    0 -0.15736857176E+02 -0.35337943400E+02 -0.14109304844E+04  0.14137481068E+04  0.80389420062E+02 0.  0.
         25    2    1    2    0    0  0.64550933607E+02 -0.31642554174E+02 -0.20009013187E+02  0.14565720560E+03  0.12509031406E+03 0.  0.
        -24    2    1    2    0    0 -0.48814076431E+02  0.66980497574E+02  0.44496284982E+03  0.45961943708E+03  0.79930520497E+02 0.  0.
        -11    1    3    3    0    0  0.29796885689E+02  0.26353063166E+01 -0.46346257894E+03  0.46442691709E+03  0.00000000000E+00 0.  1.
         12    1    3    3    0    0 -0.45533742865E+02 -0.37973249717E+02 -0.94746790542E+03  0.94932118971E+03  0.00000000000E+00 0. -1.
         13    1    5    5    0    0  0.11763358912E+02 -0.69026532100E+01  0.21117695382E+02  0.25139218215E+02  0.00000000000E+00 0. -1.
        -14    1    5    5    0    0 -0.60577435343E+02  0.73883150784E+02  0.42384515444E+03  0.43448021886E+03  0.00000000000E+00 0.  1.
          5    1    4    4  501    0  0.21817068493E+02  0.42962367619E+02 -0.33073791285E+02  0.58592640997E+02  0.41800000000E+01 0. -1.
         -5    1    4    4    0  501  0.42733865114E+02 -0.74604921793E+02  0.13064778098E+02  0.87064564606E+02  0.41800000000E+01 0. -1.
</event>
<event>
11    1  0.8453735E-009  0.1790417E+03  0.7561462E-02  0.1070421E+00
         22   -1    0    0    0    0  0.00000000000E+00  0.00000000000E+00  0.24257227282E+03  0.24257227282E+03  0.00000000000E+00 0. -1.
         22   -1    0    0    0    0 -0.00000000000E+00 -0.00000000000E+00 -0.58145895212E+03  0.58145895212E+03  0.00000000000E+00 0. -1.
        -24    2    1    2    0    0 -0.50732280792E+02  0.70149249483E+02 -0.30333163160E+03  0.32546300438E+03  0.80133681910E+02 0.  0.
         25    2    1    2    0    0 -0.52189677139E+02 -0.14568207937E+03 -0.19560623170E+03  0.27902772122E+03  0.12509052995E+03 0.  0.
         24    2    1    2    0    0  0.10292195793E+03  0.75532829887E+02  0.16005118399E+03  0.21954049933E+03  0.79268603723E+02 0.  0.
        -13    1    5    5    0    0 -0.93203691317E+01  0.20319658539E+02  0.10874229164E+02  0.24859739818E+02  0.00000000000E+00 0.  1.
         14    1    5    5    0    0  0.11224232706E+03  0.55213171348E+02  0.14917695482E+03  0.19468075952E+03  0.00000000000E+00 0. -1.
         13    1    3    3    0    0  0.14174959297E+01  0.34912975209E+02 -0.21003788274E+03  0.21292448737E+03  0.00000000000E+00 0. -1.
        -14    1    3    3    0    0 -0.52149776722E+02  0.35236274274E+02 -0.93293748850E+02  0.11253851701E+03  0.00000000000E+00 0.  1.
          5    1    4    4  501    0 -0.32293609142E+02 -0.84083238227E+02 -0.20747125399E+02  0.92524503536E+02  0.41800000000E+01 0.  1.
         -5    1    4    4    0  501 -0.19896067997E+02 -0.61598841143E+02 -0.17485910630E+03  0.18650321769E+03  0.41800000000E+01 0.  1.
</event>
<event>
11    1  0.9734004E-009  0.1540204E+03  0.7561462E-02  0.1092840E+00
         22   -1    0    0    0    0  0.00000000000E+00  0.00000000000E+00  0.37131914175E+03  0.37131914175E+03  0.00000000000E+00 0.  1.
         22   -1    0    0    0    0 -0.00000000000E+00 -0.00000000000E+00 -0.11998731529E+04  0.11998731529E+04  0.00000000000E+00 0.  1.
         24    2    1    2    0    0  0.36800465242E+02 -0.33003451765E+02 -0.88471678685E+03  0.88975427946E+03  0.80593937845E+02 0.  0.
         25    2    1    2    0    0  0.94580931880E+01 -0.45896723508E+02 -0.28717384788E+03  0.31672318272E+03  0.12509512704E+03 0.  0.
        -24    2    1    2    0    0 -0.46258558430E+02  0.78900175273E+02  0.34333662359E+03  0.36471483247E+03  0.82290825979E+02 0.  0.
        -13    1    3    3    0    0  0.41855814984E+02 -0.58405672130E+00 -0.74742145011E+03  0.74859272937E+03  0.00000000000E+00 0.  1.
         14    1    3    3    0    0 -0.50553497421E+01 -0.32419395043E+02 -0.13729533674E+03  0.14116155010E+03  0.00000000000E+00 0. -1.
         11    1    5    5    0    0  0.19276852779E+02  0.44750565188E+02  0.12215331910E+03  0.13151290242E+03  0.00000000000E+00 0. -1.
        -12    1    5    5    0    0 -0.65535411208E+02  0.34149610085E+02  0.22118330449E+03  0.23320193005E+03  0.00000000000E+00 0.  1.
          5    1    4    4  501    0  0.65093391145E+01 -0.94424236544E+01 -0.27867649825E+03  0.27894371105E+03  0.41800000000E+01 0.  1.
         -5    1    4    4    0  501  0.29487540735E+01 -0.36454299854E+02 -0.84973496282E+01  0.37779471663E+02  0.41800000000E+01 0.  1.
</event>
<event>
11    1  0.8453735E-009  0.1834394E+03  0.7561462E-02  0.1066894E+00
         22   -1    0    0    0    0  0.00000000000E+00  0.00000000000E+00  0.97987492338E+03  0.97987492338E+03  0.00000000000E+00 0. -1.
         22   -1    0    0    0    0 -0.00000000000E+00 -0.00000000000E+00 -0.14878803378E+03  0.14878803378E+03  0.00000000000E+00 0. -1.
        -24    2    1    2    0    0  0.97525987062E+01 -0.32121399599E+02 -0.73476144386E+02  0.11376231798E+03  0.80101333977E+02 0.  0.
         25    2    1    2    0    0 -0.65802218695E+02  0.14874927538E+03  0.17568046851E+03  0.27012215968E+03  0.12508427248E+03 0.  0.
         24    2    1    2    0    0  0.56049619989E+02 -0.11662787578E+03  0.72888256547E+03  0.74477847950E+03  0.81740858647E+02 0.  0.
        -13    1    5    5    0    0 -0.32985093804E+01 -0.82125431811E+00 -0.87469880054E+00  0.35099459795E+01  0.00000000000E+00 0.  1.
         14    1    5    5    0    0  0.59348129369E+02 -0.11580662146E+03  0.72975726427E+03  0.74126853352E+03  0.00000000000E+00 0. -1.
         11    1    3    3    0    0  0.65199927675E+01 -0.25393314008E+02 -0.91007270106E+02  0.94708256843E+02  0.00000000000E+00 0. -1.
        -12    1    3    3    0    0  0.32326059387E+01 -0.67280855910E+01  0.17531125720E+02  0.19054061139E+02  0.00000000000E+00 0.  1.
          5    1    4    4  501    0  0.29726668456E+02  0.33075541844E+01  0.17380971229E+02  0.34845161688E+02  0.41800000000E+01 0. -1.
         -5    1    4    4    0  501 -0.95528887151E+02  0.14544172119E+03  0.15829949728E+03  0.23527699799E+03  0.41800000000E+01 0. -1.
</event>
<event>
11    1  0.9511514E-009  0.1600939E+03  0.7561462E-02  0.1086989E+00
         22   -1    0    0    0    0  0.00000000000E+00  0.00000000000E+00  0.85345998787E+03  0.85345998787E+03  0.00000000000E+00 0. -1.
         22   -1    0    0    0    0 -0.00000000000E+00 -0.00000000000E+00 -0.35952690694E+03  0.35952690694E+03  0.00000000000E+00 0. -1.
         24    2    1    2    0    0 -0.31533596001E+02 -0.64036371359E+02 -0.23199934787E+03  0.25618979029E+03  0.81941971557E+02 0.  0.
         25    2    1    2    0    0  0.12394160387E+03  0.26904260350E+02 -0.37543445803E+02  0.18205054406E+03  0.12509008703E+03 0.  0.
        -24    2    1    2    0    0 -0.92408007866E+02  0.37132111009E+02  0.76347587461E+03  0.77474656047E+03  0.86132387984E+02 0.  0.
        -13    1    3    3    0    0 -0.53694139858E+02 -0.64183790351E+02 -0.15602342644E+03  0.17704781613E+03  0.00000000000E+00 0.  1.
         14    1    3    3    0    0  0.22160543857E+02  0.14741899223E+00 -0.75975921424E+02  0.79141974152E+02  0.00000000000E+00 0. -1.
         11    1    5    5    0    0 -0.10679452247E+03  0.42622514091E+02  0.70296143676E+03  0.71230367843E+03  0.00000000000E+00 0. -1.
        -12    1    5    5    0    0  0.14386514607E+02 -0.54904030821E+01  0.60514437846E+02  0.62442882031E+02  0.00000000000E+00 0.  1.
          5    1    4    4  501    0  0.47139471898E+02  0.16638190788E+02 -0.79373158427E+02  0.93896378429E+02  0.41800000000E+01 0.  1.
         -5    1    4    4    0  501  0.76802131968E+02  0.10266069562E+02  0.41829712624E+02  0.88154165627E+02  0.41800000000E+01 0.  1.
</event>
<event>
11    1  0.8453735E-009  0.1718970E+03  0.7561462E-02  0.1076393E+00
         22   -1    0    0    0    0  0.00000000000E+00  0.00000000000E+00  0.27549001403E+03  0.27549001403E+03  0.00000000000E+00 0.  1.
         22   -1    0    0    0    0 -0.00000000000E+00 -0.00000000000E+00 -0.22315230689E+03  0.22315230689E+03  0.00000000000E+00 0.  1.
        -24    2    1    2    0    0 -0.54535598245E+01 -0.75701325016E+01 -0.97878185798E+02  0.12759931926E+03  0.81328954249E+02 0.  0.
         25    2    1    2    0    0  0.73655554330E+02 -0.89603455006E+02  0.10619665066E+02  0.17092067443E+03  0.12508868786E+03 0.  0.
         24    2    1    2    0    0 -0.68201994505E+02  0.97173587507E+02  0.13959622787E+03  0.20012232723E+03  0.80421519858E+02 0.  0.
        -11    1    5    5    0    0 -0.61217667935E+01  0.71572915112E+02  0.96613489175E+02  0.12039237724E+03  0.00000000000E+00 0.  1.
         12    1    5    5    0    0 -0.62080227712E+02  0.25600672395E+02  0.42982738693E+02  0.79729949990E+02  0.00000000000E+00 0. -1.
         11    1    3    3    0    0 -0.29995507942E+02  0.11772902122E+02 -0.91018234270E+01  0.33483950048E+02  0.00000000000E+00 0. -1.
        -12    1    3    3    0    0  0.24541948118E+02 -0.19343034624E+02 -0.88776362371E+02  0.94115369211E+02  0.00000000000E+00 0.  1.
          5    1    4    4  501    0  0.89882869680E+02 -0.71009566257E+02 -0.34171909377E+02  0.11960970091E+03  0.41800000000E+01 0. -1.
         -5    1    4    4    0  501 -0.16227315351E+02 -0.18593888749E+02  0.44791574443E+02  0.51310973518E+02  0.41800000000E+01 0. -1.
</event>
<event>
11    1  0.8453735E-009  0.1649575E+03  0.7561462E-02  0.1082505E+00
         22   -1    0    0    0    0  0.00000000000E+00  0.00000000000E+00  0.75521536161E+03  0.75521536161E+03  0.00000000000E+00 0. -1.
         22   -1    0    0    0    0 -0.00000000000E+00 -0.00000000000E+00 -0.34550117570E+03  0.34550117570E+03  0.00000000000E+00 0. -1.
        -24    2    1    2    0    0  0.57609284764E+01  0.52655745652E+02 -0.22190989224E+03  0.24133225121E+03  0.78685699795E+02 0.  0.
         25    2    1    2    0    0  0.88419342268E+02  0.29553143604E+01 -0.52409157906E+02  0.16192968511E+03  0.12509112326E+03 0.  0.
         24    2    1    2    0    0 -0.94180270744E+02 -0.55611060012E+02  0.68403323606E+03  0.69745460098E+03  0.81110658950E+02 0.  0.
        -13    1    5    5    0    0 -0.25341761936E+02  0.13001014596E+02  0.29862655439E+03  0.29998174989E+03  0.00000000000E+00 0.  1.
         14    1    5    5    0    0 -0.68838508808E+02 -0.68612074609E+02  0.38540668166E+03  0.39747285108E+03  0.00000000000E+00 0. -1.
         13    1    3    3    0    0  0.14404354767E+01  0.45875677461E+02 -0.22714665967E+03  0.23173747568E+03  0.00000000000E+00 0. -1.
        -14    1    3    3    0    0  0.43204929997E+01  0.67800681904E+01  0.52367674239E+01  0.95947755305E+01  0.00000000000E+00 0.  1.
          5    1    4    4  501    0  0.11514975235E+03  0.66950487572E+01 -0.16164521880E+02  0.11654635693E+03  0.41800000000E+01 0.  1.
         -5    1    4    4    0  501 -0.26730410087E+02 -0.37397343967E+01 -0.36244636026E+02  0.45383328188E+02  0.41800000000E+01 0.  1.
</event>
<event>
11    1  0.8453735E-009  0.1897289E+03  0.7561462E-02  0.1062034E+00
         22   -1    0    0    0    0  0.00000000000E+00  0.00000000000E+00  0.15588670999E+04  0.15588670999E+04  0.00000000000E+00 0. -1.
         22   -1    0    0    0    0 -0.00000000000E+00 -0.00000000000E+00 -0.17529598561E+03  0.17529598561E+03  0.00000000000E+00 0. -1.
         24    2    1    2    0    0  0.39528627767E+02 -0.44331722926E+02 -0.13368053899E+03  0.16715309394E+03  0.80881742297E+02 0.  0.
         25    2    1    2    0    0 -0.14665808082E+03  0.11250468263E+03  0.67042572481E+03  0.70660051862E+03  0.12509094345E+03 0.  0.
        -24    2    1    2    0    0  0.10712945305E+03 -0.68172959703E+02  0.84682592852E+03  0.86040947301E+03  0.84059716161E+02 0.  0.
        -13    1    3    3    0    0 -0.10885225275E+02 -0.43009062576E+02 -0.35660510975E+02  0.56920467637E+02  0.00000000000E+00 0.  1.
         14    1    3    3    0    0  0.50413853042E+02 -0.13226603504E+01 -0.98020028016E+02  0.11023262630E+03  0.00000000000E+00 0. -1.
         11    1    5    5    0    0  0.11110943471E+03 -0.78088827326E+02  0.69107213805E+03  0.70428962184E+03  0.00000000000E+00 0. -1.
        -12    1    5    5    0    0 -0.39799816542E+01  0.99158676225E+01  0.15575379046E+03  0.15611985117E+03  0.00000000000E+00 0.  1.
          5    1    4    4  501    0 -0.75252167237E+02  0.12812260469E+03  0.48407681230E+03  0.50638535041E+03  0.41800000000E+01 0.  1.
         -5    1    4    4    0  501 -0.71405913585E+02 -0.15617922057E+02  0.18634891252E+03  0.20021516821E+03  0.41800000000E+01 0.  1.
</event>
<event>
11    1  0.8453735E-009  0.1264174E+03  0.7561462E-02  0.1123751E+00
         22   -1    0    0    0    0  0.00000000000E+00  0.00000000000E+00  0.25022762477E+03  0.25022762477E+03  0.00000000000E+00 0. -1.
         22   -1    0    0    0    0 -0.00000000000E+00 -0.00000000000E+00 -0.13177073301E+04  0.13177073301E+04  0.00000000000E+00 0.  1.
         24    2    1    2    0    0  0.16157183461E+02 -0.24475434918E+02 -0.10952989253E+04  0.10986475195E+04  0.80539027385E+02 0.  0.
         25    2    1    2    0    0  0.27012607120E+01  0.21245957945E+02 -0.19205985538E+03  0.23020151164E+03  0.12508821037E+03 0.  0.
        -24    2    1    2    0    0 -0.18858444173E+02  0.32294769724E+01  0.21987907530E+03  0.23908592374E+03  0.91919534041E+02 0.  0.
        -13    1    3    3    0    0 -0.22672684898E+02 -0.29512459074E+02 -0.78592297950E+03  0.78680363852E+03  0.00000000000E+00 0.  1.
         14    1    3    3    0    0  0.38829868360E+02  0.50370241562E+01 -0.30937594578E+03  0.31184388100E+03  0.00000000000E+00 0. -1.
         13    1    5    5    0    0  0.13847819005E+02  0.35558394987E+02  0.48882573425E+02  0.62013446364E+02  0.00000000000E+00 0. -1.
        -14    1    5    5    0    0 -0.32706263179E+02 -0.32328918015E+02  0.17099650188E+03  0.17707247738E+03  0.00000000000E+00 0.  1.
          5    1    4    4  501    0 -0.21267485075E+02 -0.13162498406E+02  0.73385573049E+01  0.26398562632E+02  0.41800000000E+01 0. -1.
         -5    1    4    4    0  501  0.23968745787E+02  0.34408456351E+02 -0.19939841268E+03  0.20380294901E+03  0.41800000000E+01 0. -1.
</event>
<event>
11    1  0.8453735E-009  0.1886043E+03  0.7561462E-02  0.1062888E+00
         22   -1    0    0    0    0  0.00000000000E+00  0.00000000000E+00  0.38681838190E+02  0.38681838190E+02  0.00000000000E+00 0. -1.
         22   -1    0    0    0    0 -0.00000000000E+00 -0.00000000000E+00 -0.14985214891E+04  0.14985214891E+04  0.00000000000E+00 0. -1.
        -24    2    1    2    0    0 -0.55225319261E+02 -0.54826970281E+02 -0.48806312608E+03  0.50081280604E+03  0.80944543392E+02 0.  0.
         25    2    1    2    0    0 -0.86990625229E+02 -0.49621087539E+02 -0.53056842572E+03  0.55423612485E+03  0.12508079994E+03 0.  0.
         24    2    1    2    0    0  0.14221594449E+03  0.10444805782E+03 -0.44120809907E+03  0.48215439635E+03  0.81691514766E+02 0.  0.
        -11    1    5    5    0    0  0.55153854900E+02  0.47827002705E+02 -0.28768579709E+03  0.29680378661E+03  0.00000000000E+00 0.  1.
         12    1    5    5    0    0  0.87062089589E+02  0.56621055115E+02 -0.15352230198E+03  0.18535060974E+03  0.00000000000E+00 0. -1.
         13    1    3    3    0    0 -0.55026817823E+02  0.16040430694E+01 -0.27094528055E+03  0.27648122664E+03  0.00000000000E+00 0. -1.
        -14    1    3    3    0    0 -0.19850143827E+00 -0.56431013351E+02 -0.21711784553E+03  0.22433157941E+03  0.00000000000E+00 0.  1.
          5    1    4    4  501    0 -0.11126267716E+03 -0.18948704354E+02 -0.45768874315E+03  0.47141796183E+03  0.41800000000E+01 0. -1.
         -5    1    4    4    0  501  0.24272051933E+02 -0.30672383186E+02 -0.72879682565E+02  0.82818163021E+02  0.41800000000E+01 0. -1.
</event>
<event>
11    1  0.8453735E-009  0.1781941E+03  0.7561462E-02  0.1071113E+00
         22   -1    0    0    0    0  0.00000000000E+00  0.00000000000E+00  0.79903049429E+03  0.79903049429E+03  0.00000000000E+00 0.  1.
         22   -1    0    0    0    0 -0.00000000000E+00 -0.00000000000E+00 -0.38558416007E+03  0.38558416007E+03  0.00000000000E+00 0.  1.
         24    2    1    2    0    0  0.48167903592E+02 -0.11550525658E+03 -0.21492293011E+03  0.26125578816E+03  0.80006935502E+02 0.  0.
         25    2    1    2    0    0 -0.71776905080E+02  0.11164700354E+03 -0.87374400719E+02  0.20223244833E+03  0.12508676890E+03 0.  0.
        -24    2    1    2    0    0  0.23609001488E+02  0.38582530348E+01  0.71574366504E+03  0.72112641787E+03  0.84628868775E+02 0.  0.
        -13    1    3    3    0    0  0.58279028871E+02 -0.12161019810E+03 -0.18378231836E+03  0.22795049030E+03  0.00000000000E+00 0.  1.
         14    1    3    3    0    0 -0.10111125280E+02  0.61049415202E+01 -0.31140611755E+02  0.33305297865E+02  0.00000000000E+00 0. -1.
         13    1    5    5    0    0  0.14108268534E+02 -0.40310443730E+02  0.33473713593E+03  0.33745062644E+03  0.00000000000E+00 0. -1.
        -14    1    5    5    0    0  0.95007329539E+01  0.44168696764E+02  0.38100652912E+03  0.38367579143E+03  0.00000000000E+00 0.  1.
          5    1    4    4  501    0 -0.92075865436E+01 -0.50311295272E+01  0.25699553476E+02  0.28071896323E+02  0.41800000000E+01 0. -1.
         -5    1    4    4    0  501 -0.62569318536E+02  0.11667813307E+03 -0.11307395420E+03  0.17416055201E+03  0.41800000000E+01 0. -1.
</event>
<event>
11    1  0.8453735E-009  0.2590754E+03  0.7561462E-02  0.1019173E+00
         22   -1    0    0    0    0  0.00000000000E+00  0.00000000000E+00  0.52150958151E+03  0.52150958151E+03  0.00000000000E+00 0.  1.
         22   -1    0    0    0    0 -0.00000000000E+00 -0.00000000000E+00 -0.21811367205E+04  0.21811367205E+04  0.00000000000E+00 0. -1.
        -24    2    1    2    0    0  0.16926497448E+03  0.12102157072E+03 -0.83056390132E+03  0.86064702397E+03  0.87063502782E+02 0.  0.
         25    2    1    2    0    0 -0.19200372466E+03 -0.15173878560E+03 -0.13172858328E+04  0.13456521876E+04  0.12509098850E+03 0.  0.
         24    2    1    2    0    0  0.22738750176E+02  0.30717214880E+02  0.48822259516E+03  0.49634709040E+03  0.80861200047E+02 0.  0.
        -11    1    5    5    0    0  0.24498321085E+02  0.47075792414E+02  0.46423975715E+03  0.46726314865E+03  0.00000000000E+00 0.  1.
         12    1    5    5    0    0 -0.17595709091E+01 -0.16358577534E+02  0.23982838018E+02  0.29083941757E+02  0.00000000000E+00 0. -1.
         13    1    3    3    0    0  0.79574388504E+02  0.78226332892E+02 -0.58836544204E+03  0.59885335087E+03  0.00000000000E+00 0. -1.
        -14    1    3    3    0    0  0.89690585978E+02  0.42795237823E+02 -0.24219845929E+03  0.26179367310E+03  0.00000000000E+00 0.  1.
          5    1    4    4  501    0 -0.10513977487E+02 -0.70461478384E+02 -0.24979587966E+03  0.25978994891E+03  0.41800000000E+01 0. -1.
         -5    1    4    4    0  501 -0.18148974717E+03 -0.81277307211E+02 -0.10674899531E+04  0.10858622387E+04  0.41800000000E+01 0. -1.
</event>
<event>
11    1  0.8453735E-009  0.1385379E+03  0.7561462E-02  0.1109202E+00
         22   -1    0    0    0    0  0.00000000000E+00  0.00000000000E+00  0.83498696897E+03  0.83498696897E+03  0.00000000000E+00 0.  1.
         22   -1    0    0    0    0 -0.00000000000E+00 -0.00000000000E+00 -0.48177709040E+03  0.48177709040E+03  0.00000000000E+00 0.  1.
         24    2    1    2    0    0 -0.26998398104E+02 -0.32802612404E+02 -0.44967797317E+03  0.45842489714E+03  0.78346549876E+02 0.  0.
         25    2    1    2    0    0  0.43387836756E+02  0.83703657854E+02  0.23750910471E+03  0.28451202890E+03  0.12509081921E+03 0.  0.
        -24    2    1    2    0    0 -0.16389438652E+02 -0.50901045450E+02  0.56537874703E+03  0.57382713333E+03  0.82249141225E+02 0.  0.
        -11    1    3    3    0    0 -0.24651735642E+02 -0.56923194639E+02 -0.26499192901E+03  0.27215561835E+03  0.00000000000E+00 0.  1.
         12    1    3    3    0    0 -0.23466624623E+01  0.24120582234E+02 -0.18468604416E+03  0.18626927879E+03  0.00000000000E+00 0. -1.
         13    1    5    5    0    0  0.66791388956E+01  0.21002710352E+02  0.10399823767E+03  0.10630784626E+03  0.00000000000E+00 0. -1.
        -14    1    5    5    0    0 -0.23068577547E+02 -0.71903755802E+02  0.46138050936E+03  0.46751928707E+03  0.00000000000E+00 0.  1.
          5    1    4    4  501    0 -0.63604227091E+01  0.19409307787E+02  0.18817862428E+03  0.18932998506E+03  0.41800000000E+01 0. -1.
         -5    1    4    4    0  501  0.49748259465E+02  0.64294350068E+02  0.49330480430E+02  0.95182043842E+02  0.41800000000E+01 0. -1.
</event>
<event>
11    1  0.8453735E-009  0.2611024E+03  0.7561462E-02  0.1018146E+00
         22   -1    0    0    0    0  0.00000000000E+00  0.00000000000E+00  0.22651655319E+03  0.22651655319E+03  0.00000000000E+00 0.  1.
         22   -1    0    0    0    0 -0.00000000000E+00 -0.00000000000E+00 -0.58405847574E+03  0.58405847574E+03  0.00000000000E+00 0.  1.
        -24    2    1    2    0    0  0.96486889488E+01 -0.69444795730E+02 -0.19475017878E+03  0.22200968021E+03  0.80280689586E+02 0.  0.
         25    2    1    2    0    0  0.22206865124E+03  0.49661713991E+02 -0.21609830245E+03  0.33782685695E+03  0.12509091594E+03 0.  0.
         24    2    1    2    0    0 -0.23171734019E+03  0.19783081739E+02  0.53306558677E+02  0.25073849177E+03  0.77096731399E+02 0.  0.
        -11    1    5    5    0    0 -0.20592446146E+03  0.66617475219E+01  0.20587728313E+02  0.20705824606E+03  0.00000000000E+00 0.  1.
         12    1    5    5    0    0 -0.25792878732E+02  0.13121334218E+02  0.32718830364E+02  0.43680245710E+02  0.00000000000E+00 0. -1.
         11    1    3    3    0    0 -0.32458695786E+02 -0.25836445035E+02 -0.49299690041E+02  0.64432509359E+02  0.00000000000E+00 0. -1.
        -12    1    3    3    0    0  0.42107384735E+02 -0.43608350696E+02 -0.14545048874E+03  0.15757717085E+03  0.00000000000E+00 0.  1.
          5    1    4    4  501    0  0.14196491979E+03 -0.29883868327E+02 -0.13973716208E+03  0.20147215913E+03  0.41800000000E+01 0. -1.
         -5    1    4    4    0  501  0.80103731448E+02  0.79545582318E+02 -0.76361140374E+02  0.13635469782E+03  0.41800000000E+01 0. -1.
</event>
<event>
11    1  0.8453735E-009  0.1331619E+03  0.7561462E-02  0.1115444E+00
         22   -1    0    0    0    0  0.00000000000E+00  0.00000000000E+00  0.32348058051E+03  0.32348058051E+03  0.00000000000E+00 0.  1.
         22   -1    0    0    0    0 -0.00000000000E+00 -0.00000000000E+00 -0.24621426511E+03  0.24621426511E+03  0.00000000000E+00 0.  1.
         24    2    1    2    0    0  0.35060802450E+02 -0.32636042011E+02 -0.19196597562E+03  0.21309602491E+03  0.79149282546E+02 0.  0.
         25    2    1    2    0    0 -0.27285994911E+02 -0.29289580094E+00  0.86766286869E+02  0.15466139158E+03  0.12508855344E+03 0.  0.
        -24    2    1    2    0    0 -0.77748075396E+01  0.32928937812E+02  0.18246600415E+03  0.20193742913E+03  0.79624870723E+02 0.  0.
        -13    1    3    3    0    0  0.43425246159E+02 -0.20365867265E+01 -0.16745959779E+03  0.17301045223E+03  0.00000000000E+00 0.  1.
         14    1    3    3    0    0 -0.83644437090E+01 -0.30599455285E+02 -0.24506377836E+02  0.40085572678E+02  0.00000000000E+00 0. -1.
         11    1    5    5    0    0 -0.29910947815E+02  0.15441428883E+02  0.24910786133E+02  0.41876601950E+02  0.00000000000E+00 0. -1.
        -12    1    5    5    0    0  0.22136140275E+02  0.17487508929E+02  0.15755521802E+03  0.16006082718E+03  0.00000000000E+00 0.  1.
          5    1    4    4  501    0 -0.46005902245E+02 -0.53774064928E+02  0.42695881965E+02  0.82756291828E+02  0.41800000000E+01 0.  1.
         -5    1    4    4    0  501  0.18719907335E+02  0.53481169127E+02  0.44070404904E+02  0.71905099751E+02  0.41800000000E+01 0.  1.
</event>
<event>
11    1  0.8453735E-009  0.1417637E+03  0.7561462E-02  0.1105605E+00
         22   -1    0    0    0    0  0.00000000000E+00  0.00000000000E+00  0.19586626181E+03  0.19586626181E+03  0.00000000000E+00 0.  1.
         22   -1    0    0    0    0 -0.00000000000E+00 -0.00000000000E+00 -0.10104291515E+04  0.10104291515E+04  0.00000000000E+00 0. -1.
        -24    2    1    2    0    0 -0.28652426379E+02  0.42101403167E+02 -0.86544579052E+03  0.87057370745E+03  0.79427162135E+02 0.  0.
         25    2    1    2    0    0 -0.24658146471E+02 -0.81398798564E+02 -0.77981460229E+02  0.17014620095E+03  0.12503932567E+03 0.  0.
         24    2    1    2    0    0  0.53310572850E+02  0.39297395397E+02  0.12886436103E+03  0.16557550494E+03  0.80143133381E+02 0.  0.
        -11    1    5    5    0    0  0.21928179475E+02  0.54576269076E+02  0.11266860170E+03  0.12709692368E+03  0.00000000000E+00 0.  1.
         12    1    5    5    0    0  0.31382393374E+02 -0.15278873679E+02  0.16195759335E+02  0.38478581253E+02  0.00000000000E+00 0. -1.
         11    1    3    3    0    0 -0.72907682259E+01  0.52770367464E+02 -0.78106482741E+03  0.78287938509E+03  0.00000000000E+00 0. -1.
        -12    1    3    3    0    0 -0.21361658153E+02 -0.10668964297E+02 -0.84380963106E+02  0.87694322352E+02  0.00000000000E+00 0.  1.
          5    1    4    4  501    0 -0.54001594374E+01 -0.90057222118E+02 -0.11147610913E+01  0.90322644281E+02  0.41800000000E+01 0.  1.
         -5    1    4    4    0  501 -0.19257987033E+02  0.86584235539E+01 -0.76866699138E+02  0.79823556669E+02  0.41800000000E+01 0.  1.
</event>
<event>
11    1  0.8453735E-009  0.1407943E+03  0.7561462E-02  0.1106675E+00
         22   -1    0    0    0    0  0.00000000000E+00  0.00000000000E+00  0.11395132049E+04  0.11395132049E+04  0.00000000000E+00 0. -1.
         22   -1    0    0    0    0 -0.00000000000E+00 -0.00000000000E+00 -0.13244575300E+03  0.13244575300E+03  0.00000000000E+00 0.  1.
        -24    2    1    2    0    0 -0.10761381124E+02 -0.65304234548E+02 -0.99617189366E+02  0.13891668388E+03  0.70666896568E+02 0.  0.
         25    2    1    2    0    0  0.21574907371E+02  0.28935412341E+02  0.39690236828E+03  0.41771000596E+03  0.12508966552E+03 0.  0.
         24    2    1    2    0    0 -0.10813526247E+02  0.36368822207E+02  0.70978227294E+03  0.71533226801E+03  0.80434787854E+02 0.  0.
        -11    1    5    5    0    0 -0.28209324041E+02  0.17400211541E+02  0.10734293913E+03  0.11234340170E+03  0.00000000000E+00 0.  1.
         12    1    5    5    0    0  0.17395797794E+02  0.18968610666E+02  0.60243933381E+03  0.60298886631E+03  0.00000000000E+00 0. -1.
         13    1    3    3    0    0 -0.36035710011E+01 -0.10443220702E+02  0.10777700474E+02  0.15433904564E+02  0.00000000000E+00 0. -1.
        -14    1    3    3    0    0 -0.71578101230E+01 -0.54861013846E+02 -0.11039488984E+03  0.12348277932E+03  0.00000000000E+00 0.  1.
          5    1    4    4  501    0 -0.36582844473E+02  0.35333984765E+02  0.76347633302E+02  0.91832611310E+02  0.41800000000E+01 0. -1.
         -5    1    4    4    0  501  0.58157751844E+02 -0.63985724248E+01  0.32055473498E+03  0.32587739465E+03  0.41800000000E+01 0. -1.
</event>
<event>
11    1  0.8453735E-009  0.1422591E+03  0.7561462E-02  0.1105062E+00
         22   -1    0    0    0    0  0.00000000000E+00  0.00000000000E+00  0.14466482080E+04  0.14466482080E+04  0.00000000000E+00 0. -1.
         22   -1    0    0    0    0 -0.00000000000E+00 -0.00000000000E+00 -0.64069866839E+03  0.64069866839E+03  0.00000000000E+00 0. -1.
         24    2    1    2    0    0  0.33286005902E+02 -0.58790690314E+02 -0.62346604271E+03  0.63213706318E+03  0.79517650694E+02 0.  0.
         25    2    1    2    0    0 -0.74546303097E+02  0.66381406885E+02  0.60116166480E+03  0.62209856717E+03  0.12509051750E+03 0.  0.
        -24    2    1    2    0    0  0.41260297195E+02 -0.75907165717E+01  0.82825391750E+03  0.83311124602E+03  0.79434031049E+02 0.  0.
        -11    1    3    3    0    0 -0.12885005970E+02 -0.90755693994E+01 -0.23188909204E+02  0.28037739724E+02  0.00000000000E+00 0.  1.
         12    1    3    3    0    0  0.46171011872E+02 -0.49715120914E+02 -0.60027713351E+03  0.60409932346E+03  0.00000000000E+00 0. -1.
         11    1    5    5    0    0  0.10866370298E+02 -0.21620448405E+02  0.70432931060E+03  0.70474484713E+03  0.00000000000E+00 0. -1.
        -12    1    5    5    0    0  0.30393926897E+02  0.14029731833E+02  0.12392460690E+03  0.12836639889E+03  0.00000000000E+00 0.  1.
          5    1    4    4  501    0  0.60043343252E+01  0.51022069748E+02  0.42057616979E+03  0.42372289367E+03  0.41800000000E+01 0.  1.
         -5    1    4    4    0  501 -0.80550637422E+02  0.15359337137E+02  0.18058549501E+03  0.19837567350E+03  0.41800000000E+01 0.  1.
</event>
<event>
11    1  0.8453735E-009  0.1314126E+03  0.7561462E-02  0.1117545E+00
         22   -1    0    0    0    0  0.00000000000E+00  0.00000000000E+00  0.29407352517E+03  0.29407352517E+03  0.00000000000E+00 0. -1.
         22   -1    0    0    0    0 -0.00000000000E+00 -0.00000000000E+00 -0.20132756848E+04  0.20132756848E+04  0.00000000000E+00 0. -1.
         24    2    1    2    0    0  0.35697587886E+02 -0.17805644795E+02 -0.19040816052E+04  0.19062067775E+04  0.80660773979E+02 0.  0.
         25    2    1    2    0    0 -0.42670093653E+02  0.42573823860E+02 -0.52457275450E+02  0.14843429194E+03  0.12509079065E+03 0.  0.
        -24    2    1    2    0    0  0.69725057662E+01 -0.24768179064E+02  0.23733672098E+03  0.25270814059E+03  0.82889122702E+02 0.  0.
        -13    1    3    3    0    0  0.65255299748E+01  0.30372293614E+02 -0.47427270774E+03  0.47528902792E+03  0.00000000000E+00 0.  1.
         14    1    3    3    0    0  0.29172057912E+02 -0.48177938410E+02 -0.14298088975E+04  0.14309177496E+04  0.00000000000E+00 0. -1.
         11    1    5    5    0    0  0.10972095039E+02  0.29474384225E+02  0.10563603627E+03  0.11021841204E+03  0.00000000000E+00 0. -1.
        -12    1    5    5    0    0 -0.39995892724E+01 -0.54242563290E+02  0.13170068472E+03  0.14248972855E+03  0.00000000000E+00 0.  1.
          5    1    4    4  501    0 -0.19504271197E+02  0.41738168243E+02 -0.91675718042E+02  0.10268593361E+03  0.41800000000E+01 0.  1.
         -5    1    4    4    0  501 -0.23165822456E+02  0.83565561669E+00  0.39218442591E+02  0.45748358327E+02  0.41800000000E+01 0.  1.
</event>
<event>
11    1  0.8453735E-009  0.2859785E+03  0.7561462E-02  0.1006306E+00
         22   -1    0    0    0    0  0.00000000000E+00  0.00000000000E+00  0.27655357957E+03  0.27655357957E+03  0.00000000000E+00 0.  1.
         22   -1    0    0    0    0 -0.00000000000E+00 -0.00000000000E+00 -0.58305496913E+03  0.58305496913E+03  0.00000000000E+00 0.  1.
         24    2    1    2    0    0  0.85107042872E+02  0.22918433573E+02 -0.16408223583E+03  0.20370191685E+03  0.82480467192E+02 0.  0.
         25    2    1    2    0    0 -0.31046964557E+03 -0.90892501861E+02 -0.20039776045E+03  0.40057345453E+03  0.12508789857E+03 0.  0.
        -24    2    1    2    0    0  0.22536260269E+03  0.67974068288E+02  0.57978606723E+02  0.25533317732E+03  0.80154450579E+02 0.  0.
        -13    1    3    3    0    0  0.23722330010E+02 -0.28511874258E+02 -0.30799091986E+02  0.48210579565E+02  0.00000000000E+00 0.  1.
         14    1    3    3    0    0  0.61384712862E+02  0.51430307830E+02 -0.13328314385E+03  0.15549133728E+03  0.00000000000E+00 0. -1.
         11    1    5    5    0    0  0.79519192123E+02  0.41777618796E+02  0.58425472329E+02  0.10715506131E+03  0.00000000000E+00 0. -1.
        -12    1    5    5    0    0  0.14584341057E+03  0.26196449492E+02 -0.44686560620E+00  0.14817811600E+03  0.00000000000E+00 0.  1.
          5    1    4    4  501    0 -0.11947849619E+01  0.15707420225E+02 -0.23657259190E+02  0.28727841437E+02  0.41800000000E+01 0.  1.
         -5    1    4    4    0  501 -0.30927486060E+03 -0.10659992209E+03 -0.17674050126E+03  0.37184561309E+03  0.41800000000E+01 0.  1.
</event>
<event>
11    1  0.8453735E-009  0.2720471E+03  0.7561462E-02  0.1012769E+00
         22   -1    0    0    0    0  0.00000000000E+00  0.00000000000E+00  0.13607642971E+04  0.13607642971E+04  0.00000000000E+00 0.  1.
         22   -1    0    0    0    0 -0.00000000000E+00 -0.00000000000E+00 -0.26735947032E+03  0.26735947032E+03  0.00000000000E+00 0.  1.
         24    2    1    2    0    0 -0.96022967499E+02  0.14417963340E+03 -0.68669361021E+02  0.20300351701E+03  0.80540485481E+02 0.  0.
         25    2    1    2    0    0  0.26126329430E+03 -0.29292469291E+03  0.24780331757E+03  0.48074600688E+03  0.12508738651E+03 0.  0.
        -24    2    1    2    0    0 -0.16524032680E+03  0.14874505951E+03  0.91427087024E+03  0.94437424355E+03  0.80759082262E+02 0.  0.
        -13    1    3    3    0    0 -0.56821787254E+02  0.11035378998E+03 -0.96605557639E+01  0.12449899922E+03  0.00000000000E+00 0.  1.
         14    1    3    3    0    0 -0.39201180245E+02  0.33825843422E+02 -0.59008805257E+02  0.78504517792E+02  0.00000000000E+00 0. -1.
         11    1    5    5    0    0 -0.23936568037E+02 -0.81856169623E+01  0.90903637048E+02  0.94358014196E+02  0.00000000000E+00 0. -1.
        -12    1    5    5    0    0 -0.14130375876E+03  0.15693067647E+03  0.82336723320E+03  0.85001622935E+03  0.00000000000E+00 0.  1.
          5    1    4    4  501    0  0.18673749907E+03 -0.16740372650E+03  0.91904629995E+02  0.26713074443E+03  0.41800000000E+01 0. -1.
         -5    1    4    4    0  501  0.74525795231E+02 -0.12552096641E+03  0.15589868757E+03  0.21361526245E+03  0.41800000000E+01 0. -1.
</event>
<event>
11    1  0.8453735E-009  0.1882454E+03  0.7561462E-02  0.1063162E+00
         22   -1    0    0    0    0  0.00000000000E+00  0.00000000000E+00  0.56311283980E+03  0.56311283980E+03  0.00000000000E+00 0.  1.
         22   -1    0    0    0    0 -0.00000000000E+00 -0.00000000000E+00 -0.36055278754E+03  0.36055278754E+03  0.00000000000E+00 0. -1.
         24    2    1    2    0    0  0.81194244002E+01 -0.14715027948E+02 -0.28901116301E+03  0.30060543288E+03  0.80955029682E+02 0.  0.
         25    2    1    2    0    0  0.84497236564E+02  0.11851894750E+03  0.14344229521E+03  0.23960029945E+03  0.12508432172E+03 0.  0.
        -24    2    1    2    0    0 -0.92616660964E+02 -0.10380391955E+03  0.34812892006E+03  0.38345989502E+03  0.80589369677E+02 0.  0.
        -13    1    3    3    0    0  0.54330004485E+01 -0.25601125646E+01  0.40731539163E+01  0.72568762593E+01  0.00000000000E+00 0.  1.
         14    1    3    3    0    0  0.26864239517E+01 -0.12154915383E+02 -0.29308431693E+03  0.29334855662E+03  0.00000000000E+00 0. -1.
         11    1    5    5    0    0 -0.11580780090E+01  0.11989337165E+02  0.15987863208E+02  0.20017420420E+02  0.00000000000E+00 0. -1.
        -12    1    5    5    0    0 -0.91458582955E+02 -0.11579325671E+03  0.33214105685E+03  0.36344247460E+03  0.00000000000E+00 0.  1.
          5    1    4    4  501    0 -0.31856629401E+02  0.29455988263E+02  0.47168133209E+02  0.64224646918E+02  0.41800000000E+01 0. -1.
         -5    1    4    4    0  501  0.11635386597E+03  0.89062959235E+02  0.96274161999E+02  0.17537565253E+03  0.41800000000E+01 0. -1.
</event>
<event>
11    1  0.8453735E-009  0.1820889E+03  0.7561462E-02  0.1067966E+00
         22   -1    0    0    0    0  0.00000000000E+00  0.00000000000E+00  0.19939734713E+04  0.19939734713E+04  0.00000000000E+00 0.  1.
         22   -1    0    0    0    0 -0.00000000000E+00 -0.00000000000E+00 -0.12853246801E+04  0.12853246801E+04  0.00000000000E+00 0.  1.
         24    2    1    2    0    0  0.12498452613E+03  0.39805186703E+02 -0.12260890602E+04  0.12355535738E+04  0.78055528244E+02 0.  0.
         25    2    1    2    0    0 -0.17405944148E+03 -0.10131631552E+03  0.21278511137E+03  0.31857135151E+03  0.12509403432E+03 0.  0.
        -24    2    1    2    0    0  0.49074915358E+02  0.61511128820E+02  0.17219527400E+04  0.17251732261E+04  0.70067503009E+02 0.  0.
        -11    1    3    3    0    0  0.10970568477E+03  0.60602017985E+02 -0.94333263501E+03  0.95162198489E+03  0.00000000000E+00 0.  1.
         12    1    3    3    0    0  0.15278841353E+02 -0.20796831282E+02 -0.28275642521E+03  0.28393158891E+03  0.00000000000E+00 0. -1.
         11    1    5    5    0    0  0.27483996394E+02  0.30530610525E+00  0.20521148480E+03  0.20704399717E+03  0.00000000000E+00 0. -1.
        -12    1    5    5    0    0  0.21590918965E+02  0.61205822715E+02  0.15167412552E+04  0.15181292289E+04  0.00000000000E+00 0.  1.
          5    1    4    4  501    0 -0.36483151810E+02 -0.84037619698E+02  0.12262398063E+03  0.15312561809E+03  0.41800000000E+01 0.  1.
         -5    1    4    4    0  501 -0.13757628967E+03 -0.17278695826E+02  0.90161130740E+02  0.16544573342E+03  0.41800000000E+01 0.  1.
</event>
<event>
11    1  0.8453735E-009  0.1818269E+03  0.7561462E-02  0.1068175E+00
         22   -1    0    0    0    0  0.00000000000E+00  0.00000000000E+00  0.40662558872E+02  0.40662558872E+02  0.00000000000E+00 0. -1.
         22   -1    0    0    0    0 -0.00000000000E+00 -0.00000000000E+00 -0.22059003137E+04  0.22059003137E+04  0.00000000000E+00 0. -1.
        -24    2    1    2    0    0  0.11743373717E+03 -0.59003974694E+02 -0.16190389580E+04  0.16262714024E+04  0.78736111553E+02 0.  0.
         25    2    1    2    0    0 -0.10235399974E+03  0.94244058899E+02 -0.45616390085E+03  0.49304362244E+03  0.12509286666E+03 0.  0.
         24    2    1    2    0    0 -0.15079737427E+02 -0.35240084205E+02 -0.90034896024E+02  0.12724784772E+03  0.81341688160E+02 0.  0.
        -13    1    5    5    0    0  0.38372389875E+01  0.15112624115E+01 -0.85574381369E+02  0.85673701121E+02  0.00000000000E+00 0.  1.
         14    1    5    5    0    0 -0.18916976414E+02 -0.36751346617E+02 -0.44605146557E+01  0.41574146603E+02  0.00000000000E+00 0. -1.
         11    1    3    3    0    0  0.30845600699E+02 -0.37339880625E+02 -0.95931423557E+03  0.96053605884E+03  0.00000000000E+00 0. -1.
        -12    1    3    3    0    0  0.86588136470E+02 -0.21664094069E+02 -0.65972472240E+03  0.66573534358E+03  0.00000000000E+00 0.  1.
          5    1    4    4  501    0 -0.36681914206E+02  0.10644789683E+03 -0.34862805696E+03  0.36638192105E+03  0.41800000000E+01 0. -1.
         -5    1    4    4    0  501 -0.65672085535E+02 -0.12203837933E+02 -0.10753584389E+03  0.12666170139E+03  0.41800000000E+01 0. -1.
</event>
<event>
11    1  0.8453735E-009  0.1432166E+03  0.7561462E-02  0.1104019E+00
         22   -1    0    0    0    0  0.00000000000E+00  0.00000000000E+00  0.47724895148E+03  0.47724895148E+03  0.00000000000E+00 0. -1.
         22   -1    0    0    0    0 -0.00000000000E+00 -0.00000000000E+00 -0.17503615871E+04  0.17503615871E+04  0.00000000000E+00 0.  1.
         24    2    1    2    0    0 -0.29451685089E+02  0.32322167966E+02 -0.16891808358E+04  0.16917216938E+04  0.81720676264E+02 0.  0.
         25    2    1    2    0    0  0.21715730279E+02  0.41412543522E+02  0.32978897893E+02  0.13755687261E+03  0.12509082218E+03 0.  0.
        -24    2    1    2    0    0  0.77359548100E+01 -0.73734711488E+02  0.38308930227E+03  0.39833197219E+03  0.80089286923E+02 0.  0.
        -13    1    3    3    0    0 -0.33849775342E+02  0.57694219119E+02 -0.12423387422E+04  0.12441382482E+04  0.00000000000E+00 0.  1.
         14    1    3    3    0    0  0.43980902523E+01 -0.25372051153E+02 -0.44684209355E+03  0.44758344557E+03  0.00000000000E+00 0. -1.
         11    1    5    5    0    0 -0.25445032249E+02 -0.71485544844E+02  0.26553054850E+03  0.27615956434E+03  0.00000000000E+00 0. -1.
        -12    1    5    5    0    0  0.33180987058E+02 -0.22491666444E+01  0.11755875377E+03  0.12217240785E+03  0.00000000000E+00 0.  1.
          5    1    4    4  501    0  0.36526300289E+02  0.29149396128E+02  0.76529602340E+02  0.89766978014E+02  0.41800000000E+01 0.  1.
         -5    1    4    4    0  501 -0.14810570010E+02  0.12263147394E+02 -0.43550704447E+02  0.47789894600E+02  0.41800000000E+01 0.  1.
</event>
<event>
11    1  0.8453735E-009  0.1486674E+03  0.7561462E-02  0.1098248E+00
         22   -1    0    0    0    0  0.00000000000E+00  0.00000000000E+00  0.15451179180E+04  0.15451179180E+04  0.00000000000E+00 0. -1.
         22   -1    0    0    0    0 -0.00000000000E+00 -0.00000000000E+00 -0.73654707953E+02  0.73654707953E+02  0.00000000000E+00 0. -1.
         24    2    1    2    0    0  0.79318006907E+02 -0.12889631489E+02  0.15061679999E+02  0.10621758979E+03  0.67807325241E+02 0.  0.
         25    2    1    2    0    0 -0.83862885709E+02 -0.33295018230E+02  0.20061949947E+03  0.25305623272E+03  0.12509089300E+03 0.  0.
        -24    2    1    2    0    0  0.45448788015E+01  0.46184649720E+02  0.12557820306E+04  0.12594988034E+04  0.84823639208E+02 0.  0.
        -13    1    3    3    0    0 -0.10439778506E+02  0.71820413618E+01  0.52677826944E+01  0.13722981742E+02  0.00000000000E+00 0.  1.
         14    1    3    3    0    0  0.89757785413E+02 -0.20071672851E+02  0.97938973041E+01  0.92494608046E+02  0.00000000000E+00 0. -1.
         13    1    5    5    0    0  0.21351673884E+02  0.36190378816E+02  0.11930533597E+04  0.11937930962E+04  0.00000000000E+00 0. -1.
        -14    1    5    5    0    0 -0.16806795083E+02  0.99942709037E+01  0.62728670891E+02  0.65705707238E+02  0.00000000000E+00 0.  1.
          5    1    4    4  501    0 -0.53641493058E+02 -0.98223957916E+01  0.64089277491E+01  0.55067558430E+02  0.41800000000E+01 0. -1.
         -5    1    4    4    0  501 -0.30221392651E+02 -0.23472622439E+02  0.19421057173E+03  0.19798867429E+03  0.41800000000E+01 0. -1.
</event>
<event>
11    1  0.8453735E-009  0.2909032E+03  0.7561462E-02  0.1004116E+00
         22   -1    0    0    0    0  0.00000000000E+00  0.00000000000E+00  0.40706824673E+03  0.40706824673E+03  0.00000000000E+00 0.  1.
         22   -1    0    0    0    0 -0.00000000000E+00 -0.00000000000E+00 -0.88618401199E+03  0.88618401199E+03  0.00000000000E+00 0.  1.
         24    2    1    2    0    0 -0.54335224506E+02 -0.47478555324E+02 -0.41794095401E+02  0.11543493301E+03  0.79824479400E+02 0.  0.
         25    2    1    2    0    0  0.22082411998E+03  0.15204700194E+03 -0.74581402417E+03  0.80235118046E+03  0.12508906978E+03 0.  0.
        -24    2    1    2    0    0 -0.16648889547E+03 -0.10456844662E+03  0.30849235431E+03  0.37546614524E+03  0.84582393045E+02 0.  0.
        -13    1    3    3    0    0  0.18391466862E+02  0.31568018394E+01 -0.10758621732E+02  0.21539716636E+02  0.00000000000E+00 0.  1.
         14    1    3    3    0    0 -0.72726691368E+02 -0.50635357163E+02 -0.31035473669E+02  0.93895216376E+02  0.00000000000E+00 0. -1.
         13    1    5    5    0    0 -0.72498627900E+02 -0.39698865890E+02  0.20619965632E+03  0.22214938503E+03  0.00000000000E+00 0. -1.
        -14    1    5    5    0    0 -0.93990267570E+02 -0.64869580728E+02  0.10229269799E+03  0.15331676022E+03  0.00000000000E+00 0.  1.
          5    1    4    4  501    0  0.80327042169E+02  0.77967782128E+02 -0.47801541928E+03  0.49096600923E+03  0.41800000000E+01 0. -1.
         -5    1    4    4    0  501  0.14049707781E+03  0.74079219814E+02 -0.26779860489E+03  0.31138517123E+03  0.41800000000E+01 0. -1.
</event>
<event>
11    1  0.8453735E-009  0.9189155E+03  0.7561462E-02  0.8760208E-01
         22   -1    0    0    0    0  0.00000000000E+00  0.00000000000E+00  0.94075487248E+03  0.94075487248E+03  0.00000000000E+00 0. -1.
         22   -1    0    0    0    0 -0.00000000000E+00 -0.00000000000E+00 -0.22282745188E+04  0.22282745188E+04  0.00000000000E+00 0. -1.
        -24    2    1    2    0    0  0.83647598074E+03  0.28175403824E+03 -0.15757265089E+04  0.18078547654E+04  0.79670682529E+02 0.  0.
         25    2    1    2    0    0 -0.99034083633E+03 -0.31278464518E+03  0.26371825051E+02  0.10463997854E+04  0.12509129228E+03 0.  0.
         24    2    1    2    0    0  0.15386485560E+03  0.31030606939E+02  0.26183503748E+03  0.31477484046E+03  0.76735395881E+02 0.  0.
        -11    1    5    5    0    0  0.29685478559E+02  0.37761713437E+02  0.97483069455E+02  0.10867439197E+03  0.00000000000E+00 0.  1.
         12    1    5    5    0    0  0.12417937704E+03 -0.67311064976E+01  0.16435196802E+03  0.20610044849E+03  0.00000000000E+00 0. -1.
         11    1    3    3    0    0  0.83020637576E+03  0.28660526287E+03 -0.15601955146E+04  0.17904176180E+04  0.00000000000E+00 0. -1.
        -12    1    3    3    0    0  0.62696049713E+01 -0.48512246253E+01 -0.15530994321E+02  0.17437147458E+02  0.00000000000E+00 0.  1.
          5    1    4    4  501    0 -0.32386113561E+03 -0.71921430309E+02 -0.42017054774E+02  0.33442732034E+03  0.41800000000E+01 0. -1.
         -5    1    4    4    0  501 -0.66647970073E+03 -0.24086321487E+03  0.68388879824E+02  0.71197246509E+03  0.41800000000E+01 0. -1.
</event>
<event>
11    1  0.8453735E-009  0.1452518E+03  0.7561462E-02  0.1101832E+00
         22   -1    0    0    0    0  0.00000000000E+00  0.00000000000E+00  0.48391335709E+03  0.48391335709E+03  0.00000000000E+00 0. -1.
         22   -1    0    0    0    0 -0.00000000000E+00 -0.00000000000E+00 -0.68823510608E+03  0.68823510608E+03  0.00000000000E+00 0.  1.
         24    2    1    2    0    0  0.73018642155E+02  0.19635409198E+02 -0.64044214816E+03  0.64984595179E+03  0.80102088066E+02 0.  0.
         25    2    1    2    0    0 -0.34560212718E+02  0.55360452889E+02  0.10716148060E+03  0.17717338200E+03  0.12509051249E+03 0.  0.
        -24    2    1    2    0    0 -0.38458429438E+02 -0.74995862087E+02  0.32895891857E+03  0.34512912939E+03  0.61617495255E+02 0.  0.
        -11    1    3    3    0    0  0.60188685033E+01  0.59260828585E+01 -0.39401018273E+03  0.39410070963E+03  0.00000000000E+00 0.  1.
         12    1    3    3    0    0  0.66999773652E+02  0.13709326339E+02 -0.24643196543E+03  0.25574524215E+03  0.00000000000E+00 0. -1.
         11    1    5    5    0    0 -0.13722158924E+02 -0.30352282589E+02  0.41697730723E+02  0.53369087038E+02  0.00000000000E+00 0. -1.
        -12    1    5    5    0    0 -0.24736270514E+02 -0.44643579498E+02  0.28726118785E+03  0.29176004235E+03  0.00000000000E+00 0.  1.
          5    1    4    4  501    0 -0.64409917229E+01  0.68040328765E+02  0.30850507945E+01  0.68541685500E+02  0.41800000000E+01 0. -1.
         -5    1    4    4    0  501 -0.28119220995E+02 -0.12679875876E+02  0.10407642981E+03  0.10863169650E+03  0.41800000000E+01 0. -1.
</event>
<event>
11    1  0.8453735E-009  0.1809391E+03  0.7561462E-02  0.1068886E+00
         22   -1    0    0    0    0  0.00000000000E+00  0.00000000000E+00  0.27323057770E+03  0.27323057770E+03  0.00000000000E+00 0.  1.
         22   -1    0    0    0    0 -0.00000000000E+00 -0.00000000000E+00 -0.78759841500E+03  0.78759841500E+03  0.00000000000E+00 0.  1.
         24    2    1    2    0    0 -0.40414993378E+01 -0.62938380927E+02 -0.51181868714E+03  0.52194924376E+03  0.80592003567E+02 0.  0.
         25    2    1    2    0    0  0.12613314415E+03  0.10264129449E+03 -0.20185242200E+03  0.28781411263E+03  0.12509099797E+03 0.  0.
        -24    2    1    2    0    0 -0.12209164481E+03 -0.39702913566E+02  0.19930327185E+03  0.25106563632E+03  0.82640598333E+02 0.  0.
        -11    1    3    3    0    0  0.27542142818E+02 -0.65048068175E+02 -0.36037091176E+03  0.36722883172E+03  0.00000000000E+00 0.  1.
         12    1    3    3    0    0 -0.31583642156E+02  0.21096872478E+01 -0.15144777539E+03  0.15472041204E+03  0.00000000000E+00 0. -1.
         13    1    5    5    0    0 -0.10689808196E+02  0.15815869331E+02  0.65914456755E+02  0.68623096194E+02  0.00000000000E+00 0. -1.
        -14    1    5    5    0    0 -0.11140183661E+03 -0.55518782898E+02  0.13338881509E+03  0.18244254012E+03  0.00000000000E+00 0.  1.
          5    1    4    4  501    0  0.41125785103E+02 -0.21696221477E+02 -0.17830248950E+02  0.49974457519E+02  0.41800000000E+01 0.  1.
         -5    1    4    4    0  501  0.85007359043E+02  0.12433751597E+03 -0.18402217305E+03  0.23783965511E+03  0.41800000000E+01 0.  1.
</event>
<event>
11    1  0.8453735E-009  0.1620668E+03  0.7561462E-02  0.1085149E+00
         22   -1    0    0    0    0  0.00000000000E+00  0.00000000000E+00  0.30366255480E+03  0.30366255480E+03  0.00000000000E+00 0. -1.
         22   -1    0    0    0    0 -0.00000000000E+00 -0.00000000000E+00 -0.69431616077E+03  0.69431616077E+03  0.00000000000E+00 0. -1.
        -24    2    1    2    0    0 -0.21621359784E+02 -0.13184554601E+02 -0.57974243275E+03  0.58605713588E+03  0.81977817181E+02 0.  0.
         25    2    1    2    0    0  0.12065466796E+03  0.30728844057E+01 -0.10420677850E+02  0.17413393700E+03  0.12508815279E+03 0.  0.
         24    2    1    2    0    0 -0.99033308180E+02  0.10111670196E+02  0.19950950463E+03  0.23778764269E+03  0.82638239192E+02 0.  0.
        -13    1    5    5    0    0 -0.31502842009E+02  0.43608380364E+02  0.76617555433E+02  0.93618212401E+02  0.00000000000E+00 0.  1.
         14    1    5    5    0    0 -0.67530466172E+02 -0.33496710168E+02  0.12289194920E+03  0.14416943029E+03  0.00000000000E+00 0. -1.
         11    1    3    3    0    0 -0.25656038537E+01  0.27644290154E+02 -0.39207233138E+03  0.39305407024E+03  0.00000000000E+00 0. -1.
        -12    1    3    3    0    0 -0.19055755930E+02 -0.40828844755E+02 -0.18767010137E+03  0.19300306564E+03  0.00000000000E+00 0.  1.
          5    1    4    4  501    0  0.41031626847E+02 -0.59292307950E+02 -0.99369618450E+01  0.72906706101E+02  0.41800000000E+01 0.  1.
         -5    1    4    4    0  501  0.79623041117E+02  0.62365192356E+02 -0.48371600503E+00  0.10122723090E+03  0.41800000000E+01 0.  1.
</event>
<event>
11    1  0.8453735E-009  0.2057589E+03  0.7561462E-02  0.1050524E+00
         22   -1    0    0    0    0  0.00000000000E+00  0.00000000000E+00  0.12890149687E+04  0.12890149687E+04  0.00000000000E+00 0.  1.
         22   -1    0    0    0    0 -0.00000000000E+00 -0.00000000000E+00 -0.62328893720E+03  0.62328893720E+03  0.00000000000E+00 0. -1.
        -24    2    1    2    0    0 -0.60916749123E+02 -0.14325483098E+03 -0.35952911522E+03  0.39972154158E+03  0.79267453505E+02 0.  0.
         25    2    1    2    0    0  0.16228818963E+03  0.12498897224E+03 -0.18031134432E+03  0.30019999361E+03  0.12509258810E+03 0.  0.
         24    2    1    2    0    0 -0.10137144050E+03  0.18265858740E+02  0.12055664911E+04  0.12123823708E+04  0.76620088379E+02 0.  0.
        -13    1    5    5    0    0 -0.51131750449E+02 -0.26692212448E+02  0.69394509529E+03  0.69633808268E+03  0.00000000000E+00 0.  1.
         14    1    5    5    0    0 -0.50239690053E+02  0.44958071189E+02  0.51162139580E+03  0.51604428808E+03  0.00000000000E+00 0. -1.
         11    1    3    3    0    0 -0.65765079710E+02 -0.13960098647E+03 -0.27793165055E+03  0.31789854279E+03  0.00000000000E+00 0. -1.
        -12    1    3    3    0    0  0.48483305877E+01 -0.36538445127E+01 -0.81597464671E+02  0.81822998783E+02  0.00000000000E+00 0.  1.
          5    1    4    4  501    0  0.40513985258E+02 -0.35481195978E+01 -0.95391010653E+02  0.10378289583E+03  0.41800000000E+01 0. -1.
         -5    1    4    4    0  501  0.12177420437E+03  0.12853709184E+03 -0.84920333668E+02  0.19641709777E+03  0.41800000000E+01 0. -1.
</event>
<event>
11    1  0.8453735E-009  0.1355109E+03  0.7561462E-02  0.1112677E+00
         22   -1    0    0    0    0  0.00000000000E+00  0.00000000000E+00  0.14186397019E+03  0.14186397019E+03  0.00000000000E+00 0.  1.
         22   -1    0    0    0    0 -0.00000000000E+00 -0.00000000000E+00 -0.31257755281E+03  0.31257755281E+03  0.00000000000E+00 0. -1.
         24    2    1    2    0    0  0.37244331926E+02  0.10374299722E+02 -0.16225795518E+03  0.18553556347E+03  0.81246753397E+02 0.  0.
         25    2    1    2    0    0 -0.79377520240E+02 -0.24803667622E+02 -0.60861461757E+02  0.16207329782E+03  0.12509046203E+03 0.  0.
        -24    2    1    2    0    0  0.42133188314E+02  0.14429367900E+02  0.52405834317E+02  0.10683266171E+03  0.81752271659E+02 0.  0.
        -11    1    3    3    0    0  0.24188723753E+02  0.28945988551E+02 -0.22451516647E+02  0.43898009177E+02  0.00000000000E+00 0.  1.
         12    1    3    3    0    0  0.13055608173E+02 -0.18571688829E+02 -0.13980643853E+03  0.14163755429E+03  0.00000000000E+00 0. -1.
         11    1    5    5    0    0  0.15669245865E+02  0.18796313353E+02 -0.18724808190E+02  0.30813067088E+02  0.00000000000E+00 0. -1.
        -12    1    5    5    0    0  0.26463942449E+02 -0.43669454530E+01  0.71130642507E+02  0.76019594619E+02  0.00000000000E+00 0.  1.
          5    1    4    4  501    0 -0.10290878131E+03  0.63267171669E+01 -0.19424003228E+02  0.10500004249E+03  0.41800000000E+01 0.  1.
         -5    1    4    4    0  501  0.23531261071E+02 -0.31130384789E+02 -0.41437458529E+02  0.57073255331E+02  0.41800000000E+01 0.  1.
</event>
<event>
11    1  0.8453735E-009  0.1473140E+03  0.7561462E-02  0.1099655E+00
         22   -1    0    0    0    0  0.00000000000E+00  0.00000000000E+00  0.16615390508E+04  0.16615390508E+04  0.00000000000E+00 0. -1.
         22   -1    0    0    0    0 -0.00000000000E+00 -0.00000000000E+00 -0.10798142919E+03  0.10798142919E+03  0.00000000000E+00 0. -1.
         24    2    1    2    0    0  0.21350015789E+02  0.74660552146E+02 -0.52682650830E+02  0.12397295143E+03  0.81017342380E+02 0.  0.
         25    2    1    2    0    0 -0.39008307520E+02 -0.70680645999E+02  0.28152812928E+03  0.31847483859E+03  0.12510289152E+03 0.  0.
        -24    2    1    2    0    0  0.17658291731E+02 -0.39799061473E+01  0.13247121431E+04  0.13270726899E+04  0.77019525425E+02 0.  0.
        -13    1    3    3    0    0  0.26619775308E+02 -0.54184098681E+01  0.13943657465E+01  0.27201394427E+02  0.00000000000E+00 0.  1.
         14    1    3    3    0    0 -0.52697595186E+01  0.80078962014E+02 -0.54077016577E+02  0.96771557001E+02  0.00000000000E+00 0. -1.
         13    1    5    5    0    0 -0.19472769783E+02  0.17719103602E+02  0.85242944361E+03  0.85283592310E+03  0.00000000000E+00 0. -1.
        -14    1    5    5    0    0  0.37131061514E+02 -0.21699009749E+02  0.47228269950E+03  0.47423676682E+03  0.00000000000E+00 0.  1.
          5    1    4    4  501    0 -0.39429513175E+02 -0.45847107934E+02  0.28646629965E+03  0.29280890877E+03  0.41800000000E+01 0. -1.
         -5    1    4    4    0  501  0.42120565559E+00 -0.24833538065E+02 -0.49381703766E+01  0.25665929823E+02  0.41800000000E+01 0. -1.
</event>
<event>
11    1  0.8453735E-009  0.1700496E+03  0.7561462E-02  0.1077989E+00
         22   -1    0    0    0    0  0.00000000000E+00  0.00000000000E+00  0.18524322537E+04  0.18524322537E+04  0.00000000000E+00 0.  1.
         22   -1    0    0    0    0 -0.00000000000E+00 -0.00000000000E+00 -0.13278688700E+03  0.13278688700E+03  0.00000000000E+00 0.  1.
         24    2    1    2    0    0 -0.24151806673E+02  0.11695312644E+03 -0.61816205758E+02  0.15630996836E+03  0.79688263659E+02 0.  0.
         25    2    1    2    0    0  0.70469274859E+01 -0.91484253997E+02  0.24673379734E+03  0.29145199358E+03  0.12509064671E+03 0.  0.
        -24    2    1    2    0    0  0.17104879187E+02 -0.25468872447E+02  0.15347277751E+04  0.15374571787E+04  0.86278574627E+02 0.  0.
        -13    1    3    3    0    0 -0.21757674436E+02  0.77163145440E+02 -0.79315289162E+02  0.11277616107E+03  0.00000000000E+00 0.  1.
         14    1    3    3    0    0 -0.23941322370E+01  0.39789981004E+02  0.17499083403E+02  0.43533807293E+02  0.00000000000E+00 0. -1.
         13    1    5    5    0    0 -0.29364366765E+02  0.57712669790E+00  0.26696879269E+03  0.26857947684E+03  0.00000000000E+00 0. -1.
        -14    1    5    5    0    0  0.46469245952E+02 -0.26045999145E+02  0.12677589824E+04  0.12688777019E+04  0.00000000000E+00 0.  1.
          5    1    4    4  501    0 -0.26762825961E+02 -0.34954272771E+02  0.95294493681E+01  0.45236410596E+02  0.41800000000E+01 0. -1.
         -5    1    4    4    0  501  0.33809753447E+02 -0.56529981226E+02  0.23720434797E+03  0.24621558298E+03  0.41800000000E+01 0. -1.
</event>
<event>
11    1  0.8453735E-009  0.1521810E+03  0.7561462E-02  0.1094671E+00
         22   -1    0    0    0    0  0.00000000000E+00  0.00000000000E+00  0.56413229351E+03  0.56413229351E+03  0.00000000000E+00 0. -1.
         22   -1    0    0    0    0 -0.00000000000E+00 -0.00000000000E+00 -0.10921662441E+04  0.10921662441E+04  0.00000000000E+00 0.  1.
        -24    2    1    2    0    0 -0.22904529846E+02 -0.27918772530E+02 -0.10492589180E+04  0.10528733534E+04  0.79334393059E+02 0.  0.
         25    2    1    2    0    0  0.24499850520E+02 -0.66333987766E+02  0.14684944264E+03  0.20547345573E+03  0.12511651209E+03 0.  0.
         24    2    1    2    0    0 -0.15953206736E+01  0.94252760296E+02  0.37437552473E+03  0.39795172854E+03  0.96552663646E+02 0.  0.
        -11    1    5    5    0    0  0.36231341971E+02  0.89821472037E+02  0.26842473124E+03  0.28536370358E+03  0.00000000000E+00 0.  1.
         12    1    5    5    0    0 -0.37826662644E+02  0.44312882592E+01  0.10595079349E+03  0.11258802496E+03  0.00000000000E+00 0. -1.
         13    1    3    3    0    0  0.26193591192E+01 -0.38131411083E+02 -0.23006573860E+03  0.23321901645E+03  0.00000000000E+00 0. -1.
        -14    1    3    3    0    0 -0.25523888965E+02  0.10212638553E+02 -0.81919317937E+03  0.81965433691E+03  0.00000000000E+00 0.  1.
          5    1    4    4  501    0  0.49547476815E+02  0.68485725471E+01  0.10738595664E+03  0.11853721562E+03  0.41800000000E+01 0. -1.
         -5    1    4    4    0  501 -0.25047626295E+02 -0.73182560313E+02  0.39463486005E+02  0.86936240111E+02  0.41800000000E+01 0. -1.
</event>
<event>
11    1  0.8453735E-009  0.1628302E+03  0.7561462E-02  0.1084445E+00
         22   -1    0    0    0    0  0.00000000000E+00  0.00000000000E+00  0.21862185661E+03  0.21862185661E+03  0.00000000000E+00 0. -1.
         22   -1    0    0    0    0 -0.00000000000E+00 -0.00000000000E+00 -0.22337203736E+04  0.22337203736E+04  0.00000000000E+00 0. -1.
        -24    2    1    2    0    0  0.20819821571E+02 -0.16552476636E+02 -0.11793375002E+04  0.11824019665E+04  0.80808548579E+02 0.  0.
         25    2    1    2    0    0 -0.12465654937E+03  0.16998568168E+02 -0.10245539016E+04  0.10398003924E+04  0.12508378031E+03 0.  0.
         24    2    1    2    0    0  0.10383672780E+03 -0.44609153199E+00  0.18879288481E+03  0.23013987134E+03  0.80866198055E+02 0.  0.
        -13    1    5    5    0    0  0.88764205953E+01  0.24097466167E+02  0.78257404202E+02  0.82363220133E+02  0.00000000000E+00 0.  1.
         14    1    5    5    0    0  0.94960307202E+02 -0.24543557699E+02  0.11053548061E+03  0.14777665120E+03  0.00000000000E+00 0. -1.
         13    1    3    3    0    0 -0.28042578156E+02 -0.20491147148E+02 -0.59446739783E+03  0.59548111673E+03  0.00000000000E+00 0. -1.
        -14    1    3    3    0    0  0.48862399727E+02  0.39386705117E+01 -0.58487010237E+03  0.58692084976E+03  0.00000000000E+00 0.  1.
          5    1    4    4  501    0  0.52234874961E+01  0.41225741543E+02 -0.34415757263E+03  0.34668249709E+03  0.41800000000E+01 0.  1.
         -5    1    4    4    0  501 -0.12988003686E+03 -0.24227173375E+02 -0.68039632894E+03  0.69311789527E+03  0.41800000000E+01 0.  1.
</event>
<event>
11    1  0.8453735E-009  0.1292076E+03  0.7561462E-02  0.1120246E+00
         22   -1    0    0    0    0  0.00000000000E+00  0.00000000000E+00  0.56214442464E+03  0.56214442464E+03  0.00000000000E+00 0. -1.
         22   -1    0    0    0    0 -0.00000000000E+00 -0.00000000000E+00 -0.58681616606E+03  0.58681616606E+03  0.00000000000E+00 0.  1.
        -24    2    1    2    0    0  0.40035615399E+01  0.16226343855E+02 -0.50553179524E+03  0.51095108496E+03  0.72313847126E+02 0.  0.
         25    2    1    2    0    0  0.26509493713E+02 -0.26839660131E+02 -0.17876593546E+02  0.13186459127E+03  0.12508228180E+03 0.  0.
         24    2    1    2    0    0 -0.30513055253E+02  0.10613316275E+02  0.49873664736E+03  0.50614491447E+03  0.80004637379E+02 0.  0.
        -13    1    5    5    0    0  0.25802192134E+02  0.68550185783E+01  0.23007460218E+03  0.23161836492E+03  0.00000000000E+00 0.  1.
         14    1    5    5    0    0 -0.56315247387E+02  0.37582976970E+01  0.26866204518E+03  0.27452654955E+03  0.00000000000E+00 0. -1.
         13    1    3    3    0    0 -0.23648579625E+02 -0.12603526264E+01 -0.64548010088E+02  0.68755286440E+02  0.00000000000E+00 0. -1.
        -14    1    3    3    0    0  0.27652141165E+02  0.17486696482E+02 -0.44098378515E+03  0.44219579852E+03  0.00000000000E+00 0.  1.
          5    1    4    4  501    0  0.19175673744E+02 -0.16293770169E+02  0.53474084528E+02  0.59246464249E+02  0.41800000000E+01 0.  1.
         -5    1    4    4    0  501  0.73338199695E+01 -0.10545889962E+02 -0.71350678075E+02  0.72618127022E+02  0.41800000000E+01 0.  1.
</event>
<event>
11    1  0.8453735E-009  0.2121634E+03  0.7561462E-02  0.1046241E+00
         22   -1    0    0    0    0  0.00000000000E+00  0.00000000000E+00  0.28711797273E+03  0.28711797273E+03  0.00000000000E+00 0.  1.
         22   -1    0    0    0    0 -0.00000000000E+00 -0.00000000000E+00 -0.98435483674E+03  0.98435483674E+03  0.00000000000E+00 0. -1.
         24    2    1    2    0    0  0.14763975865E+03 -0.84733458374E+01 -0.43013740319E+03  0.46219227006E+03  0.82062250531E+02 0.  0.
         25    2    1    2    0    0 -0.21366622036E+03  0.14337234853E+02 -0.49750902702E+03  0.55589654102E+03  0.12508765856E+03 0.  0.
        -24    2    1    2    0    0  0.66026461711E+02 -0.58638890157E+01  0.23040956620E+03  0.25338399839E+03  0.81981727267E+02 0.  0.
        -13    1    3    3    0    0  0.29614610770E+02 -0.23494986240E+02 -0.43340255334E+02  0.57510149381E+02  0.00000000000E+00 0.  1.
         14    1    3    3    0    0  0.11802514788E+03  0.15021640402E+02 -0.38679714785E+03  0.40468212068E+03  0.00000000000E+00 0. -1.
         13    1    5    5    0    0  0.31217953596E+02 -0.14951374399E+02  0.20113921557E+02  0.40033411840E+02  0.00000000000E+00 0. -1.
        -14    1    5    5    0    0  0.34808508115E+02  0.90874853829E+01  0.21029564464E+03  0.21335058655E+03  0.00000000000E+00 0.  1.
          5    1    4    4  501    0 -0.21117481395E+02  0.20082011944E+02 -0.19518183575E+03  0.19738960619E+03  0.41800000000E+01 0.  1.
         -5    1    4    4    0  501 -0.19254873897E+03 -0.57447770909E+01 -0.30232719127E+03  0.35850693483E+03  0.41800000000E+01 0.  1.
</event>
<event>
11    1  0.8453735E-009  0.1270291E+03  0.7561462E-02  0.1122974E+00
         22   -1    0    0    0    0  0.00000000000E+00  0.00000000000E+00  0.85879009747E+03  0.85879009747E+03  0.00000000000E+00 0.  1.
         22   -1    0    0    0    0 -0.00000000000E+00 -0.00000000000E+00 -0.62319094157E+03  0.62319094157E+03  0.00000000000E+00 0. -1.
        -24    2    1    2    0    0  0.30009439998E+01  0.27165294752E+02 -0.59889433622E+03  0.60468794639E+03  0.78905815101E+02 0.  0.
         25    2    1    2    0    0  0.38014184939E+01 -0.25348458215E+01  0.19137844032E+03  0.22868065226E+03  0.12509299369E+03 0.  0.
         24    2    1    2    0    0 -0.68023624937E+01 -0.24630448931E+02  0.64311505180E+03  0.64861244039E+03  0.80300665224E+02 0.  0.
        -11    1    5    5    0    0 -0.17303907633E+02 -0.38509789216E+02  0.60756972899E+03  0.60903481401E+03  0.00000000000E+00 0.  1.
         12    1    5    5    0    0  0.10501545139E+02  0.13879340285E+02  0.35545322801E+02  0.39577626382E+02  0.00000000000E+00 0. -1.
         11    1    3    3    0    0  0.14577512572E+01  0.54066413167E+02 -0.46296847424E+03  0.46611705634E+03  0.00000000000E+00 0. -1.
        -12    1    3    3    0    0  0.15431927426E+01 -0.26901118415E+02 -0.13592586197E+03  0.13857089005E+03  0.00000000000E+00 0.  1.
          5    1    4    4  501    0  0.40094525560E+02 -0.48069345693E+02  0.70035091883E+02  0.94024568439E+02  0.41800000000E+01 0.  1.
         -5    1    4    4    0  501 -0.36293107066E+02  0.45534499871E+02  0.12134334844E+03  0.13465608382E+03  0.41800000000E+01 0.  1.
</event>
<event>
11    1  0.8453735E-009  0.1715290E+03  0.7561462E-02  0.1076709E+00
         22   -1    0    0    0    0  0.00000000000E+00  0.00000000000E+00  0.35444517029E+03  0.35444517029E+03  0.00000000000E+00 0.  1.
         22   -1    0    0    0    0 -0.00000000000E+00 -0.00000000000E+00 -0.34340770230E+04  0.34340770230E+04  0.00000000000E+00 0.  1.
         24    2    1    2    0    0 -0.10913922854E+03  0.36475918235E+02 -0.25492622153E+04  0.25531861288E+04  0.82338946471E+02 0.  0.
         25    2    1    2    0    0  0.11710544502E+03 -0.53336159260E+02 -0.86865912835E+03  0.88700252601E+03  0.12508544577E+03 0.  0.
        -24    2    1    2    0    0 -0.79662164843E+01  0.16860241024E+02  0.33828949090E+03  0.34833353852E+03  0.80924323112E+02 0.  0.
        -11    1    3    3    0    0 -0.73602542628E+02  0.15133645396E+02 -0.22271884983E+04  0.22284557363E+04  0.00000000000E+00 0.  1.
         12    1    3    3    0    0 -0.35536685910E+02  0.21342272840E+02 -0.32207371696E+03  0.32473039250E+03  0.00000000000E+00 0. -1.
         11    1    5    5    0    0 -0.13045262285E+02 -0.24455972422E+02  0.51013954252E+02  0.58057703912E+02  0.00000000000E+00 0. -1.
        -12    1    5    5    0    0  0.50790458005E+01  0.41316213446E+02  0.28727553665E+03  0.29027583461E+03  0.00000000000E+00 0.  1.
          5    1    4    4  501    0  0.10450706436E+03  0.17281179238E+02 -0.57416493189E+03  0.58386916948E+03  0.41800000000E+01 0. -1.
         -5    1    4    4    0  501  0.12598380658E+02 -0.70617338498E+02 -0.29449419646E+03  0.30313335653E+03  0.41800000000E+01 0. -1.
</event>
<event>
11    1  0.8453735E-009  0.3325241E+03  0.7561462E-02  0.9872944E-01
         22   -1    0    0    0    0  0.00000000000E+00  0.00000000000E+00  0.24008201520E+03  0.24008201520E+03  0.00000000000E+00 0. -1.
         22   -1    0    0    0    0 -0.00000000000E+00 -0.00000000000E+00 -0.18692861636E+04  0.18692861636E+04  0.00000000000E+00 0.  1.
         24    2    1    2    0    0  0.28745721794E+03  0.12636073553E+03 -0.14022633852E+04  0.14392789160E+04  0.81132662092E+02 0.  0.
         25    2    1    2    0    0 -0.28123091686E+03 -0.78232318889E+02 -0.37710618664E+03  0.49301754231E+03  0.12508435835E+03 0.  0.
        -24    2    1    2    0    0 -0.62263010749E+01 -0.48128416640E+02  0.15016542343E+03  0.17707172053E+03  0.80309579154E+02 0.  0.
        -13    1    3    3    0    0  0.28674143443E+03  0.13344956975E+03 -0.13512365355E+04  0.13877570438E+04  0.00000000000E+00 0.  1.
         14    1    3    3    0    0  0.71578351126E+00 -0.70888342194E+01 -0.51026849704E+02  0.51521872126E+02  0.00000000000E+00 0. -1.
         11    1    5    5    0    0  0.21346853102E+02 -0.40891985814E+02  0.13900332633E+03  0.14645739097E+03  0.00000000000E+00 0. -1.
        -12    1    5    5    0    0 -0.27573154177E+02 -0.72364308251E+01  0.11162097104E+02  0.30614329555E+02  0.00000000000E+00 0.  1.
          5    1    4    4  501    0 -0.20751273139E+02 -0.43775205046E+02 -0.28159038762E+02  0.56189747977E+02  0.41800000000E+01 0.  1.
         -5    1    4    4    0  501 -0.26047964372E+03 -0.34457113843E+02 -0.34894714788E+03  0.43682779433E+03  0.41800000000E+01 0.  1.
</event>
<event>
11    1  0.8453735E-009  0.1499486E+03  0.7561462E-02  0.1096931E+00
         22   -1    0    0    0    0  0.00000000000E+00  0.00000000000E+00  0.18841500716E+04  0.18841500716E+04  0.00000000000E+00 0.  1.
         22   -1    0    0    0    0 -0.00000000000E+00 -0.00000000000E+00 -0.70343200723E+03  0.70343200723E+03  0.00000000000E+00 0.  1.
         24    2    1    2    0    0 -0.37559028640E+02 -0.62100978743E+00 -0.66556412036E+03  0.67143400072E+03  0.80230622167E+02 0.  0.
         25    2    1    2    0    0  0.75828235527E+02 -0.71492840237E+02  0.16896440029E+03  0.23464399085E+03  0.12509071256E+03 0.  0.
        -24    2    1    2    0    0 -0.38269206887E+02  0.72113850025E+02  0.16773177844E+04  0.16815040872E+04  0.86000615806E+02 0.  0.
        -11    1    3    3    0    0  0.11102172195E+01 -0.16409356151E+02 -0.51277281504E+03  0.51303650883E+03  0.00000000000E+00 0.  1.
         12    1    3    3    0    0 -0.38669245859E+02  0.15788346364E+02 -0.15279130532E+03  0.15839749189E+03  0.00000000000E+00 0. -1.
         11    1    5    5    0    0  0.15005897984E+02  0.61853851854E+02  0.99415886697E+03  0.99619422240E+03  0.00000000000E+00 0. -1.
        -12    1    5    5    0    0 -0.53275104872E+02  0.10259998170E+02  0.68315891745E+03  0.68530986485E+03  0.00000000000E+00 0.  1.
          5    1    4    4  501    0 -0.46081725058E+01  0.31335369705E+02  0.38532033913E+02  0.50053278473E+02  0.41800000000E+01 0. -1.
         -5    1    4    4    0  501  0.80436408033E+02 -0.10282820994E+03  0.13043236638E+03  0.18459071238E+03  0.41800000000E+01 0. -1.
</event>
<event>
11    1  0.8453735E-009  0.1638555E+03  0.7561462E-02  0.1083506E+00
         22   -1    0    0    0    0  0.00000000000E+00  0.00000000000E+00  0.22048854277E+04  0.22048854277E+04  0.00000000000E+00 0.  1.
         22   -1    0    0    0    0 -0.00000000000E+00 -0.00000000000E+00 -0.39377225135E+03  0.39377225135E+03  0.00000000000E+00 0. -1.
         24    2    1    2    0    0 -0.74508636841E+01  0.10535763070E+03 -0.30621603999E+03  0.33380522357E+03  0.80634474129E+02 0.  0.
         25    2    1    2    0    0 -0.13431474680E+02 -0.10823861758E+03  0.21650262109E+02  0.16737004648E+03  0.12509194923E+03 0.  0.
        -24    2    1    2    0    0  0.20882338364E+02  0.28809868802E+01  0.20956789542E+04  0.20974824090E+04  0.84367083250E+02 0.  0.
        -11    1    3    3    0    0  0.32350210632E+02  0.22997093179E+02 -0.11884784274E+03  0.12530048742E+03  0.00000000000E+00 0.  1.
         12    1    3    3    0    0 -0.39801074316E+02  0.82360537521E+02 -0.18736819725E+03  0.20850473615E+03  0.00000000000E+00 0. -1.
         13    1    5    5    0    0  0.33799881702E+02 -0.29808015538E+01  0.32873094559E+03  0.33047746031E+03  0.00000000000E+00 0. -1.
        -14    1    5    5    0    0 -0.12917543337E+02  0.58617884340E+01  0.17669480086E+04  0.17670049487E+04  0.00000000000E+00 0.  1.
          5    1    4    4  501    0 -0.45885474950E+02 -0.33390526122E+02 -0.36048001621E+02  0.67359742183E+02  0.41800000000E+01 0. -1.
         -5    1    4    4    0  501  0.32454000270E+02 -0.74848091458E+02  0.57698263730E+02  0.10001030430E+03  0.41800000000E+01 0. -1.
</event>
<event>
11    1  0.8453735E-009  0.1351017E+03  0.7561462E-02  0.1113155E+00
         22   -1    0    0    0    0  0.00000000000E+00  0.00000000000E+00  0.78842173056E+03  0.78842173056E+03  0.00000000000E+00 0.  1.
         22   -1    0    0    0    0 -0.00000000000E+00 -0.00000000000E+00 -0.84673430982E+03  0.84673430982E+03  0.00000000000E+00 0.  1.
         24    2    1    2    0    0 -0.36098057355E+01 -0.12370953253E+02 -0.77815575723E+03  0.78207062996E+03  0.77084476705E+02 0.  0.
         25    2    1    2    0    0 -0.18157306324E+02 -0.34547495473E+02  0.52463290354E+01  0.13114935751E+03  0.12509761305E+03 0.  0.
        -24    2    1    2    0    0  0.21767112059E+02  0.46918448726E+02  0.71459684893E+03  0.72193605290E+03  0.88700958153E+02 0.  0.
        -13    1    3    3    0    0 -0.14605240192E+02 -0.81640010353E+01 -0.76144773232E+03  0.76163154675E+03  0.00000000000E+00 0.  1.
         14    1    3    3    0    0  0.10995434456E+02 -0.42069522180E+01 -0.16708024914E+02  0.20439083208E+02  0.00000000000E+00 0. -1.
         13    1    5    5    0    0 -0.10573544828E+02  0.24011129626E+02  0.52853506455E+02  0.59007010946E+02  0.00000000000E+00 0. -1.
        -14    1    5    5    0    0  0.32340656887E+02  0.22907319100E+02  0.66174334248E+03  0.66292904196E+03  0.00000000000E+00 0.  1.
          5    1    4    4  501    0  0.41962536903E+02  0.18634707651E+02 -0.14598899344E+02  0.48360180878E+02  0.41800000000E+01 0. -1.
         -5    1    4    4    0  501 -0.60119843227E+02 -0.53182203123E+02  0.19845228379E+02  0.82789176636E+02  0.41800000000E+01 0. -1.
</event>
<event>
11    1  0.8453735E-009  0.1792322E+03  0.7561462E-02  0.1070266E+00
         22   -1    0    0    0    0  0.00000000000E+00  0.00000000000E+00  0.69371525550E+03  0.69371525550E+03  0.00000000000E+00 0.  1.
         22   -1    0    0    0    0 -0.00000000000E+00 -0.00000000000E+00 -0.21111906665E+04  0.21111906665E+04  0.00000000000E+00 0.  1.
        -24    2    1    2    0    0 -0.11845510259E+03  0.45040382715E+02 -0.16120795863E+04  0.16193852110E+04  0.86877049227E+02 0.  0.
         25    2    1    2    0    0  0.13160414494E+03 -0.36625581831E+02 -0.47579255947E+03  0.51057525908E+03  0.12508977310E+03 0.  0.
         24    2    1    2    0    0 -0.13149042356E+02 -0.84148008838E+01  0.67039673477E+03  0.67494545190E+03  0.76654255325E+02 0.  0.
        -11    1    5    5    0    0 -0.15781069385E+01  0.36693717054E+01  0.64181214354E+03  0.64182457284E+03  0.00000000000E+00 0.  1.
         12    1    5    5    0    0 -0.11570935418E+02 -0.12084172589E+02  0.28584591231E+02  0.33120879056E+02  0.00000000000E+00 0. -1.
         13    1    3    3    0    0 -0.84891258595E+02  0.32476800962E+02 -0.61683102165E+03  0.62349160191E+03  0.00000000000E+00 0. -1.
        -14    1    3    3    0    0 -0.33563843990E+02  0.12563581752E+02 -0.99524856466E+03  0.99589360911E+03  0.00000000000E+00 0.  1.
          5    1    4    4  501    0  0.11404257623E+03  0.22029156099E+02 -0.23618623126E+03  0.26323449840E+03  0.41800000000E+01 0. -1.
         -5    1    4    4    0  501  0.17561568708E+02 -0.58654737930E+02 -0.23960632821E+03  0.24734076068E+03  0.41800000000E+01 0. -1.
</event>
<event>
11    1  0.8453735E-009  0.1368415E+03  0.7561462E-02  0.1111138E+00
         22   -1    0    0    0    0  0.00000000000E+00  0.00000000000E+00  0.11943904027E+04  0.11943904027E+04  0.00000000000E+00 0.  1.
         22   -1    0    0    0    0 -0.00000000000E+00 -0.00000000000E+00 -0.15545990384E+03  0.15545990384E+03  0.00000000000E+00 0. -1.
         24    2    1    2    0    0 -0.21605245115E+02 -0.44577838723E+02 -0.40236389187E+02  0.10426216393E+03  0.82447932003E+02 0.  0.
         25    2    1    2    0    0  0.12628888353E+02  0.67227687366E+02 -0.19364164168E+02  0.14388599700E+03  0.12509659671E+03 0.  0.
        -24    2    1    2    0    0  0.89763567614E+01 -0.22649848643E+02  0.10985310522E+04  0.11017021456E+04  0.79897148506E+02 0.  0.
        -13    1    3    3    0    0 -0.11532037873E+02 -0.34374210653E+02  0.20639813864E+02  0.41720212989E+02  0.00000000000E+00 0.  1.
         14    1    3    3    0    0 -0.10073207242E+02 -0.10203628070E+02 -0.60876203052E+02  0.62541950944E+02  0.00000000000E+00 0. -1.
         13    1    5    5    0    0  0.20719526387E+02  0.14726349313E+02  0.13484339150E+03  0.13721845492E+03  0.00000000000E+00 0. -1.
        -14    1    5    5    0    0 -0.11743169626E+02 -0.37376197956E+02  0.96368766071E+03  0.96448369069E+03  0.00000000000E+00 0.  1.
          5    1    4    4  501    0  0.28607132344E+02  0.28119688609E+02  0.48969262868E+02  0.63439309693E+02  0.41800000000E+01 0. -1.
         -5    1    4    4    0  501 -0.15978243991E+02  0.39107998757E+02 -0.68333427036E+02  0.80446687305E+02  0.41800000000E+01 0. -1.
</event>
<event>
11    1  0.8453735E-009  0.3072923E+03  0.7561462E-02  0.9971513E-01
         22   -1    0    0    0    0  0.00000000000E+00  0.00000000000E+00  0.49128445255E+03  0.49128445255E+03  0.00000000000E+00 0. -1.
         22   -1    0    0    0    0 -0.00000000000E+00 -0.00000000000E+00 -0.18520451970E+03  0.18520451970E+03  0.00000000000E+00 0. -1.
        -24    2    1    2    0    0 -0.11167427429E+03 -0.49736636300E+02 -0.53186580859E+02  0.15573530647E+03  0.80497184846E+02 0.  0.
         25    2    1    2    0    0 -0.61895004898E+02 -0.26812664281E+02  0.52660776671E+02  0.15155743206E+03  0.12508631906E+03 0.  0.
         24    2    1    2    0    0  0.17356927919E+03  0.76549300581E+02  0.30660573704E+03  0.36919623372E+03  0.79452444337E+02 0.  0.
        -11    1    5    5    0    0  0.67697961555E+02  0.32287857261E+02  0.19582149472E+03  0.20969400926E+03  0.00000000000E+00 0.  1.
         12    1    5    5    0    0  0.10587131763E+03  0.44261443320E+02  0.11078424233E+03  0.15950222447E+03  0.00000000000E+00 0. -1.
         13    1    3    3    0    0 -0.75608235156E+02 -0.63260858389E+02 -0.11945077331E+02  0.99303707383E+02  0.00000000000E+00 0. -1.
        -14    1    3    3    0    0 -0.36066039134E+02  0.13524222088E+02 -0.41241503528E+02  0.56431599084E+02  0.00000000000E+00 0.  1.
          5    1    4    4  501    0  0.19563578544E+02  0.15233011341E+02 -0.21880805895E+02  0.33331971237E+02  0.41800000000E+01 0. -1.
         -5    1    4    4    0  501 -0.81458583442E+02 -0.42045675622E+02  0.74541582566E+02  0.11822546082E+03  0.41800000000E+01 0. -1.
</event>
<event>
11    1  0.8453735E-009  0.1789590E+03  0.7561462E-02  0.1070488E+00
         22   -1    0    0    0    0  0.00000000000E+00  0.00000000000E+00  0.74322185265E+03  0.74322185265E+03  0.00000000000E+00 0.  1.
         22   -1    0    0    0    0 -0.00000000000E+00 -0.00000000000E+00 -0.28958979926E+03  0.28958979926E+03  0.00000000000E+00 0. -1.
        -24    2    1    2    0    0 -0.11482893995E+03 -0.94548138305E+01 -0.96034965116E+02  0.17042679861E+03  0.80916625020E+02 0.  0.
         25    2    1    2    0    0  0.23449306569E+03  0.29337462489E+02 -0.25877517276E+02  0.26862888044E+03  0.12507655633E+03 0.  0.
         24    2    1    2    0    0 -0.11966412574E+03 -0.19882648659E+02  0.57554453578E+03  0.59375597286E+03  0.81116089224E+02 0.  0.
        -13    1    5    5    0    0 -0.65163704006E+02 -0.83185037231E+01  0.46847389050E+03  0.47305738753E+03  0.00000000000E+00 0.  1.
         14    1    5    5    0    0 -0.54500421739E+02 -0.11564144936E+02  0.10707064528E+03  0.12069858532E+03  0.00000000000E+00 0. -1.
         13    1    3    3    0    0 -0.11731298101E+03  0.98695206729E+01 -0.66990630545E+02  0.13545289784E+03  0.00000000000E+00 0. -1.
        -14    1    3    3    0    0  0.24840410683E+01 -0.19324334503E+02 -0.29044334571E+02  0.34973900764E+02  0.00000000000E+00 0.  1.
          5    1    4    4  501    0  0.12170703040E+03 -0.12593752578E+01 -0.73634562160E+02  0.14231552417E+03  0.41800000000E+01 0.  1.
         -5    1    4    4    0  501  0.11278603529E+03  0.30596837747E+02  0.47757044884E+02  0.12631335627E+03  0.41800000000E+01 0.  1.
</event>
<event>
11    1  0.8453735E-009  0.2655026E+03  0.7561462E-02  0.1015950E+00
         22   -1    0    0    0    0  0.00000000000E+00  0.00000000000E+00  0.12771878066E+03  0.12771878066E+03  0.00000000000E+00 0.  1.
         22   -1    0    0    0    0 -0.00000000000E+00 -0.00000000000E+00 -0.98284683338E+03  0.98284683338E+03  0.00000000000E+00 0.  1.
        -24    2    1    2    0    0 -0.50370718201E+01 -0.40626245035E+02 -0.29066117197E+03  0.30442456477E+03  0.80712668544E+02 0.  0.
         25    2    1    2    0    0 -0.55142087728E+02 -0.19697143086E+03 -0.47243661361E+03  0.52979501216E+03  0.12509199260E+03 0.  0.
         24    2    1    2    0    0  0.60179159548E+02  0.23759767590E+03 -0.92030267128E+02  0.27634603711E+03  0.88449846367E+02 0.  0.
        -13    1    5    5    0    0  0.35765442822E+02  0.21322260752E+03 -0.10388806764E+03  0.23986616655E+03  0.00000000000E+00 0.  1.
         14    1    5    5    0    0  0.24413716726E+02  0.24375068383E+02  0.11857800516E+02  0.36479870561E+02  0.00000000000E+00 0. -1.
         11    1    3    3    0    0  0.35208350269E+02 -0.30739487673E+02 -0.18780158650E+03  0.19353030751E+03  0.00000000000E+00 0. -1.
        -12    1    3    3    0    0 -0.40245422089E+02 -0.98867573618E+01 -0.10285958547E+03  0.11089425726E+03  0.00000000000E+00 0.  1.
          5    1    4    4  501    0 -0.99153374954E+01 -0.57864453013E+02 -0.29004627279E+03  0.29595763480E+03  0.41800000000E+01 0. -1.
         -5    1    4    4    0  501 -0.45226750233E+02 -0.13910697785E+03 -0.18239034083E+03  0.23383737736E+03  0.41800000000E+01 0. -1.
</event>
<event>
11    1  0.8453735E-009  0.1271917E+03  0.7561462E-02  0.1122768E+00
         22   -1    0    0    0    0  0.00000000000E+00  0.00000000000E+00  0.15434178313E+04  0.15434178313E+04  0.00000000000E+00 0. -1.
         22   -1    0    0    0    0 -0.00000000000E+00 -0.00000000000E+00 -0.48111746886E+03  0.48111746886E+03  0.00000000000E+00 0.  1.
         24    2    1    2    0    0  0.17984753764E+02 -0.48627912821E+01 -0.45217285095E+03  0.45823345281E+03  0.71906272532E+02 0.  0.
         25    2    1    2    0    0 -0.91395391714E+01  0.26283831061E+02  0.14221238783E+03  0.19142627236E+03  0.12508110787E+03 0.  0.
        -24    2    1    2    0    0 -0.88452145930E+01 -0.21421039779E+02  0.13722608256E+04  0.13748755750E+04  0.81522846861E+02 0.  0.
        -13    1    3    3    0    0  0.40153818774E+02  0.16072772390E+02 -0.29174160507E+03  0.29493020751E+03  0.00000000000E+00 0.  1.
         14    1    3    3    0    0 -0.22169065009E+02 -0.20935563672E+02 -0.16043124588E+03  0.16330324530E+03  0.00000000000E+00 0. -1.
         11    1    5    5    0    0 -0.16748586699E+02 -0.51237386531E+02  0.87692994553E+03  0.87858517761E+03  0.00000000000E+00 0. -1.
        -12    1    5    5    0    0  0.79033721059E+01  0.29816346751E+02  0.49533088004E+03  0.49629039739E+03  0.00000000000E+00 0.  1.
          5    1    4    4  501    0  0.10365248767E+02 -0.38104553095E+02  0.69710083782E+01  0.40317027500E+02  0.41800000000E+01 0. -1.
         -5    1    4    4    0  501 -0.19504787938E+02  0.64388384157E+02  0.13524137945E+03  0.15110924486E+03  0.41800000000E+01 0. -1.
</event>
<event>
11    1  0.8453735E-009  0.1825751E+03  0.7561462E-02  0.1067579E+00
         22   -1    0    0    0    0  0.00000000000E+00  0.00000000000E+00  0.67319806303E+03  0.67319806303E+03  0.00000000000E+00 0. -1.
         22   -1    0    0    0    0 -0.00000000000E+00 -0.00000000000E+00 -0.17338175575E+03  0.17338175575E+03  0.00000000000E+00 0.  1.
        -24    2    1    2    0    0  0.13672829856E+03  0.22394686768E+02 -0.89700625725E+02  0.18439492991E+03  0.82213978736E+02 0.  0.
         25    2    1    2    0    0 -0.79914861778E+02 -0.90190285769E+02  0.28818232430E+03  0.33647744569E+03  0.12508935461E+03 0.  0.
         24    2    1    2    0    0 -0.56813436780E+02  0.67795599001E+02  0.30133460870E+03  0.32570744318E+03  0.86364241998E+02 0.  0.
        -13    1    5    5    0    0 -0.54615288735E+02  0.62411855626E+02  0.12953583988E+03  0.15381028346E+03  0.00000000000E+00 0.  1.
         14    1    5    5    0    0 -0.21981480442E+01  0.53837433747E+01  0.17179876882E+03  0.17189715971E+03  0.00000000000E+00 0. -1.
         11    1    3    3    0    0  0.97466111434E+01  0.27695853901E+02 -0.93990298245E+00  0.29375843302E+02  0.00000000000E+00 0. -1.
        -12    1    3    3    0    0  0.12698168741E+03 -0.53011671324E+01 -0.88760722743E+02  0.15501908661E+03  0.00000000000E+00 0.  1.
          5    1    4    4  501    0  0.15152858969E+02 -0.68071673102E+02  0.16554516678E+03  0.17968315574E+03  0.41800000000E+01 0. -1.
         -5    1    4    4    0  501 -0.95067720747E+02 -0.22118612668E+02  0.12263715752E+03  0.15679428994E+03  0.41800000000E+01 0. -1.
</event>
<event>
11    1  0.8453735E-009  0.1427001E+03  0.7561462E-02  0.1104580E+00
         22   -1    0    0    0    0  0.00000000000E+00  0.00000000000E+00  0.24361004698E+03  0.24361004698E+03  0.00000000000E+00 0. -1.
         22   -1    0    0    0    0 -0.00000000000E+00 -0.00000000000E+00 -0.10636158222E+04  0.10636158222E+04  0.00000000000E+00 0. -1.
         24    2    1    2    0    0  0.11948861635E+02 -0.71509551632E+02 -0.68513341425E+03  0.69411941719E+03  0.84484192196E+02 0.  0.
         25    2    1    2    0    0  0.57620238389E+01  0.58837466165E+02 -0.35306232683E+03  0.37920422659E+03  0.12509112875E+03 0.  0.
        -24    2    1    2    0    0 -0.17710885474E+02  0.12672085468E+02  0.21818996589E+03  0.23390222537E+03  0.81419485409E+02 0.  0.
        -11    1    3    3    0    0  0.33416848834E+02 -0.16907556908E+02 -0.11430452770E+03  0.12028331688E+03  0.00000000000E+00 0.  1.
         12    1    3    3    0    0 -0.21467987199E+02 -0.54601994724E+02 -0.57082888655E+03  0.57383610031E+03  0.00000000000E+00 0. -1.
         13    1    5    5    0    0  0.27715773756E+02 -0.14428192793E+02  0.87607018605E+02  0.93012507605E+02  0.00000000000E+00 0. -1.
        -14    1    5    5    0    0 -0.45426659230E+02  0.27100278261E+02  0.13058294728E+03  0.14088971776E+03  0.00000000000E+00 0.  1.
          5    1    4    4  501    0  0.37848015214E+02  0.84999831577E+02 -0.28048297098E+03  0.29554291234E+03  0.41800000000E+01 0.  1.
         -5    1    4    4    0  501 -0.32085991375E+02 -0.26162365412E+02 -0.72579355849E+02  0.83661314249E+02  0.41800000000E+01 0.  1.
</event>
<event>
11    1  0.8453735E-009  0.1335349E+03  0.7561462E-02  0.1115000E+00
         22   -1    0    0    0    0  0.00000000000E+00  0.00000000000E+00  0.26051741436E+03  0.26051741436E+03  0.00000000000E+00 0. -1.
         22   -1    0    0    0    0 -0.00000000000E+00 -0.00000000000E+00 -0.36611796564E+03  0.36611796564E+03  0.00000000000E+00 0.  1.
         24    2    1    2    0    0 -0.21801237280E+01  0.19726428393E+02 -0.24869304102E+03  0.26221077756E+03  0.80699307939E+02 0.  0.
         25    2    1    2    0    0 -0.39399023984E+02  0.38933373173E+01 -0.57019304296E+02  0.14306198721E+03  0.12509232572E+03 0.  0.
        -24    2    1    2    0    0  0.41579147712E+02 -0.23619765710E+02  0.20011179404E+03  0.22136261524E+03  0.81669813608E+02 0.  0.
        -11    1    3    3    0    0  0.49119964435E+01 -0.13296914033E+02 -0.21148154340E+03  0.21195607760E+03  0.00000000000E+00 0.  1.
         12    1    3    3    0    0 -0.70921201715E+01  0.33023342425E+02 -0.37211497620E+02  0.50254699965E+02  0.00000000000E+00 0. -1.
         11    1    5    5    0    0  0.47566794149E+02  0.13410242466E+02  0.15502526832E+03  0.16271222549E+03  0.00000000000E+00 0. -1.
        -12    1    5    5    0    0 -0.59876464367E+01 -0.37030008176E+02  0.45086525720E+02  0.58650389742E+02  0.00000000000E+00 0.  1.
          5    1    4    4  501    0 -0.39588110010E+02 -0.43106784846E+02 -0.72621299455E+02  0.93363477273E+02  0.41800000000E+01 0.  1.
         -5    1    4    4    0  501  0.18908602613E+00  0.47000122163E+02  0.15601995159E+02  0.49698509936E+02  0.41800000000E+01 0.  1.
</event>
<event>
11    1  0.8453735E-009  0.1478866E+03  0.7561462E-02  0.1099058E+00
         22   -1    0    0    0    0  0.00000000000E+00  0.00000000000E+00  0.48718089514E+03  0.48718089514E+03  0.00000000000E+00 0.  1.
         22   -1    0    0    0    0 -0.00000000000E+00 -0.00000000000E+00 -0.41956890368E+03  0.41956890368E+03  0.00000000000E+00 0. -1.
         24    2    1    2    0    0 -0.37109328972E+02  0.68283831737E+02 -0.36061176983E+03  0.37693551038E+03  0.77458030396E+02 0.  0.
         25    2    1    2    0    0  0.45284243138E+02 -0.87820920733E+02  0.93753755596E+02  0.18493517744E+03  0.12509227143E+03 0.  0.
        -24    2    1    2    0    0 -0.81749141663E+01  0.19537088996E+02  0.33447000570E+03  0.34487911099E+03  0.81381136752E+02 0.  0.
        -11    1    3    3    0    0 -0.55376852855E+01  0.26703853154E+01  0.24692093069E+01  0.66252479694E+01  0.00000000000E+00 0.  1.
         12    1    3    3    0    0 -0.31571643687E+02  0.65613446422E+02 -0.36308097914E+03  0.37031026241E+03  0.00000000000E+00 0. -1.
         13    1    5    5    0    0  0.16847925069E+02 -0.57452481442E+00  0.11708342470E+02  0.20524812820E+02  0.00000000000E+00 0. -1.
        -14    1    5    5    0    0 -0.25022839235E+02  0.20111613810E+02  0.32276166323E+03  0.32435429817E+03  0.00000000000E+00 0.  1.
          5    1    4    4  501    0  0.10862621170E+02 -0.11446340228E+03  0.75098381152E+02  0.13739398186E+03  0.41800000000E+01 0. -1.
         -5    1    4    4    0  501  0.34421621968E+02  0.26642481542E+02  0.18655374444E+02  0.47541195581E+02  0.41800000000E+01 0. -1.
</event>
<event>
11    1  0.8453735E-009  0.1328484E+03  0.7561462E-02  0.1115818E+00
         22   -1    0    0    0    0  0.00000000000E+00  0.00000000000E+00  0.52817755876E+03  0.52817755876E+03  0.00000000000E+00 0.  1.
         22   -1    0    0    0    0 -0.00000000000E+00 -0.00000000000E+00 -0.27236371950E+03  0.27236371950E+03  0.00000000000E+00 0.  1.
        -24    2    1    2    0    0  0.34924144153E+02  0.12019417641E+02 -0.11981936805E+03  0.16626610864E+03  0.10919512662E+03 0.  0.
         25    2    1    2    0    0 -0.57667464699E+02 -0.70962720968E+01 -0.87638939950E+02  0.16341382802E+03  0.12509037465E+03 0.  0.
         24    2    1    2    0    0  0.22743320546E+02 -0.49231455439E+01  0.46327214726E+03  0.47086134160E+03  0.80918629496E+02 0.  0.
        -11    1    5    5    0    0  0.32205195548E+02 -0.84822350448E+01  0.45845522544E+03  0.45966326443E+03  0.00000000000E+00 0.  1.
         12    1    5    5    0    0 -0.94618750016E+01  0.35590895009E+01  0.48169218189E+01  0.11198077176E+02  0.00000000000E+00 0. -1.
         13    1    3    3    0    0 -0.70952487256E+01  0.54809229040E+02 -0.55440684344E+02  0.78281949534E+02  0.00000000000E+00 0. -1.
        -14    1    3    3    0    0  0.42019392879E+02 -0.42789811399E+02 -0.64378683705E+02  0.87984159103E+02  0.00000000000E+00 0.  1.
          5    1    4    4  501    0 -0.31264535699E+02  0.65104946568E+00 -0.11804788069E+03  0.12219111913E+03  0.41800000000E+01 0.  1.
         -5    1    4    4    0  501 -0.26402929000E+02 -0.77473215625E+01  0.30408940741E+02  0.41222708889E+02  0.41800000000E+01 0.  1.
</event>
<event>
11    1  0.8453735E-009  0.1428282E+03  0.7561462E-02  0.1104441E+00
         22   -1    0    0    0    0  0.00000000000E+00  0.00000000000E+00  0.11832540567E+04  0.11832540567E+04  0.00000000000E+00 0. -1.
         22   -1    0    0    0    0 -0.00000000000E+00 -0.00000000000E+00 -0.24801047098E+03  0.24801047098E+03  0.00000000000E+00 0. -1.
         24    2    1    2    0    0  0.63216469911E+02 -0.22530678800E+02 -0.18953641402E+03  0.21591660196E+03  0.78689092058E+02 0.  0.
         25    2    1    2    0    0 -0.79226496796E+02  0.38176471730E+02  0.90446504617E+02  0.17765779005E+03  0.12508972532E+03 0.  0.
        -24    2    1    2    0    0  0.16010026885E+02 -0.15645792930E+02  0.10343334951E+04  0.10376901357E+04  0.80336335132E+02 0.  0.
        -13    1    3    3    0    0 -0.82803559233E+01 -0.29517185771E+02 -0.44140788067E+02  0.53742327092E+02  0.00000000000E+00 0.  1.
         14    1    3    3    0    0  0.71496825834E+02  0.69865069712E+01 -0.14539562595E+03  0.16217427487E+03  0.00000000000E+00 0. -1.
         13    1    5    5    0    0  0.19701591905E+02  0.57541802309E+01  0.96074726259E+03  0.96096647490E+03  0.00000000000E+00 0. -1.
        -14    1    5    5    0    0 -0.36915650200E+01 -0.21399973161E+02  0.73586232544E+02  0.76723660780E+02  0.00000000000E+00 0.  1.
          5    1    4    4  501    0 -0.11271439141E+03  0.32848601053E+02  0.79228411053E+02  0.14169748812E+03  0.41800000000E+01 0. -1.
         -5    1    4    4    0  501  0.33487894615E+02  0.53278706772E+01  0.11218093564E+02  0.35960301930E+02  0.41800000000E+01 0. -1.
</event>
<event>
11    1  0.8453735E-009  0.1851612E+03  0.7561462E-02  0.1065543E+00
         22   -1    0    0    0    0  0.00000000000E+00  0.00000000000E+00  0.21049835680E+03  0.21049835680E+03  0.00000000000E+00 0. -1.
         22   -1    0    0    0    0 -0.00000000000E+00 -0.00000000000E+00 -0.50725899849E+03  0.50725899849E+03  0.00000000000E+00 0. -1.
         24    2    1    2    0    0  0.33494248328E+02  0.25197163846E+02 -0.30747673109E+03  0.32065407905E+03  0.80748600680E+02 0.  0.
         25    2    1    2    0    0 -0.11247034479E+03  0.86082463832E+02 -0.90634144876E+02  0.20957579969E+03  0.12509076129E+03 0.  0.
        -24    2    1    2    0    0  0.78976096459E+02 -0.11127962768E+03  0.10135023428E+03  0.18752747656E+03  0.79210511489E+02 0.  0.
        -11    1    3    3    0    0 -0.47487057799E+01 -0.14374251263E+02 -0.10030207046E+02  0.18159690508E+02  0.00000000000E+00 0.  1.
         12    1    3    3    0    0  0.38242954108E+02  0.39571415109E+02 -0.29744652404E+03  0.30249438854E+03  0.00000000000E+00 0. -1.
         13    1    5    5    0    0  0.90132587685E+02 -0.85602230262E+02  0.99935783961E+02  0.15949541092E+03  0.00000000000E+00 0. -1.
        -14    1    5    5    0    0 -0.11156491226E+02 -0.25677397416E+02  0.14144503147E+01  0.28032065643E+02  0.00000000000E+00 0.  1.
          5    1    4    4  501    0 -0.13041447282E+03  0.39914605053E+02 -0.81793480065E+02  0.15908725970E+03  0.41800000000E+01 0.  1.
         -5    1    4    4    0  501  0.17944128038E+02  0.46167858779E+02 -0.88406648113E+01  0.50488539983E+02  0.41800000000E+01 0.  1.
</event>
<event>
11    1  0.8453735E-009  0.1334259E+03  0.7561462E-02  0.1115130E+00
         22   -1    0    0    0    0  0.00000000000E+00  0.00000000000E+00  0.14262904931E+03  0.14262904931E+03  0.00000000000E+00 0.  1.
         22   -1    0    0    0    0 -0.00000000000E+00 -0.00000000000E+00 -0.22559242045E+04  0.22559242045E+04  0.00000000000E+00 0. -1.
        -24    2    1    2    0    0  0.23994952791E+02 -0.31999365261E+02 -0.14654479512E+04  0.14682675807E+04  0.81683987367E+02 0.  0.
         25    2    1    2    0    0 -0.35070793198E+02 -0.13625043927E+02 -0.76751612460E+03  0.77855165128E+03  0.12508425095E+03 0.  0.
         24    2    1    2    0    0  0.11075840407E+02  0.45624409187E+02  0.11966892057E+03  0.15173402185E+03  0.80612045508E+02 0.  0.
        -13    1    5    5    0    0 -0.58225987327E+01  0.32462889573E+02  0.12531563808E+03  0.12958298886E+03  0.00000000000E+00 0.  1.
         14    1    5    5    0    0  0.16898439139E+02  0.13161519615E+02 -0.56467175038E+01  0.22151032989E+02  0.00000000000E+00 0. -1.
         13    1    3    3    0    0  0.21697279984E+01 -0.25417455709E+02 -0.13660862761E+04  0.13663244375E+04  0.00000000000E+00 0. -1.
        -14    1    3    3    0    0  0.21825224793E+02 -0.65819095523E+01 -0.99361675079E+02  0.10194314320E+03  0.00000000000E+00 0.  1.
          5    1    4    4  501    0  0.35440798915E-01 -0.57307131197E+02 -0.19514747919E+03  0.20343087174E+03  0.41800000000E+01 0.  1.
         -5    1    4    4    0  501 -0.35106233997E+02  0.43682087270E+02 -0.57236864541E+03  0.57512077955E+03  0.41800000000E+01 0.  1.
</event>
<event>
11    1  0.8453735E-009  0.1354183E+03  0.7561462E-02  0.1112785E+00
         22   -1    0    0    0    0  0.00000000000E+00  0.00000000000E+00  0.29029466362E+03  0.29029466362E+03  0.00000000000E+00 0.  1.
         22   -1    0    0    0    0 -0.00000000000E+00 -0.00000000000E+00 -0.34367259496E+04  0.34367259496E+04  0.00000000000E+00 0. -1.
         24    2    1    2    0    0 -0.11118177592E+02  0.19015747745E+01 -0.16161779753E+04  0.16181232812E+04  0.78514174082E+02 0.  0.
         25    2    1    2    0    0 -0.18259404907E+02  0.40890469926E+02 -0.18087783080E+04  0.18136515849E+04  0.12509063785E+03 0.  0.
        -24    2    1    2    0    0  0.29377582500E+02 -0.42792044701E+02  0.27852499732E+03  0.29524574705E+03  0.83064285783E+02 0.  0.
        -13    1    3    3    0    0  0.63537139469E+01  0.19154285243E+02 -0.11586113776E+03  0.11760552524E+03  0.00000000000E+00 0.  1.
         14    1    3    3    0    0 -0.17471891539E+02 -0.17252710469E+02 -0.15003168375E+04  0.15005177560E+04  0.00000000000E+00 0. -1.
         13    1    5    5    0    0 -0.20195642460E+02  0.10521456445E+01  0.14302504367E+03  0.14444768639E+03  0.00000000000E+00 0. -1.
        -14    1    5    5    0    0  0.49573224959E+02 -0.43844190345E+02  0.13549995365E+03  0.15079806066E+03  0.00000000000E+00 0.  1.
          5    1    4    4  501    0 -0.19458606220E+01 -0.43927693924E+02 -0.77780440063E+03  0.77905749897E+03  0.41800000000E+01 0. -1.
         -5    1    4    4    0  501 -0.16313544285E+02  0.84818163850E+02 -0.10309739074E+04  0.10345940860E+04  0.41800000000E+01 0. -1.
</event>
<event>
11    1  0.8453735E-009  0.1473485E+03  0.7561462E-02  0.1099619E+00
         22   -1    0    0    0    0  0.00000000000E+00  0.00000000000E+00  0.13651068942E+03  0.13651068942E+03  0.00000000000E+00 0. -1.
         22   -1    0    0    0    0 -0.00000000000E+00 -0.00000000000E+00 -0.11761774518E+04  0.11761774518E+04  0.00000000000E+00 0. -1.
        -24    2    1    2    0    0  0.24866239745E+02  0.16343526926E+02 -0.81683857712E+03  0.82137767918E+03  0.80935715425E+02 0.  0.
         25    2    1    2    0    0 -0.26221064900E+02 -0.92874511564E+02 -0.31041115344E+03  0.34830496074E+03  0.12509213547E+03 0.  0.
         24    2    1    2    0    0  0.13548251544E+01  0.76530984639E+02  0.87582968178E+02  0.14300550131E+03  0.83192367005E+02 0.  0.
        -11    1    5    5    0    0 -0.22187686642E+02  0.18770672858E+02 -0.68253341730E+01  0.29853254172E+02  0.00000000000E+00 0.  1.
         12    1    5    5    0    0  0.23542511796E+02  0.57760311781E+02  0.94408302351E+02  0.11315224713E+03  0.00000000000E+00 0. -1.
         11    1    3    3    0    0  0.31976149385E+02  0.30093974060E+02 -0.78226983288E+03  0.78350125261E+03  0.00000000000E+00 0. -1.
        -12    1    3    3    0    0 -0.71099096398E+01 -0.13750447134E+02 -0.34568744237E+02  0.37876426568E+02  0.00000000000E+00 0.  1.
          5    1    4    4  501    0 -0.33640715567E+02 -0.12034728953E+03 -0.27888544373E+03  0.30563005573E+03  0.41800000000E+01 0. -1.
         -5    1    4    4    0  501  0.74196506676E+01  0.27472777967E+02 -0.31525709713E+02  0.42674905016E+02  0.41800000000E+01 0. -1.
</event>
<event>
11    1  0.8453735E-009  0.1268732E+03  0.7561462E-02  0.1123172E+00
         22   -1    0    0    0    0  0.00000000000E+00  0.00000000000E+00  0.28345492626E+04  0.28345492626E+04  0.00000000000E+00 0. -1.
         22   -1    0    0    0    0 -0.00000000000E+00 -0.00000000000E+00 -0.36612124506E+02  0.36612124506E+02  0.00000000000E+00 0. -1.
        -24    2    1    2    0    0  0.12466709248E+02 -0.19588560340E+02  0.53374986283E+02  0.10647654670E+03  0.89158484177E+02 0.  0.
         25    2    1    2    0    0 -0.18390077795E+02 -0.45372282551E+00  0.41972258287E+03  0.43835197837E+03  0.12508800717E+03 0.  0.
         24    2    1    2    0    0  0.59233685474E+01  0.20042283166E+02  0.23248395690E+04  0.23263328621E+04  0.80677036998E+02 0.  0.
        -11    1    5    5    0    0  0.49151113504E+01  0.26480773881E+02  0.24381214600E+03  0.24529523486E+03  0.00000000000E+00 0.  1.
         12    1    5    5    0    0  0.10082571970E+01 -0.64384907150E+01  0.20810274230E+04  0.20810376272E+04  0.00000000000E+00 0. -1.
         13    1    3    3    0    0 -0.11279035982E+02 -0.30238310573E+02  0.68962714647E+02  0.76140843773E+02  0.00000000000E+00 0. -1.
        -14    1    3    3    0    0  0.23745745230E+02  0.10649750233E+02 -0.15587728363E+02  0.30335702927E+02  0.00000000000E+00 0.  1.
          5    1    4    4  501    0 -0.20866616807E+01  0.51152950626E+02  0.85446991957E+02  0.99697739940E+02  0.41800000000E+01 0.  1.
         -5    1    4    4    0  501 -0.16303416115E+02 -0.51606673451E+02  0.33427559092E+03  0.33865423843E+03  0.41800000000E+01 0.  1.
</event>
<event>
11    1  0.8453735E-009  0.1257643E+03  0.7561462E-02  0.1124586E+00
         22   -1    0    0    0    0  0.00000000000E+00  0.00000000000E+00  0.18132929023E+03  0.18132929023E+03  0.00000000000E+00 0. -1.
         22   -1    0    0    0    0 -0.00000000000E+00 -0.00000000000E+00 -0.92462774733E+03  0.92462774733E+03  0.00000000000E+00 0.  1.
         24    2    1    2    0    0 -0.11995063622E+02 -0.48701441107E+01 -0.85936572649E+03  0.86341126837E+03  0.82474036075E+02 0.  0.
         25    2    1    2    0    0  0.60895448726E+01  0.33060063563E+02  0.53699133785E+02  0.14021281532E+03  0.12508391684E+03 0.  0.
        -24    2    1    2    0    0  0.59055187497E+01 -0.28189919452E+02  0.62368135608E+02  0.10233295386E+03  0.75846571422E+02 0.  0.
        -13    1    3    3    0    0  0.18075478686E+01  0.18269498799E+02 -0.76639950969E+03  0.76661936466E+03  0.00000000000E+00 0.  1.
         14    1    3    3    0    0 -0.13802611491E+02 -0.23139642910E+02 -0.92966216802E+02  0.96791903713E+02  0.00000000000E+00 0. -1.
         11    1    5    5    0    0  0.34225856712E+02 -0.31844770023E+02  0.56230307676E+02  0.73125550575E+02  0.00000000000E+00 0. -1.
        -12    1    5    5    0    0 -0.28320337963E+02  0.36548505712E+01  0.61378279313E+01  0.29207403286E+02  0.00000000000E+00 0.  1.
          5    1    4    4  501    0 -0.50110968349E+01 -0.46016086188E+02  0.53807890373E+01  0.46786927343E+02  0.41800000000E+01 0.  1.
         -5    1    4    4    0  501  0.11100641708E+02  0.79076149751E+02  0.48318344748E+02  0.93425887980E+02  0.41800000000E+01 0.  1.
</event>
<event>
11    1  0.8453735E-009  0.1529354E+03  0.7561462E-02  0.1093917E+00
         22   -1    0    0    0    0  0.00000000000E+00  0.00000000000E+00  0.26561754181E+04  0.26561754181E+04  0.00000000000E+00 0.  1.
         22   -1    0    0    0    0 -0.00000000000E+00 -0.00000000000E+00 -0.56581737182E+02  0.56581737182E+02  0.00000000000E+00 0.  1.
         24    2    1    2    0    0 -0.29057269805E+02 -0.79545618754E+02  0.21978706977E+02  0.11261477249E+03  0.70902701149E+02 0.  0.
         25    2    1    2    0    0 -0.34892726866E+01  0.14475407587E+03  0.96535240904E+03  0.98413343522E+03  0.12508967647E+03 0.  0.
        -24    2    1    2    0    0  0.32546542491E+02 -0.65208457111E+02  0.16122625649E+04  0.16160089476E+04  0.82358485788E+02 0.  0.
        -11    1    3    3    0    0 -0.36456512634E+02 -0.86772117355E+02  0.69562410199E+01  0.94376199080E+02  0.00000000000E+00 0.  1.
         12    1    3    3    0    0  0.73992428290E+01  0.72264986005E+01  0.15022465957E+02  0.18238573406E+02  0.00000000000E+00 0. -1.
         13    1    5    5    0    0 -0.23725367724E+02  0.35905640307E-01  0.37575981406E+03  0.37650807724E+03  0.00000000000E+00 0. -1.
        -14    1    5    5    0    0  0.56271910216E+02 -0.65244362751E+02  0.12365027509E+04  0.12395008704E+04  0.00000000000E+00 0.  1.
          5    1    4    4  501    0 -0.31544479010E+02  0.63799080325E+01  0.63769465057E+02  0.71552599227E+02  0.41800000000E+01 0. -1.
         -5    1    4    4    0  501  0.28055206323E+02  0.13837416783E+03  0.90158294399E+03  0.91258083599E+03  0.41800000000E+01 0. -1.
</event>
<event>
11    1  0.8453735E-009  0.2494554E+03  0.7561462E-02  0.1024190E+00
         22   -1    0    0    0    0  0.00000000000E+00  0.00000000000E+00  0.16299766050E+04  0.16299766050E+04  0.00000000000E+00 0.  1.
         22   -1    0    0    0    0 -0.00000000000E+00 -0.00000000000E+00 -0.23844362244E+04  0.23844362244E+04  0.00000000000E+00 0. -1.
        -24    2    1    2    0    0 -0.14772780604E+00 -0.21514724818E+03 -0.21172790516E+04  0.21297560925E+04  0.81866177207E+02 0.  0.
         25    2    1    2    0    0 -0.12895900132E+02  0.22262164594E+03 -0.19691958407E+03  0.32272588830E+03  0.12509186589E+03 0.  0.
         24    2    1    2    0    0  0.13043627938E+02 -0.74743977542E+01  0.15597390162E+04  0.15619308486E+04  0.81339868634E+02 0.  0.
        -13    1    5    5    0    0  0.11983933268E+02 -0.19312019795E+02  0.15258312508E+04  0.15260005159E+04  0.00000000000E+00 0.  1.
         14    1    5    5    0    0  0.10596946704E+01  0.11837622041E+02  0.33907765440E+02  0.35930332666E+02  0.00000000000E+00 0. -1.
         11    1    3    3    0    0 -0.20085288418E+02 -0.15667284982E+03 -0.17691813645E+04  0.17762185961E+04  0.00000000000E+00 0. -1.
        -12    1    3    3    0    0  0.19937560612E+02 -0.58474398365E+02 -0.34809768709E+03  0.35353749638E+03  0.00000000000E+00 0.  1.
          5    1    4    4  501    0  0.52081135020E+02  0.79358193159E+02 -0.99841029422E+02  0.13782550926E+03  0.41800000000E+01 0.  1.
         -5    1    4    4    0  501 -0.64977035152E+02  0.14326345278E+03 -0.97078554643E+02  0.18490037904E+03  0.41800000000E+01 0.  1.
</event>
<event>
11    1  0.8453735E-009  0.1348570E+03  0.7561462E-02  0.1113441E+00
         22   -1    0    0    0    0  0.00000000000E+00  0.00000000000E+00  0.18631952851E+03  0.18631952851E+03  0.00000000000E+00 0. -1.
         22   -1    0    0    0    0 -0.00000000000E+00 -0.00000000000E+00 -0.90970126941E+03  0.90970126941E+03  0.00000000000E+00 0.  1.
        -24    2    1    2    0    0 -0.14935981682E+02  0.16896827972E+02 -0.38000276057E+03  0.38903349490E+03  0.80227026407E+02 0.  0.
         25    2    1    2    0    0  0.28957970273E+02  0.31834670225E+02 -0.50223460412E+03  0.51936489805E+03  0.12509312325E+03 0.  0.
         24    2    1    2    0    0 -0.14021988591E+02 -0.48731498197E+02  0.15885562379E+03  0.18762240496E+03  0.85998154361E+02 0.  0.
        -11    1    5    5    0    0  0.13772325533E+02 -0.12416159167E+02 -0.35685596369E+01  0.18883129426E+02  0.00000000000E+00 0.  1.
         12    1    5    5    0    0 -0.27794314124E+02 -0.36315339030E+02  0.16242418343E+03  0.16873927554E+03  0.00000000000E+00 0. -1.
         11    1    3    3    0    0  0.24548746142E+02 -0.17131031003E+02 -0.10748926822E+03  0.11157981871E+03  0.00000000000E+00 0. -1.
        -12    1    3    3    0    0 -0.39484727824E+02  0.34027858975E+02 -0.27251349235E+03  0.27745367619E+03  0.00000000000E+00 0.  1.
          5    1    4    4  501    0  0.26370027694E+02  0.10368504970E+02 -0.16346991548E+02  0.32978489786E+02  0.41800000000E+01 0.  1.
         -5    1    4    4    0  501  0.25879425795E+01  0.21466165255E+02 -0.48588761257E+03  0.48638640827E+03  0.41800000000E+01 0.  1.
</event>
<event>
11    1  0.8453735E-009  0.1833064E+03  0.7561462E-02  0.1066999E+00
         22   -1    0    0    0    0  0.00000000000E+00  0.00000000000E+00  0.55654237254E+03  0.55654237254E+03  0.00000000000E+00 0.  1.
         22   -1    0    0    0    0 -0.00000000000E+00 -0.00000000000E+00 -0.12551537804E+03  0.12551537804E+03  0.00000000000E+00 0. -1.
         24    2    1    2    0    0 -0.28225103300E+02  0.10381461058E+01 -0.21629071123E+02  0.88655400067E+02  0.81204858474E+02 0.  0.
         25    2    1    2    0    0  0.15436152427E+03 -0.18595046725E+02  0.13129161000E+03  0.23887845603E+03  0.12510864862E+03 0.  0.
        -24    2    1    2    0    0 -0.12613642097E+03  0.17556900619E+02  0.32136445562E+03  0.35452389449E+03  0.78698392428E+02 0.  0.
        -13    1    3    3    0    0 -0.12400568051E+02 -0.29623838844E+02  0.17428907147E+02  0.36539194301E+02  0.00000000000E+00 0.  1.
         14    1    3    3    0    0 -0.15824535249E+02  0.30661984950E+02 -0.39057978270E+02  0.52116205766E+02  0.00000000000E+00 0. -1.
         11    1    5    5    0    0 -0.48867257299E+01  0.27261621897E+02  0.69842380214E+02  0.75133442559E+02  0.00000000000E+00 0. -1.
        -12    1    5    5    0    0 -0.12124969524E+03 -0.97047212785E+01  0.25152207541E+03  0.27939045193E+03  0.00000000000E+00 0.  1.
          5    1    4    4  501    0 -0.19067788142E+02 -0.14917279613E+02  0.26663113434E+02  0.36256031135E+02  0.41800000000E+01 0.  1.
         -5    1    4    4    0  501  0.17342931242E+03 -0.36777671114E+01  0.10462849656E+03  0.20262242489E+03  0.41800000000E+01 0.  1.
</event>
<event>
11    1  0.8453735E-009  0.1816534E+03  0.7561462E-02  0.1068313E+00
         22   -1    0    0    0    0  0.00000000000E+00  0.00000000000E+00  0.15983685925E+03  0.15983685925E+03  0.00000000000E+00 0.  1.
         22   -1    0    0    0    0 -0.00000000000E+00 -0.00000000000E+00 -0.35436887139E+04  0.35436887139E+04  0.00000000000E+00 0. -1.
        -24    2    1    2    0    0  0.18079617603E+02 -0.46248249859E+02 -0.21696297076E+04  0.21716307259E+04  0.78874382189E+02 0.  0.
         25    2    1    2    0    0  0.81698018373E+02  0.13148213426E+03 -0.13237027260E+04  0.13385797471E+04  0.12507883418E+03 0.  0.
         24    2    1    2    0    0 -0.99777635977E+02 -0.85233884404E+02  0.10948057894E+03  0.19331510018E+03  0.90356732459E+02 0.  0.
        -13    1    5    5    0    0 -0.11600857235E+03 -0.82485416975E+02  0.93066886300E+02  0.17006845150E+03  0.00000000000E+00 0.  1.
         14    1    5    5    0    0  0.16230936368E+02 -0.27484674285E+01  0.16413692637E+02  0.23246648674E+02  0.00000000000E+00 0. -1.
         13    1    3    3    0    0  0.16623986887E+02  0.32170544674E+00 -0.16037267480E+04  0.16038129388E+04  0.00000000000E+00 0. -1.
        -14    1    3    3    0    0  0.14556307163E+01 -0.46569955305E+02 -0.56590295965E+03  0.56781778710E+03  0.00000000000E+00 0.  1.
          5    1    4    4  501    0  0.78415480271E+02  0.12352277899E+03 -0.13203506167E+04  0.13284389666E+04  0.41800000000E+01 0.  1.
         -5    1    4    4    0  501  0.32825381019E+01  0.79593552676E+01 -0.33521092329E+01  0.10140780491E+02  0.41800000000E+01 0.  1.
</event>
<event>
11    1  0.8453735E-009  0.1524558E+03  0.7561462E-02  0.1094396E+00
         22   -1    0    0    0    0  0.00000000000E+00  0.00000000000E+00  0.14576634403E+04  0.14576634403E+04  0.00000000000E+00 0. -1.
         22   -1    0    0    0    0 -0.00000000000E+00 -0.00000000000E+00 -0.97579315151E+03  0.97579315151E+03  0.00000000000E+00 0. -1.
        -24    2    1    2    0    0  0.18664158403E+02  0.46715964392E+02 -0.93213654818E+03  0.93680637347E+03  0.78720421590E+02 0.  0.
         25    2    1    2    0    0  0.49158514379E+02  0.12976525718E+02  0.80470202436E+02  0.15718896614E+03  0.12509183762E+03 0.  0.
         24    2    1    2    0    0 -0.67822672782E+02 -0.59692490109E+02  0.13335366345E+04  0.13394612522E+04  0.87597843656E+02 0.  0.
        -11    1    5    5    0    0 -0.33274321449E+02 -0.77627955993E+02  0.78050907140E+03  0.78506540528E+03  0.00000000000E+00 0.  1.
         12    1    5    5    0    0 -0.34548351333E+02  0.17935465883E+02  0.55302756314E+03  0.55439584694E+03  0.00000000000E+00 0. -1.
         13    1    3    3    0    0  0.41780123204E+01  0.29168886537E+02 -0.87217525000E+03  0.87267287481E+03  0.00000000000E+00 0. -1.
        -14    1    3    3    0    0  0.14486146083E+02  0.17547077855E+02 -0.59961298187E+02  0.64133498656E+02  0.00000000000E+00 0.  1.
          5    1    4    4  501    0  0.53635671373E+02 -0.38566133093E+02  0.81848565356E+02  0.10526534053E+03  0.41800000000E+01 0.  1.
         -5    1    4    4    0  501 -0.44771569949E+01  0.51542658811E+02 -0.13783629200E+01  0.51923625609E+02  0.41800000000E+01 0.  1.
</event>
<event>
11    1  0.8453735E-009  0.1641799E+03  0.7561462E-02  0.1083210E+00
         22   -1    0    0    0    0  0.00000000000E+00  0.00000000000E+00  0.72537375715E+03  0.72537375715E+03  0.00000000000E+00 0. -1.
         22   -1    0    0    0    0 -0.00000000000E+00 -0.00000000000E+00 -0.90064321911E+03  0.90064321911E+03  0.00000000000E+00 0. -1.
         24    2    1    2    0    0  0.92558976968E+02  0.51536291912E+02 -0.86176039753E+03  0.87186485355E+03  0.79335909353E+02 0.  0.
         25    2    1    2    0    0 -0.11994374292E+03 -0.47010731901E+02  0.24379866693E+03  0.30279100560E+03  0.12509233669E+03 0.  0.
        -24    2    1    2    0    0  0.27384765952E+02 -0.45255600107E+01  0.44269226864E+03  0.45136111710E+03  0.83546437519E+02 0.  0.
        -11    1    3    3    0    0  0.27430093517E+02 -0.19874018043E+02 -0.29293370917E+03  0.29488564663E+03  0.00000000000E+00 0.  1.
         12    1    3    3    0    0  0.65128883451E+02  0.71410309955E+02 -0.56882668836E+03  0.57697920692E+03  0.00000000000E+00 0. -1.
         13    1    5    5    0    0  0.11431346940E+02 -0.17766020095E+02  0.42035414819E+03  0.42088468380E+03  0.00000000000E+00 0. -1.
        -14    1    5    5    0    0  0.15953419012E+02  0.13240460085E+02  0.22338120451E+02  0.30476433300E+02  0.00000000000E+00 0.  1.
          5    1    4    4  501    0 -0.13055260436E+03 -0.68174410162E+02  0.23464052974E+03  0.27706566605E+03  0.41800000000E+01 0.  1.
         -5    1    4    4    0  501  0.10608861437E+02  0.21163678261E+02  0.91581371843E+01  0.25725339555E+02  0.41800000000E+01 0.  1.
</event>
<event>
11    1  0.8453735E-009  0.2360335E+04  0.7561462E-02  0.7933465E-01
         22   -1    0    0    0    0  0.00000000000E+00  0.00000000000E+00  0.69920115136E+03  0.69920115136E+03  0.00000000000E+00 0.  1.
         22   -1    0    0    0    0 -0.00000000000E+00 -0.00000000000E+00 -0.19919801839E+04  0.19919801839E+04  0.00000000000E+00 0.  1.
        -24    2    1    2    0    0  0.49320313079E+03 -0.82831354682E+03 -0.11196048955E+04  0.14796434852E+04  0.80480191330E+02 0.  0.
         25    2    1    2    0    0 -0.46268540077E+03  0.93253120190E+03 -0.90580530996E+02  0.10523996593E+04  0.12509191664E+03 0.  0.
         24    2    1    2    0    0 -0.30517730024E+02 -0.10421765509E+03 -0.82593606065E+02  0.15913819083E+03  0.81918304057E+02 0.  0.
        -13    1    5    5    0    0 -0.58644573071E+02 -0.71249698390E+02 -0.61872057918E+02  0.11110291185E+03  0.00000000000E+00 0.  1.
         14    1    5    5    0    0  0.28126843047E+02 -0.32967956697E+02 -0.20721548146E+02  0.48035278975E+02  0.00000000000E+00 0. -1.
         11    1    3    3    0    0  0.19417650965E+03 -0.40242514832E+03 -0.50309923913E+03  0.67287395649E+03  0.00000000000E+00 0. -1.
        -12    1    3    3    0    0  0.29902662114E+03 -0.42588839849E+03 -0.61650565636E+03  0.80676952870E+03  0.00000000000E+00 0.  1.
          5    1    4    4  501    0  0.70974197985E+01  0.17227925485E+02  0.29648945462E+01  0.19324538390E+02  0.41800000000E+01 0.  1.
         -5    1    4    4    0  501 -0.46978282057E+03  0.91530327642E+03 -0.93545425542E+02  0.10330751209E+04  0.41800000000E+01 0.  1.
</event>
<event>
11    1  0.8453735E-009  0.2247095E+03  0.7561462E-02  0.1038307E+00
         22   -1    0    0    0    0  0.00000000000E+00  0.00000000000E+00  0.49317371437E+03  0.49317371437E+03  0.00000000000E+00 0.  1.
         22   -1    0    0    0    0 -0.00000000000E+00 -0.00000000000E+00 -0.26078521313E+03  0.26078521313E+03  0.00000000000E+00 0. -1.
         24    2    1    2    0    0 -0.10174604346E+03 -0.16388394391E+03 -0.15746416559E+03  0.25770512333E+03  0.66383452114E+02 0.  0.
         25    2    1    2    0    0  0.11898504787E+03  0.10661020657E+03  0.22211143913E+03  0.30083812796E+03  0.12508760963E+03 0.  0.
        -24    2    1    2    0    0 -0.17239004404E+02  0.57273737347E+02  0.16774122770E+03  0.19541567621E+03  0.80453109171E+02 0.  0.
        -13    1    3    3    0    0  0.65371608778E+01 -0.13902138804E+02 -0.95252478335E+00  0.15391921229E+02  0.00000000000E+00 0.  1.
         14    1    3    3    0    0 -0.10828320434E+03 -0.14998180511E+03 -0.15651164081E+03  0.24231320210E+03  0.00000000000E+00 0. -1.
         11    1    5    5    0    0 -0.39241031294E+02  0.43051891756E+01  0.94311256021E+02  0.10223994426E+03  0.00000000000E+00 0. -1.
        -12    1    5    5    0    0  0.22002026889E+02  0.52968548172E+02  0.73429971676E+02  0.93175731943E+02  0.00000000000E+00 0.  1.
          5    1    4    4  501    0  0.65453526272E+02  0.35155798283E+02  0.19297973238E+03  0.20683022933E+03  0.41800000000E+01 0.  1.
         -5    1    4    4    0  501  0.53531521594E+02  0.71454408283E+02  0.29131706750E+02  0.94007898632E+02  0.41800000000E+01 0.  1.
</event>
<event>
11    1  0.8453735E-009  0.1403335E+03  0.7561462E-02  0.1107187E+00
         22   -1    0    0    0    0  0.00000000000E+00  0.00000000000E+00  0.10955893821E+04  0.10955893821E+04  0.00000000000E+00 0. -1.
         22   -1    0    0    0    0 -0.00000000000E+00 -0.00000000000E+00 -0.24515193893E+03  0.24515193893E+03  0.00000000000E+00 0.  1.
         24    2    1    2    0    0  0.81873217485E+01  0.61232048985E+02 -0.17004481033E+03  0.19768483736E+03  0.79672211836E+02 0.  0.
         25    2    1    2    0    0  0.17017104916E+02 -0.78218364161E+02  0.33371910663E+02  0.15220639758E+03  0.12508160813E+03 0.  0.
        -24    2    1    2    0    0 -0.25204426665E+02  0.16986315176E+02  0.98711034286E+03  0.99085008611E+03  0.80456610270E+02 0.  0.
        -11    1    3    3    0    0 -0.10434294742E+02  0.35358629462E+02 -0.16010298995E+03  0.16429264918E+03  0.00000000000E+00 0.  1.
         12    1    3    3    0    0  0.18621616491E+02  0.25873419522E+02 -0.99418203831E+01  0.33392188174E+02  0.00000000000E+00 0. -1.
         13    1    5    5    0    0 -0.32906235802E+02  0.23518562053E+02  0.97096090265E+03  0.97180297262E+03  0.00000000000E+00 0. -1.
        -14    1    5    5    0    0  0.77018091373E+01 -0.65322468766E+01  0.16149440209E+02  0.19047113490E+02  0.00000000000E+00 0.  1.
          5    1    4    4  501    0  0.57592802783E+02 -0.45636295544E+02 -0.21291386481E+02  0.76618522184E+02  0.41800000000E+01 0.  1.
         -5    1    4    4    0  501 -0.40575697867E+02 -0.32582068616E+02  0.54663297143E+02  0.75587875399E+02  0.41800000000E+01 0.  1.
</event>
<event>
11    1  0.8453735E-009  0.1623236E+03  0.7561462E-02  0.1084912E+00
         22   -1    0    0    0    0  0.00000000000E+00  0.00000000000E+00  0.10233024910E+04  0.10233024910E+04  0.00000000000E+00 0.  1.
         22   -1    0    0    0    0 -0.00000000000E+00 -0.00000000000E+00 -0.24127722409E+03  0.24127722409E+03  0.00000000000E+00 0. -1.
        -24    2    1    2    0    0 -0.23348200700E+02 -0.69071733584E+01 -0.21173929992E+03  0.22751756237E+03  0.79610693607E+02 0.  0.
         25    2    1    2    0    0 -0.82077060934E+02 -0.35124679086E+02  0.45154822073E+03  0.47697445262E+03  0.12505377161E+03 0.  0.
         24    2    1    2    0    0  0.10542526163E+03  0.42031852445E+02  0.54221634606E+03  0.56008770007E+03  0.82574229811E+02 0.  0.
        -13    1    5    5    0    0  0.85491065176E+02  0.26713915620E+02  0.51618700218E+03  0.52390015913E+03  0.00000000000E+00 0.  1.
         14    1    5    5    0    0  0.19934196458E+02  0.15317936825E+02  0.26029343877E+02  0.36187540945E+02  0.00000000000E+00 0. -1.
         13    1    3    3    0    0 -0.34028024021E+02 -0.27553525712E+01 -0.21324510859E+03  0.21596058604E+03  0.00000000000E+00 0. -1.
        -14    1    3    3    0    0  0.10679823322E+02 -0.41518207872E+01  0.15058086717E+01  0.11556976325E+02  0.00000000000E+00 0.  1.
          5    1    4    4  501    0 -0.77334353028E+02 -0.66208537765E+02  0.21066290058E+03  0.23400962098E+03  0.41800000000E+01 0.  1.
         -5    1    4    4    0  501 -0.47427079064E+01  0.31083858679E+02  0.24088532015E+03  0.24296483164E+03  0.41800000000E+01 0.  1.
</event>
<event>
11    1  0.8453735E-009  0.1727805E+03  0.7561462E-02  0.1075637E+00
         22   -1    0    0    0    0  0.00000000000E+00  0.00000000000E+00  0.59294656455E+03  0.59294656455E+03  0.00000000000E+00 0.  1.
         22   -1    0    0    0    0 -0.00000000000E+00 -0.00000000000E+00 -0.27800586652E+03  0.27800586652E+03  0.00000000000E+00 0.  1.
        -24    2    1    2    0    0  0.88506766409E+02 -0.81344169571E+02 -0.16603008304E+03  0.21994456283E+03  0.79745223167E+02 0.  0.
         25    2    1    2    0    0 -0.11594356042E+03  0.41466749329E+02  0.16244395050E+02  0.17627741779E+03  0.12508975638E+03 0.  0.
         24    2    1    2    0    0  0.27436794008E+02  0.39877420241E+02  0.46472638603E+03  0.47473045045E+03  0.83996430929E+02 0.  0.
        -13    1    5    5    0    0  0.28343354064E+02  0.33574262053E+02  0.46614097722E+03  0.46820720567E+03  0.00000000000E+00 0.  1.
         14    1    5    5    0    0 -0.90656005627E+00  0.63031581882E+01 -0.14145911980E+01  0.65232447860E+01  0.00000000000E+00 0. -1.
         13    1    3    3    0    0 -0.96493896983E+01 -0.30699926608E+02 -0.52299644358E+02  0.61407239111E+02  0.00000000000E+00 0. -1.
        -14    1    3    3    0    0  0.98156156108E+02 -0.50644242963E+02 -0.11373043869E+03  0.15853732372E+03  0.00000000000E+00 0.  1.
          5    1    4    4  501    0 -0.14305999424E+03  0.34772012025E+02  0.13864445878E+02  0.14793562800E+03  0.41800000000E+01 0. -1.
         -5    1    4    4    0  501  0.27116433820E+02  0.66947373036E+01  0.23799491721E+01  0.28341789794E+02  0.41800000000E+01 0. -1.
</event>
<event>
11    1  0.8453735E-009  0.1549787E+03  0.7561462E-02  0.1091897E+00
         22   -1    0    0    0    0  0.00000000000E+00  0.00000000000E+00  0.73854333862E+03  0.73854333862E+03  0.00000000000E+00 0. -1.
         22   -1    0    0    0    0 -0.00000000000E+00 -0.00000000000E+00 -0.15500924228E+04  0.15500924228E+04  0.00000000000E+00 0. -1.
         24    2    1    2    0    0 -0.24105268281E+02 -0.87638243863E+02 -0.13393951922E+04  0.13448839238E+04  0.80447260849E+02 0.  0.
         25    2    1    2    0    0  0.17191599354E+02  0.97093376171E+02 -0.17526436615E+03  0.23682872078E+03  0.12509024807E+03 0.  0.
        -24    2    1    2    0    0  0.69136689270E+01 -0.94551323085E+01  0.70311047418E+03  0.70692311685E+03  0.72379250380E+02 0.  0.
        -13    1    3    3    0    0 -0.26656379050E+02 -0.13712806769E+01 -0.57743760021E+03  0.57805417142E+03  0.00000000000E+00 0.  1.
         14    1    3    3    0    0  0.25511107696E+01 -0.86266963186E+02 -0.76195759202E+03  0.76682975238E+03  0.00000000000E+00 0. -1.
         13    1    5    5    0    0 -0.11679475428E+02 -0.25865166556E+02  0.60705552223E+03  0.60771854016E+03  0.00000000000E+00 0. -1.
        -14    1    5    5    0    0  0.18593144355E+02  0.16410034248E+02  0.96054951959E+02  0.99204576693E+02  0.00000000000E+00 0.  1.
          5    1    4    4  501    0  0.43446509250E+02  0.84291711540E+02 -0.48344485704E+02  0.10652395739E+03  0.41800000000E+01 0.  1.
         -5    1    4    4    0  501 -0.26254909896E+02  0.12801664631E+02 -0.12691988044E+03  0.13030476339E+03  0.41800000000E+01 0.  1.
</event>
<event>
11    1  0.8453735E-009  0.1362502E+03  0.7561462E-02  0.1111819E+00
         22   -1    0    0    0    0  0.00000000000E+00  0.00000000000E+00  0.27934026061E+03  0.27934026061E+03  0.00000000000E+00 0.  1.
         22   -1    0    0    0    0 -0.00000000000E+00 -0.00000000000E+00 -0.25614761447E+04  0.25614761447E+04  0.00000000000E+00 0.  1.
         24    2    1    2    0    0 -0.56769261395E+02  0.29974044875E+01 -0.20424917936E+04  0.20448949715E+04  0.81184874558E+02 0.  0.
         25    2    1    2    0    0  0.34789218851E+02  0.16556372152E+02 -0.50289694425E+03  0.51965014783E+03  0.12508611593E+03 0.  0.
        -24    2    1    2    0    0  0.21980042544E+02 -0.19553776639E+02  0.26325285375E+03  0.27627128604E+03  0.78474747732E+02 0.  0.
        -13    1    3    3    0    0  0.11261415623E+01 -0.11088838766E+02 -0.12898976657E+04  0.12899458200E+04  0.00000000000E+00 0.  1.
         14    1    3    3    0    0 -0.57895402957E+02  0.14086243254E+02 -0.75259412792E+03  0.75494915147E+03  0.00000000000E+00 0. -1.
         13    1    5    5    0    0 -0.17089398977E+02  0.89882545078E+01  0.17112273758E+03  0.17220867456E+03  0.00000000000E+00 0. -1.
        -14    1    5    5    0    0  0.39069441521E+02 -0.28542031147E+02  0.92130116170E+02  0.10406261148E+03  0.00000000000E+00 0.  1.
          5    1    4    4  501    0  0.67972149577E+02  0.20260293344E+02 -0.15951041293E+03  0.17461883300E+03  0.41800000000E+01 0. -1.
         -5    1    4    4    0  501 -0.33182930726E+02 -0.37039211921E+01 -0.34338653132E+03  0.34503131484E+03  0.41800000000E+01 0. -1.
</event>
<event>
11    1  0.8453735E-009  0.1303064E+03  0.7561462E-02  0.1118893E+00
         22   -1    0    0    0    0  0.00000000000E+00  0.00000000000E+00  0.10254817850E+03  0.10254817850E+03  0.00000000000E+00 0. -1.
         22   -1    0    0    0    0 -0.00000000000E+00 -0.00000000000E+00 -0.10344756324E+04  0.10344756324E+04  0.00000000000E+00 0.  1.
        -24    2    1    2    0    0  0.35087661307E+02 -0.13191368066E+02 -0.87660877030E+03  0.88103717968E+03  0.79865008918E+02 0.  0.
         25    2    1    2    0    0 -0.23796622710E+02  0.10860062717E+01 -0.99791225292E+02  0.16178149256E+03  0.12508998372E+03 0.  0.
         24    2    1    2    0    0 -0.11291038597E+02  0.12105361794E+02  0.44472541714E+02  0.94205138630E+02  0.81380426645E+02 0.  0.
        -13    1    5    5    0    0 -0.92245704532E+01 -0.25855605411E+02 -0.87379295344E+01  0.28808964642E+02  0.00000000000E+00 0.  1.
         14    1    5    5    0    0 -0.20664681440E+01  0.37960967205E+02  0.53210471248E+02  0.65396173987E+02  0.00000000000E+00 0. -1.
         13    1    3    3    0    0 -0.94390079832E+01 -0.29981593120E+02 -0.17381911701E+03  0.17663826380E+03  0.00000000000E+00 0. -1.
        -14    1    3    3    0    0  0.44526669291E+02  0.16790225054E+02 -0.70278965328E+03  0.70439891588E+03  0.00000000000E+00 0.  1.
          5    1    4    4  501    0  0.18248518521E+02  0.16291777629E+02  0.21254336868E+02  0.32674909062E+02  0.41800000000E+01 0. -1.
         -5    1    4    4    0  501 -0.42045141231E+02 -0.15205771358E+02 -0.12104556216E+03  0.12910658350E+03  0.41800000000E+01 0. -1.
</event>
<event>
11    1  0.8453735E-009  0.2136516E+03  0.7561462E-02  0.1045269E+00
         22   -1    0    0    0    0  0.00000000000E+00  0.00000000000E+00  0.31643891108E+03  0.31643891108E+03  0.00000000000E+00 0. -1.
         22   -1    0    0    0    0 -0.00000000000E+00 -0.00000000000E+00 -0.73647954875E+03  0.73647954875E+03  0.00000000000E+00 0. -1.
         24    2    1    2    0    0  0.66914829613E+01  0.56588909774E+02 -0.56711297811E+03  0.57564362824E+03  0.80631111477E+02 0.  0.
         25    2    1    2    0    0 -0.66189141375E+02 -0.20400770059E+03  0.33135364594E+01  0.24831232501E+03  0.12509151406E+03 0.  0.
        -24    2    1    2    0    0  0.59497658414E+02  0.14741879082E+03  0.14375880398E+03  0.22896250657E+03  0.80529276977E+02 0.  0.
        -11    1    3    3    0    0  0.39798560671E+02  0.36507020515E+02 -0.22711879095E+03  0.23345156496E+03  0.00000000000E+00 0.  1.
         12    1    3    3    0    0 -0.33107077709E+02  0.20081889259E+02 -0.33999418716E+03  0.34219206329E+03  0.00000000000E+00 0. -1.
         13    1    5    5    0    0  0.76943920541E+02  0.10577880706E+03  0.12191197201E+03  0.17880730368E+03  0.00000000000E+00 0. -1.
        -14    1    5    5    0    0 -0.17446262128E+02  0.41639983762E+02  0.21846831977E+02  0.50155202894E+02  0.00000000000E+00 0.  1.
          5    1    4    4  501    0  0.15131144422E+02 -0.12263583339E+02  0.32339267528E+02  0.37982201518E+02  0.41800000000E+01 0.  1.
         -5    1    4    4    0  501 -0.81320285797E+02 -0.19174411725E+03 -0.29025731069E+02  0.21033012349E+03  0.41800000000E+01 0.  1.
</event>
<event>
11    1  0.8453735E-009  0.1314834E+03  0.7561462E-02  0.1117460E+00
         22   -1    0    0    0    0  0.00000000000E+00  0.00000000000E+00  0.86010436472E+03  0.86010436472E+03  0.00000000000E+00 0.  1.
         22   -1    0    0    0    0 -0.00000000000E+00 -0.00000000000E+00 -0.98518734731E+03  0.98518734731E+03  0.00000000000E+00 0. -1.
        -24    2    1    2    0    0  0.46608383980E+02  0.11021605217E+01 -0.52525161328E+03  0.53347467516E+03  0.80823360293E+02 0.  0.
         25    2    1    2    0    0 -0.26050649141E+02 -0.13180555813E+02 -0.44469240895E+03  0.46287299660E+03  0.12509080317E+03 0.  0.
         24    2    1    2    0    0 -0.20557734839E+02  0.12078395291E+02  0.84486103964E+03  0.84894404026E+03  0.79669938525E+02 0.  0.
        -13    1    5    5    0    0  0.66516820202E+01  0.16784323738E+02  0.74815710762E+03  0.74837491679E+03  0.00000000000E+00 0.  1.
         14    1    5    5    0    0 -0.27209416860E+02 -0.47059284473E+01  0.96703932011E+02  0.10056912347E+03  0.00000000000E+00 0. -1.
         13    1    3    3    0    0 -0.77853913972E+01  0.29449082734E+02 -0.22219439071E+03  0.22427261994E+03  0.00000000000E+00 0. -1.
        -14    1    3    3    0    0  0.54393775377E+02 -0.28346922213E+02 -0.30305722257E+03  0.30920205522E+03  0.00000000000E+00 0.  1.
          5    1    4    4  501    0 -0.36904073958E+02 -0.58468026397E+02 -0.35531913825E+03  0.36200771151E+03  0.41800000000E+01 0.  1.
         -5    1    4    4    0  501  0.10853424818E+02  0.45287470584E+02 -0.89373270697E+02  0.10086528510E+03  0.41800000000E+01 0.  1.
</event>
<event>
11    1  0.8453735E-009  0.1286685E+03  0.7561462E-02  0.1120916E+00
         22   -1    0    0    0    0  0.00000000000E+00  0.00000000000E+00  0.49209531773E+03  0.49209531773E+03  0.00000000000E+00 0. -1.
         22   -1    0    0    0    0 -0.00000000000E+00 -0.00000000000E+00 -0.19282002729E+04  0.19282002729E+04  0.00000000000E+00 0. -1.
         24    2    1    2    0    0 -0.35462696833E+02 -0.20035082092E+02 -0.18558361676E+04  0.18579702139E+04  0.79160768654E+02 0.  0.
         25    2    1    2    0    0  0.58627223433E+02  0.33956298649E+02  0.10964796456E+02  0.14268168115E+03  0.12509058249E+03 0.  0.
        -24    2    1    2    0    0 -0.23164526600E+02 -0.13921216557E+02  0.40876641595E+03  0.41964369562E+03  0.90996993926E+02 0.  0.
        -13    1    3    3    0    0  0.43635575766E+01  0.20061295264E+02 -0.10290659174E+04  0.10292706925E+04  0.00000000000E+00 0.  1.
         14    1    3    3    0    0 -0.39826254409E+02 -0.40096377355E+02 -0.82677025024E+03  0.82869952136E+03  0.00000000000E+00 0. -1.
         11    1    5    5    0    0 -0.24895473325E+02 -0.39714855610E+02  0.37056176792E+03  0.37351449529E+03  0.00000000000E+00 0. -1.
        -12    1    5    5    0    0  0.17309467243E+01  0.25793639053E+02  0.38204648033E+02  0.46129200334E+02  0.00000000000E+00 0.  1.
          5    1    4    4  501    0  0.85140127112E+02  0.31432797480E+02 -0.28205423918E+02  0.95130859034E+02  0.41800000000E+01 0.  1.
         -5    1    4    4    0  501 -0.26512903679E+02  0.25235011688E+01  0.39170220374E+02  0.47550822115E+02  0.41800000000E+01 0.  1.
</event>
<event>
11    1  0.1117867E-008  0.1989033E+03  0.7561462E-02  0.1055302E+00
         22   -1    0    0    0    0  0.00000000000E+00  0.00000000000E+00  0.59244451494E+03  0.59244451494E+03  0.00000000000E+00 0.  1.
         22   -1    0    0    0    0 -0.00000000000E+00 -0.00000000000E+00 -0.74058696091E+03  0.74058696091E+03  0.00000000000E+00 0. -1.
         24    2    1    2    0    0 -0.10877570373E+03  0.61227293099E+02 -0.55718134043E+03  0.58010273970E+03  0.10240706687E+03 0.  0.
         25    2    1    2    0    0  0.23337143334E+03  0.20998885401E+02 -0.44191009810E+02  0.26926476353E+03  0.12508992143E+03 0.  0.
        -24    2    1    2    0    0 -0.12459572961E+03 -0.82226178500E+02  0.45322990427E+03  0.48366397262E+03  0.78919275288E+02 0.  0.
        -11    1    3    3    0    0  0.23592252953E+01 -0.15815922577E+02 -0.17364654318E+02  0.23605943543E+02  0.00000000000E+00 0.  1.
         12    1    3    3    0    0 -0.11113492902E+03  0.77043215676E+02 -0.53981668611E+03  0.55649679616E+03  0.00000000000E+00 0. -1.
         13    1    5    5    0    0 -0.28952381461E+01 -0.32709103530E+02  0.52296820418E+02  0.61751318071E+02  0.00000000000E+00 0. -1.
        -14    1    5    5    0    0 -0.12170049146E+03 -0.49517074970E+02  0.40093308385E+03  0.42191265455E+03  0.00000000000E+00 0.  1.
          5    1    4    4  501    0  0.16136234624E+03  0.56466431944E+02 -0.70093333391E+02  0.18481561760E+03  0.41800000000E+01 0. -1.
         -5    1    4    4    0  501  0.72009087096E+02 -0.35467546543E+02  0.25902323581E+02  0.84449145935E+02  0.41800000000E+01 0. -1.
</event>
<event>
11    1  0.8453735E-009  0.1529125E+03  0.7561462E-02  0.1093939E+00
         22   -1    0    0    0    0  0.00000000000E+00  0.00000000000E+00  0.60053638366E+02  0.60053638366E+02  0.00000000000E+00 0.  1.
         22   -1    0    0    0    0 -0.00000000000E+00 -0.00000000000E+00 -0.12666039642E+04  0.12666039642E+04  0.00000000000E+00 0. -1.
        -24    2    1    2    0    0 -0.93189017218E+02  0.27023462562E+02 -0.80668446509E+03  0.81652392879E+03  0.80975549390E+02 0.  0.
         25    2    1    2    0    0  0.63961144118E+02 -0.17027025180E+02 -0.41316458899E+03  0.43673165028E+03  0.12509440120E+03 0.  0.
         24    2    1    2    0    0  0.29227873100E+02 -0.99964373827E+01  0.13298728251E+02  0.73402023505E+02  0.65244184072E+02 0.  0.
        -13    1    5    5    0    0  0.22295181476E+02 -0.35941970210E+02 -0.22764071663E+01  0.42356609510E+02  0.00000000000E+00 0.  1.
         14    1    5    5    0    0  0.69326916245E+01  0.25945532827E+02  0.15575135418E+02  0.31045413995E+02  0.00000000000E+00 0. -1.
         13    1    3    3    0    0 -0.82626877807E+02  0.32911686917E+02 -0.79412188001E+03  0.79908694169E+03  0.00000000000E+00 0. -1.
        -14    1    3    3    0    0 -0.10562139411E+02 -0.58882243549E+01 -0.12562585086E+02  0.17436987097E+02  0.00000000000E+00 0.  1.
          5    1    4    4  501    0 -0.76961507568E+01 -0.57651030252E+02 -0.14958133740E+03  0.16054569731E+03  0.41800000000E+01 0. -1.
         -5    1    4    4    0  501  0.71657294875E+02  0.40624005072E+02 -0.26358325159E+03  0.27618595297E+03  0.41800000000E+01 0. -1.
</event>
<event>
11    1  0.8453735E-009  0.1494170E+03  0.7561462E-02  0.1097476E+00
         22   -1    0    0    0    0  0.00000000000E+00  0.00000000000E+00  0.19735053881E+04  0.19735053881E+04  0.00000000000E+00 0. -1.
         22   -1    0    0    0    0 -0.00000000000E+00 -0.00000000000E+00 -0.18698719388E+04  0.18698719388E+04  0.00000000000E+00 0. -1.
         24    2    1    2    0    0  0.16702744466E+02 -0.26032759151E+02 -0.18393228837E+04  0.18413833916E+04  0.81409078224E+02 0.  0.
         25    2    1    2    0    0  0.18786249847E+01  0.10407204575E+03  0.21339948931E+03  0.26836947999E+03  0.12509322849E+03 0.  0.
        -24    2    1    2    0    0 -0.18581369450E+02 -0.78039286599E+02  0.17295568437E+04  0.17336244554E+04  0.87472734301E+02 0.  0.
        -11    1    3    3    0    0 -0.14816116165E+02  0.47773735373E+01 -0.79564626634E+02  0.81073241008E+02  0.00000000000E+00 0.  1.
         12    1    3    3    0    0  0.31518860631E+02 -0.30810132688E+02 -0.17597582571E+04  0.17603101505E+04  0.00000000000E+00 0. -1.
         11    1    5    5    0    0 -0.45806216782E+01 -0.95644101706E+02  0.13378397353E+04  0.13412620675E+04  0.00000000000E+00 0. -1.
        -12    1    5    5    0    0 -0.14000747772E+02  0.17604815106E+02  0.39171710835E+03  0.39236238788E+03  0.00000000000E+00 0.  1.
          5    1    4    4  501    0  0.27748827125E+02  0.12375520741E+03  0.18839224470E+03  0.22714413712E+03  0.41800000000E+01 0.  1.
         -5    1    4    4    0  501 -0.25870202140E+02 -0.19683161656E+02  0.25007244608E+02  0.41225342866E+02  0.41800000000E+01 0.  1.
</event>
<event>
11    1  0.8453735E-009  0.1388641E+03  0.7561462E-02  0.1108834E+00
         22   -1    0    0    0    0  0.00000000000E+00  0.00000000000E+00  0.85349680658E+03  0.85349680658E+03  0.00000000000E+00 0. -1.
         22   -1    0    0    0    0 -0.00000000000E+00 -0.00000000000E+00 -0.26913429588E+03  0.26913429588E+03  0.00000000000E+00 0.  1.
        -24    2    1    2    0    0 -0.57938554088E+02 -0.18941466868E+02 -0.21143242974E+03  0.23518188494E+03  0.83013200408E+02 0.  0.
         25    2    1    2    0    0  0.40976536235E+02  0.46131536405E+02  0.69009288702E+02  0.15561848224E+03  0.12509050689E+03 0.  0.
         24    2    1    2    0    0  0.16962017854E+02 -0.27190069537E+02  0.72678565173E+03  0.73183073528E+03  0.79572806942E+02 0.  0.
        -13    1    5    5    0    0  0.36583087451E+02 -0.86118942070E+01  0.15818421518E+03  0.16258761620E+03  0.00000000000E+00 0.  1.
         14    1    5    5    0    0 -0.19621069597E+02 -0.18578175330E+02  0.56860143656E+03  0.56924311908E+03  0.00000000000E+00 0. -1.
         13    1    3    3    0    0 -0.37782077609E+02  0.25840141608E+02 -0.14826921748E+03  0.15517396418E+03  0.00000000000E+00 0. -1.
        -14    1    3    3    0    0 -0.20156476479E+02 -0.44781608475E+02 -0.63163212254E+02  0.80007920757E+02  0.00000000000E+00 0.  1.
          5    1    4    4  501    0  0.78661911139E+02  0.56724707701E+02  0.63178738918E+02  0.11582061206E+03  0.41800000000E+01 0. -1.
         -5    1    4    4    0  501 -0.37685374904E+02 -0.10593171297E+02  0.58305497836E+01  0.39797870176E+02  0.41800000000E+01 0. -1.
</event>
<event>
11    1  0.8453735E-009  0.2245206E+03  0.7561462E-02  0.1038422E+00
         22   -1    0    0    0    0  0.00000000000E+00  0.00000000000E+00  0.10063225847E+04  0.10063225847E+04  0.00000000000E+00 0. -1.
         22   -1    0    0    0    0 -0.00000000000E+00 -0.00000000000E+00 -0.50298416832E+03  0.50298416832E+03  0.00000000000E+00 0.  1.
        -24    2    1    2    0    0  0.78612594623E+00 -0.41394704944E+02 -0.44678849420E+03  0.45592353743E+03  0.80821864876E+02 0.  0.
         25    2    1    2    0    0 -0.18370474987E+03  0.63283142902E+02  0.34062904591E+03  0.41161623555E+03  0.12509031600E+03 0.  0.
         24    2    1    2    0    0  0.18291862392E+03 -0.21888437958E+02  0.60949786471E+03  0.64176698007E+03  0.80242650313E+02 0.  0.
        -13    1    5    5    0    0 -0.56499281048E+01 -0.50669613354E+01  0.61971144359E+02  0.62434113415E+02  0.00000000000E+00 0.  1.
         14    1    5    5    0    0  0.18856855202E+03 -0.16821476623E+02  0.54752672035E+03  0.57933286666E+03  0.00000000000E+00 0. -1.
         11    1    3    3    0    0 -0.11121762365E+02 -0.50084221318E+02 -0.14559957888E+03  0.15437409172E+03  0.00000000000E+00 0. -1.
        -12    1    3    3    0    0  0.11907888311E+02  0.86895163742E+01 -0.30118891532E+03  0.30154944571E+03  0.00000000000E+00 0.  1.
          5    1    4    4  501    0 -0.66474562965E+02  0.78205420100E+02  0.21944310773E+03  0.24229672962E+03  0.41800000000E+01 0. -1.
         -5    1    4    4    0  501 -0.11723018690E+03 -0.14922277198E+02  0.12118593818E+03  0.16931950594E+03  0.41800000000E+01 0. -1.
</event>
<event>
11    1  0.8453735E-009  0.1583992E+03  0.7561462E-02  0.1088593E+00
         22   -1    0    0    0    0  0.00000000000E+00  0.00000000000E+00  0.44081727952E+03  0.44081727952E+03  0.00000000000E+00 0. -1.
         22   -1    0    0    0    0 -0.00000000000E+00 -0.00000000000E+00 -0.19118109617E+04  0.19118109617E+04  0.00000000000E+00 0. -1.
         24    2    1    2    0    0 -0.53398746971E+02 -0.77554506154E+02 -0.15576908663E+04  0.15626000655E+04  0.80324354819E+02 0.  0.
         25    2    1    2    0    0  0.17026157802E+02  0.14335245143E+03 -0.31792845465E+03  0.37089846380E+03  0.12508937924E+03 0.  0.
        -24    2    1    2    0    0  0.36372589169E+02 -0.65797945277E+02  0.40462563881E+03  0.41912971193E+03  0.79344016791E+02 0.  0.
        -13    1    3    3    0    0 -0.23255011428E+02  0.12764383042E+02 -0.47067088707E+03  0.47141787086E+03  0.00000000000E+00 0.  1.
         14    1    3    3    0    0 -0.30143735543E+02 -0.90318889196E+02 -0.10870199792E+04  0.10911821946E+04  0.00000000000E+00 0. -1.
         13    1    5    5    0    0  0.16258516943E+02 -0.81849561603E+02  0.31747224481E+03  0.32825647950E+03  0.00000000000E+00 0. -1.
        -14    1    5    5    0    0  0.20114072225E+02  0.16051616326E+02  0.87153393995E+02  0.90873232434E+02  0.00000000000E+00 0.  1.
          5    1    4    4  501    0  0.70299921482E+02  0.84366741918E+02 -0.20709120512E+03  0.23444416337E+03  0.41800000000E+01 0. -1.
         -5    1    4    4    0  501 -0.53273763679E+02  0.58985709512E+02 -0.11083724953E+03  0.13645430043E+03  0.41800000000E+01 0. -1.
</event>
<event>
11    1  0.8453735E-009  0.1620701E+03  0.7561462E-02  0.1085146E+00
         22   -1    0    0    0    0  0.00000000000E+00  0.00000000000E+00  0.33663657780E+02  0.33663657780E+02  0.00000000000E+00 0. -1.
         22   -1    0    0    0    0 -0.00000000000E+00 -0.00000000000E+00 -0.16673919885E+04  0.16673919885E+04  0.00000000000E+00 0.  1.
         24    2    1    2    0    0 -0.88904323508E+02 -0.62225272594E+02 -0.11783900035E+04  0.11861037228E+04  0.80393268659E+02 0.  0.
         25    2    1    2    0    0  0.48434325301E+02  0.58485112599E+02 -0.23613002280E+03  0.27779670063E+03  0.12508887620E+03 0.  0.
        -24    2    1    2    0    0  0.40469998207E+02  0.37401599951E+01 -0.21920830443E+03  0.23715522284E+03  0.80861050199E+02 0.  0.
        -11    1    3    3    0    0 -0.52771829263E+02 -0.33903768812E+02 -0.99780059974E+03  0.99977015776E+03  0.00000000000E+00 0.  1.
         12    1    3    3    0    0 -0.36132494245E+02 -0.28321503782E+02 -0.18058940372E+03  0.18633356502E+03  0.00000000000E+00 0. -1.
         13    1    5    5    0    0  0.16863638381E+02  0.38499972933E+02 -0.65651795812E+02  0.77953758785E+02  0.00000000000E+00 0. -1.
        -14    1    5    5    0    0  0.23606359825E+02 -0.34759812938E+02 -0.15355650861E+03  0.15920146406E+03  0.00000000000E+00 0.  1.
          5    1    4    4  501    0 -0.20814303552E+02 -0.74634876466E+01 -0.14121612868E+03  0.14299792404E+03  0.41800000000E+01 0.  1.
         -5    1    4    4    0  501  0.69248628854E+02  0.65948600246E+02 -0.94913894118E+02  0.13479877659E+03  0.41800000000E+01 0.  1.
</event>
<event>
11    1  0.8453735E-009  0.1472934E+03  0.7561462E-02  0.1099677E+00
         22   -1    0    0    0    0  0.00000000000E+00  0.00000000000E+00  0.10986050847E+04  0.10986050847E+04  0.00000000000E+00 0.  1.
         22   -1    0    0    0    0 -0.00000000000E+00 -0.00000000000E+00 -0.63804606881E+02  0.63804606881E+02  0.00000000000E+00 0. -1.
         24    2    1    2    0    0  0.72916508945E+02 -0.37742087152E+02  0.19292818478E+02  0.11929998448E+03  0.84374113526E+02 0.  0.
         25    2    1    2    0    0 -0.36571722466E+02  0.38448233190E+02  0.42638392551E+03  0.44751149683E+03  0.12509008890E+03 0.  0.
        -24    2    1    2    0    0 -0.36344786479E+02 -0.70614603832E+00  0.58912373386E+03  0.59559821031E+03  0.79680688813E+02 0.  0.
        -13    1    3    3    0    0 -0.40065788977E+01  0.19546804728E+02  0.11598909786E+02  0.23079535476E+02  0.00000000000E+00 0.  1.
         14    1    3    3    0    0  0.76923087842E+02 -0.57288891880E+02  0.76939086913E+01  0.96220449006E+02  0.00000000000E+00 0. -1.
         13    1    5    5    0    0 -0.50554532570E+02 -0.25973160189E+02  0.44260277708E+03  0.44623713885E+03  0.00000000000E+00 0. -1.
        -14    1    5    5    0    0  0.14209746091E+02  0.25267014150E+02  0.14652095678E+03  0.14936107145E+03  0.00000000000E+00 0.  1.
          5    1    4    4  501    0 -0.20559260749E+02 -0.25171920305E+02  0.26174453892E+02  0.41939041607E+02  0.41800000000E+01 0.  1.
         -5    1    4    4    0  501 -0.16012461717E+02  0.63620153495E+02  0.40020947162E+03  0.40557245522E+03  0.41800000000E+01 0.  1.
</event>
<event>
11    1  0.1002373E-008  0.2167766E+03  0.7561462E-02  0.1043256E+00
         22   -1    0    0    0    0  0.00000000000E+00  0.00000000000E+00  0.68186448117E+03  0.68186448117E+03  0.00000000000E+00 0.  1.
         22   -1    0    0    0    0 -0.00000000000E+00 -0.00000000000E+00 -0.30411900221E+03  0.30411900221E+03  0.00000000000E+00 0. -1.
        -24    2    1    2    0    0  0.15744686191E+02  0.37878982862E+02 -0.96973577139E+02  0.12918927142E+03  0.74855064638E+02 0.  0.
         25    2    1    2    0    0 -0.19139529025E+03 -0.40324878314E+02 -0.98270300564E+02  0.25211624002E+03  0.12508914250E+03 0.  0.
         24    2    1    2    0    0  0.17565060405E+03  0.24458954516E+01  0.57298935666E+03  0.60467797194E+03  0.80371200012E+02 0.  0.
        -11    1    5    5    0    0  0.12375591952E+03 -0.92192373419E+01  0.49470927468E+03  0.51003704611E+03  0.00000000000E+00 0.  1.
         12    1    5    5    0    0  0.51894684537E+02  0.11665132793E+02  0.78280081983E+02  0.94640925827E+02  0.00000000000E+00 0. -1.
         13    1    3    3    0    0  0.36819991355E+02  0.49003903902E+02 -0.73982271001E+02  0.96075339102E+02  0.00000000000E+00 0. -1.
        -14    1    3    3    0    0 -0.21075305164E+02 -0.11124921040E+02 -0.22991306137E+02  0.33113932322E+02  0.00000000000E+00 0.  1.
          5    1    4    4  501    0  0.11136676864E+02 -0.78903633032E+00 -0.33867761907E+02  0.35904677223E+02  0.41800000000E+01 0.  1.
         -5    1    4    4    0  501 -0.20253196711E+03 -0.39535841983E+02 -0.64402538657E+02  0.21621156280E+03  0.41800000000E+01 0.  1.
</event>
<event>
11    1  0.8453735E-009  0.1922928E+03  0.7561462E-02  0.1060112E+00
         22   -1    0    0    0    0  0.00000000000E+00  0.00000000000E+00  0.14401758433E+04  0.14401758433E+04  0.00000000000E+00 0. -1.
         22   -1    0    0    0    0 -0.00000000000E+00 -0.00000000000E+00 -0.20055257746E+03  0.20055257746E+03  0.00000000000E+00 0. -1.
        -24    2    1    2    0    0  0.98291325031E+02  0.10463178103E+03 -0.14019987146E+03  0.21617768401E+03  0.80422589676E+02 0.  0.
         25    2    1    2    0    0 -0.14251138249E+03 -0.12729794689E+03  0.65833322530E+03  0.69682433768E+03  0.12508901085E+03 0.  0.
         24    2    1    2    0    0  0.44220057460E+02  0.22666165865E+02  0.72148991198E+03  0.72772639903E+03  0.81048443520E+02 0.  0.
        -13    1    5    5    0    0 -0.20452697997E+02 -0.42258753650E+01  0.91408068443E+02  0.93763563576E+02  0.00000000000E+00 0.  1.
         14    1    5    5    0    0  0.64672755457E+02  0.26892041230E+02  0.63008184354E+03  0.63396283545E+03  0.00000000000E+00 0. -1.
         13    1    3    3    0    0  0.96747805469E+02  0.10434246341E+03 -0.95319067585E+02  0.17126941402E+03  0.00000000000E+00 0. -1.
        -14    1    3    3    0    0  0.15435195627E+01  0.28931762029E+00 -0.44880803878E+02  0.44908269996E+02  0.00000000000E+00 0.  1.
          5    1    4    4  501    0  0.13626409208E+02 -0.29367074588E+02  0.40195769527E+02  0.51781042725E+02  0.41800000000E+01 0. -1.
         -5    1    4    4    0  501 -0.15613779170E+03 -0.97930872303E+02  0.61813745577E+03  0.64504329496E+03  0.41800000000E+01 0. -1.
</event>
<event>
11    1  0.8453735E-009  0.1260938E+03  0.7561462E-02  0.1124164E+00
         22   -1    0    0    0    0  0.00000000000E+00  0.00000000000E+00  0.17711000350E+03  0.17711000350E+03  0.00000000000E+00 0. -1.
         22   -1    0    0    0    0 -0.00000000000E+00 -0.00000000000E+00 -0.73329653255E+03  0.73329653255E+03  0.00000000000E+00 0.  1.
        -24    2    1    2    0    0 -0.32358791898E+02 -0.21666647288E+02 -0.63153722715E+03  0.63686213871E+03  0.72371122875E+02 0.  0.
         25    2    1    2    0    0  0.42954427995E+02  0.14133033737E+02 -0.32919455828E+02  0.13702971500E+03  0.12509447108E+03 0.  0.
         24    2    1    2    0    0 -0.10595636096E+02  0.75336135510E+01  0.10827015393E+03  0.13651468234E+03  0.82126788706E+02 0.  0.
        -13    1    5    5    0    0 -0.35276010525E+02 -0.17032609785E+02  0.25563343106E+02  0.46775968460E+02  0.00000000000E+00 0.  1.
         14    1    5    5    0    0  0.24680374429E+02  0.24566223336E+02  0.82706810827E+02  0.89738713876E+02  0.00000000000E+00 0. -1.
         13    1    3    3    0    0 -0.31691447947E+02  0.48375436217E+01 -0.10809093541E+03  0.11274484476E+03  0.00000000000E+00 0. -1.
        -14    1    3    3    0    0 -0.66734395166E+00 -0.26504190910E+02 -0.52344629174E+03  0.52411729395E+03  0.00000000000E+00 0.  1.
          5    1    4    4  501    0 -0.14082296055E+02  0.25802723247E+02 -0.64254100020E+02  0.70782436794E+02  0.41800000000E+01 0. -1.
         -5    1    4    4    0  501  0.57036724049E+02 -0.11669689510E+02  0.31334644192E+02  0.66247278209E+02  0.41800000000E+01 0. -1.
</event>
<event>
11    1  0.8453735E-009  0.1354182E+03  0.7561462E-02  0.1112785E+00
         22   -1    0    0    0    0  0.00000000000E+00  0.00000000000E+00  0.32017205089E+03  0.32017205089E+03  0.00000000000E+00 0. -1.
         22   -1    0    0    0    0 -0.00000000000E+00 -0.00000000000E+00 -0.83399868434E+03  0.83399868434E+03  0.00000000000E+00 0. -1.
        -24    2    1    2    0    0  0.71437617067E+00 -0.51845438781E+02 -0.47332245091E+03  0.48288495523E+03  0.80344742189E+02 0.  0.
         25    2    1    2    0    0  0.50423562172E+02  0.41825614635E+02 -0.33296637793E+03  0.36167164080E+03  0.12509136366E+03 0.  0.
         24    2    1    2    0    0 -0.51137938343E+02  0.10019824147E+02  0.29246219539E+03  0.30961413920E+03  0.87242729496E+02 0.  0.
        -11    1    5    5    0    0  0.20536851650E+02 -0.70442657343E+01  0.30168474804E+02  0.37168815254E+02  0.00000000000E+00 0.  1.
         12    1    5    5    0    0 -0.71674789993E+02  0.17064089881E+02  0.26229372058E+03  0.27244532395E+03  0.00000000000E+00 0. -1.
         11    1    3    3    0    0 -0.18575348530E+01  0.33656261281E+00 -0.33529882284E+03  0.33530413703E+03  0.00000000000E+00 0. -1.
        -12    1    3    3    0    0  0.25719110237E+01 -0.52182001394E+02 -0.13802362806E+03  0.14758081820E+03  0.00000000000E+00 0.  1.
          5    1    4    4  501    0  0.14142849753E+02  0.52747173953E+02 -0.31464882109E+03  0.31938008325E+03  0.41800000000E+01 0. -1.
         -5    1    4    4    0  501  0.36280712419E+02 -0.10921559319E+02 -0.18317556842E+02  0.42291557553E+02  0.41800000000E+01 0. -1.
</event>
<event>
11    1  0.8453735E-009  0.2705117E+03  0.7561462E-02  0.1013506E+00
         22   -1    0    0    0    0  0.00000000000E+00  0.00000000000E+00  0.81504659404E+03  0.81504659404E+03  0.00000000000E+00 0.  1.
         22   -1    0    0    0    0 -0.00000000000E+00 -0.00000000000E+00 -0.84736792236E+03  0.84736792236E+03  0.00000000000E+00 0. -1.
        -24    2    1    2    0    0  0.21860115161E+03  0.72090963064E+02 -0.43477099190E+03  0.49843882448E+03  0.80198977023E+02 0.  0.
         25    2    1    2    0    0 -0.21583735985E+03 -0.15222901756E+03 -0.31909826352E+03  0.43270188021E+03  0.12509106948E+03 0.  0.
         24    2    1    2    0    0 -0.27637917611E+01  0.80138054491E+02  0.72154792711E+03  0.73127381170E+03  0.87750955828E+02 0.  0.
        -13    1    5    5    0    0  0.64617230620E+01  0.54238899341E+02  0.16026031923E+03  0.16931326583E+03  0.00000000000E+00 0.  1.
         14    1    5    5    0    0 -0.92255148230E+01  0.25899155151E+02  0.56128760788E+03  0.56196054587E+03  0.00000000000E+00 0. -1.
         13    1    3    3    0    0  0.17679310971E+03  0.78478249402E+02 -0.39750911891E+03  0.44207254934E+03  0.00000000000E+00 0. -1.
        -14    1    3    3    0    0  0.41808041899E+02 -0.63872863376E+01 -0.37261872994E+02  0.56366275140E+02  0.00000000000E+00 0.  1.
          5    1    4    4  501    0 -0.94761606750E+02 -0.97447418401E+02 -0.76428241906E+02  0.15599522437E+03  0.41800000000E+01 0. -1.
         -5    1    4    4    0  501 -0.12107575310E+03 -0.54781599155E+02 -0.24267002161E+03  0.27670665584E+03  0.41800000000E+01 0. -1.
</event>
<event>
11    1  0.8453735E-009  0.1536273E+03  0.7561462E-02  0.1093229E+00
         22   -1    0    0    0    0  0.00000000000E+00  0.00000000000E+00  0.63082320144E+03  0.63082320144E+03  0.00000000000E+00 0.  1.
         22   -1    0    0    0    0 -0.00000000000E+00 -0.00000000000E+00 -0.33875924727E+03  0.33875924727E+03  0.00000000000E+00 0. -1.
        -24    2    1    2    0    0  0.32029571390E+02 -0.35180231950E+02 -0.27887957635E+03  0.29365383089E+03  0.78709669870E+02 0.  0.
         25    2    1    2    0    0  0.52567130447E+02  0.69310355026E+02  0.82710341005E+02  0.17337158477E+03  0.12509787120E+03 0.  0.
         24    2    1    2    0    0 -0.84596701838E+02 -0.34130123077E+02  0.48823318950E+03  0.50255703305E+03  0.76618906721E+02 0.  0.
        -13    1    5    5    0    0 -0.39843786814E+02  0.20455238238E+02  0.25403346953E+03  0.25795144458E+03  0.00000000000E+00 0.  1.
         14    1    5    5    0    0 -0.44752915024E+02 -0.54585361315E+02  0.23419971997E+03  0.24460558846E+03  0.00000000000E+00 0. -1.
         13    1    3    3    0    0 -0.11674252581E+02 -0.32261894223E+02 -0.20431799059E+03  0.20717856856E+03  0.00000000000E+00 0. -1.
        -14    1    3    3    0    0  0.43703823971E+02 -0.29183377269E+01 -0.74561585756E+02  0.86475262331E+02  0.00000000000E+00 0.  1.
          5    1    4    4  501    0  0.72872419761E+02  0.47876180326E+02  0.19854266292E+01  0.87315133415E+02  0.41800000000E+01 0. -1.
         -5    1    4    4    0  501 -0.20305289313E+02  0.21434174700E+02  0.80724914376E+02  0.86056451357E+02  0.41800000000E+01 0. -1.
</event>
<event>
11    1  0.8453735E-009  0.1283775E+03  0.7561462E-02  0.1121279E+00
         22   -1    0    0    0    0  0.00000000000E+00  0.00000000000E+00  0.61373217825E+02  0.61373217825E+02  0.00000000000E+00 0.  1.
         22   -1    0    0    0    0 -0.00000000000E+00 -0.00000000000E+00 -0.17859734746E+04  0.17859734746E+04  0.00000000000E+00 0. -1.
        -24    2    1    2    0    0 -0.42699071375E+01  0.27691963636E+02 -0.15511140848E+04  0.15534712690E+04  0.80826992600E+02 0.  0.
         25    2    1    2    0    0  0.26659176132E+02 -0.48263264071E+01 -0.16255518382E+03  0.20689528795E+03  0.12508983687E+03 0.  0.
         24    2    1    2    0    0 -0.22389268995E+02 -0.22865637229E+02 -0.10930988150E+02  0.86980135429E+02  0.80137012206E+02 0.  0.
        -11    1    5    5    0    0 -0.42502320719E+02 -0.26207314639E+02  0.16690846976E+02  0.52648409091E+02  0.00000000000E+00 0.  1.
         12    1    5    5    0    0  0.20113051724E+02  0.33416774097E+01 -0.27621835126E+02  0.34331726337E+02  0.00000000000E+00 0. -1.
         13    1    3    3    0    0  0.19292299906E+02  0.37707226118E+02 -0.43357805257E+03  0.43564200373E+03  0.00000000000E+00 0. -1.
        -14    1    3    3    0    0 -0.23562207044E+02 -0.10015262482E+02 -0.11175360322E+04  0.11178292653E+04  0.00000000000E+00 0.  1.
          5    1    4    4  501    0  0.32542374305E+02  0.28422097832E+02 -0.27357574887E+01  0.43494580578E+02  0.41800000000E+01 0.  1.
         -5    1    4    4    0  501 -0.58831981729E+01 -0.33248424239E+02 -0.15981942634E+03  0.16340070737E+03  0.41800000000E+01 0.  1.
</event>
<event>
11    1  0.8453735E-009  0.3905712E+03  0.7561462E-02  0.9677995E-01
         22   -1    0    0    0    0  0.00000000000E+00  0.00000000000E+00  0.16702434631E+03  0.16702434631E+03  0.00000000000E+00 0.  1.
         22   -1    0    0    0    0 -0.00000000000E+00 -0.00000000000E+00 -0.21077772967E+04  0.21077772967E+04  0.00000000000E+00 0.  1.
         24    2    1    2    0    0 -0.15106691624E+03 -0.41737555448E+02 -0.78642158673E+03  0.80589928164E+03  0.80321250961E+02 0.  0.
         25    2    1    2    0    0  0.27101451400E+03 -0.30372280490E+03 -0.95310220651E+03  0.10439103306E+04  0.12509417755E+03 0.  0.
        -24    2    1    2    0    0 -0.11994759776E+03  0.34546036035E+03 -0.20122915715E+03  0.42499203077E+03  0.79967279228E+02 0.  0.
        -11    1    3    3    0    0 -0.13614376212E+03 -0.45084512837E+02 -0.53117978167E+03  0.55019968895E+03  0.00000000000E+00 0.  1.
         12    1    3    3    0    0 -0.14923154111E+02  0.33469573887E+01 -0.25524180505E+03  0.25569959269E+03  0.00000000000E+00 0. -1.
         11    1    5    5    0    0 -0.13426663826E+02  0.15485985021E+03 -0.72428295541E+02  0.17148675315E+03  0.00000000000E+00 0. -1.
        -12    1    5    5    0    0 -0.10652093394E+03  0.19060051014E+03 -0.12880086161E+03  0.25350527762E+03  0.00000000000E+00 0.  1.
          5    1    4    4  501    0  0.15319267475E+03 -0.23074986849E+03 -0.73501426489E+03  0.78547879628E+03  0.41800000000E+01 0. -1.
         -5    1    4    4    0  501  0.11782183925E+03 -0.72972936410E+02 -0.21808794162E+03  0.25843153432E+03  0.41800000000E+01 0. -1.
</event>
<event>
11    1  0.8453735E-009  0.1405123E+03  0.7561462E-02  0.1106988E+00
         22   -1    0    0    0    0  0.00000000000E+00  0.00000000000E+00  0.52204885621E+03  0.52204885621E+03  0.00000000000E+00 0.  1.
         22   -1    0    0    0    0 -0.00000000000E+00 -0.00000000000E+00 -0.61270945963E+03  0.61270945963E+03  0.00000000000E+00 0.  1.
         24    2    1    2    0    0  0.39421178255E+02  0.12685386506E+02 -0.56121984937E+03  0.56826350219E+03  0.78998356130E+02 0.  0.
         25    2    1    2    0    0  0.29890965575E+02 -0.14056977842E+02  0.59634155455E+02  0.14246023931E+03  0.12509044264E+03 0.  0.
        -24    2    1    2    0    0 -0.69312143830E+02  0.13715913354E+01  0.41092509049E+03  0.42403457434E+03  0.78357103709E+02 0.  0.
        -13    1    3    3    0    0  0.46919942039E+02  0.24615632282E+02 -0.54116749179E+03  0.54375515123E+03  0.00000000000E+00 0.  1.
         14    1    3    3    0    0 -0.74987637837E+01 -0.11930245776E+02 -0.20052357572E+02  0.24508350959E+02  0.00000000000E+00 0. -1.
         11    1    5    5    0    0 -0.15981586930E+02 -0.35893731318E+02  0.16977722382E+03  0.17426438763E+03  0.00000000000E+00 0. -1.
        -12    1    5    5    0    0 -0.53330556900E+02  0.37265322653E+02  0.24114786667E+03  0.24977018671E+03  0.00000000000E+00 0.  1.
          5    1    4    4  501    0  0.65463706974E+02 -0.43430510922E+02  0.54823391853E+02  0.95889430617E+02  0.41800000000E+01 0.  1.
         -5    1    4    4    0  501 -0.35572741399E+02  0.29373533080E+02  0.48107636018E+01  0.46570808697E+02  0.41800000000E+01 0.  1.
</event>
<event>
11    1  0.8453735E-009  0.1551739E+03  0.7561462E-02  0.1091706E+00
         22   -1    0    0    0    0  0.00000000000E+00  0.00000000000E+00  0.19003355043E+03  0.19003355043E+03  0.00000000000E+00 0.  1.
         22   -1    0    0    0    0 -0.00000000000E+00 -0.00000000000E+00 -0.51305248656E+03  0.51305248656E+03  0.00000000000E+00 0.  1.
         24    2    1    2    0    0  0.17193359353E+02 -0.82359415045E+02 -0.25933522408E+03  0.28426525675E+03  0.80456776566E+02 0.  0.
         25    2    1    2    0    0  0.10598294169E+02  0.11415681799E+03 -0.19566466314E+03  0.25899265052E+03  0.12509368365E+03 0.  0.
        -24    2    1    2    0    0 -0.27791653522E+02 -0.31797402949E+02  0.13198095108E+03  0.15982812972E+03  0.79640497000E+02 0.  0.
        -11    1    3    3    0    0  0.19819163695E+02 -0.98209931030E+02 -0.21814775436E+03  0.24005506146E+03  0.00000000000E+00 0.  1.
         12    1    3    3    0    0 -0.26258043425E+01  0.15850515985E+02 -0.41187469718E+02  0.44210195286E+02  0.00000000000E+00 0. -1.
         13    1    5    5    0    0  0.77591972484E+01 -0.10256969026E+02 -0.70843919589E+01  0.14683295439E+02  0.00000000000E+00 0. -1.
        -14    1    5    5    0    0 -0.35550850771E+02 -0.21540433923E+02  0.13906534304E+03  0.14514483428E+03  0.00000000000E+00 0.  1.
          5    1    4    4  501    0  0.56723999449E+02  0.75485543247E+02 -0.63953967495E+02  0.11411950627E+03  0.41800000000E+01 0. -1.
         -5    1    4    4    0  501 -0.46125705280E+02  0.38671274748E+02 -0.13171069564E+03  0.14487314425E+03  0.41800000000E+01 0. -1.
</event>
<event>
11    1  0.8453735E-009  0.1562511E+03  0.7561462E-02  0.1090657E+00
         22   -1    0    0    0    0  0.00000000000E+00  0.00000000000E+00  0.96326466629E+03  0.96326466629E+03  0.00000000000E+00 0.  1.
         22   -1    0    0    0    0 -0.00000000000E+00 -0.00000000000E+00 -0.15267781901E+04  0.15267781901E+04  0.00000000000E+00 0.  1.
        -24    2    1    2    0    0 -0.29152040337E+02 -0.22467587999E+01 -0.14998065680E+04  0.15027977807E+04  0.90147318360E+02 0.  0.
         25    2    1    2    0    0 -0.36812741177E+02  0.74624536961E+02  0.27567134419E+03  0.31395208600E+03  0.12508885987E+03 0.  0.
         24    2    1    2    0    0  0.65964781513E+02 -0.72377778161E+02  0.66062170001E+03  0.67329298964E+03  0.85513298382E+02 0.  0.
        -11    1    5    5    0    0  0.27313367557E+02  0.70768709314E+01  0.32544547739E+03  0.32666628369E+03  0.00000000000E+00 0.  1.
         12    1    5    5    0    0  0.38651413957E+02 -0.79454649093E+02  0.33517622262E+03  0.34662670595E+03  0.00000000000E+00 0. -1.
         13    1    3    3    0    0 -0.37505746799E+02 -0.39281517850E+02 -0.70716831185E+03  0.70925083008E+03  0.00000000000E+00 0. -1.
        -14    1    3    3    0    0  0.83537064629E+01  0.37034759050E+02 -0.79263825614E+03  0.79354695065E+03  0.00000000000E+00 0.  1.
          5    1    4    4  501    0  0.14388371205E+02  0.39599951944E+02  0.13396854569E+02  0.44408665058E+02  0.41800000000E+01 0. -1.
         -5    1    4    4    0  501 -0.51201112381E+02  0.35024585017E+02  0.26227448962E+03  0.26954342094E+03  0.41800000000E+01 0. -1.
</event>
<event>
11    1  0.8453735E-009  0.1521555E+03  0.7561462E-02  0.1094696E+00
         22   -1    0    0    0    0  0.00000000000E+00  0.00000000000E+00  0.42087781965E+03  0.42087781965E+03  0.00000000000E+00 0.  1.
         22   -1    0    0    0    0 -0.00000000000E+00 -0.00000000000E+00 -0.27920938568E+03  0.27920938568E+03  0.00000000000E+00 0. -1.
        -24    2    1    2    0    0 -0.65909114181E+02 -0.26578018206E+02 -0.17927299649E+03  0.20896565300E+03  0.80482510404E+02 0.  0.
         25    2    1    2    0    0  0.13199303978E+03  0.67012302594E+02  0.52907814382E+02  0.20089603236E+03  0.12508863955E+03 0.  0.
         24    2    1    2    0    0 -0.66083925597E+02 -0.40434284388E+02  0.26803361608E+03  0.29022551997E+03  0.79917560756E+02 0.  0.
        -13    1    5    5    0    0 -0.47793712590E+02 -0.64318472530E+02  0.17558974309E+03  0.19301000686E+03  0.00000000000E+00 0.  1.
         14    1    5    5    0    0 -0.18290213007E+02  0.23884188142E+02  0.92443872990E+02  0.97215513106E+02  0.00000000000E+00 0. -1.
         11    1    3    3    0    0 -0.43760074799E+02 -0.29003563578E+02 -0.17914997155E+03  0.18668385884E+03  0.00000000000E+00 0. -1.
        -12    1    3    3    0    0 -0.22149039382E+02  0.24255453719E+01 -0.12302494118E+00  0.22281794161E+02  0.00000000000E+00 0.  1.
          5    1    4    4  501    0  0.96005888397E+02  0.69473039575E+02  0.90092467646E+02  0.14892198951E+03  0.41800000000E+01 0.  1.
         -5    1    4    4    0  501  0.35987151381E+02 -0.24607369813E+01 -0.37184653263E+02  0.51974042842E+02  0.41800000000E+01 0.  1.
</event>
<event>
11    1  0.8453735E-009  0.1705120E+03  0.7561462E-02  0.1077587E+00
         22   -1    0    0    0    0  0.00000000000E+00  0.00000000000E+00  0.29926630032E+03  0.29926630032E+03  0.00000000000E+00 0. -1.
         22   -1    0    0    0    0 -0.00000000000E+00 -0.00000000000E+00 -0.48932526506E+03  0.48932526506E+03  0.00000000000E+00 0.  1.
         24    2    1    2    0    0 -0.12325781236E+02  0.10204718174E+03 -0.29356454472E+03  0.32291250069E+03  0.86757068880E+02 0.  0.
         25    2    1    2    0    0 -0.10840218806E+02 -0.18656104284E+03 -0.86750810154E+02  0.24102983695E+03  0.12508855339E+03 0.  0.
        -24    2    1    2    0    0  0.23166000042E+02  0.84513861096E+02  0.19025639014E+03  0.22464922773E+03  0.81182050098E+02 0.  0.
        -13    1    3    3    0    0 -0.40485200566E+02  0.86651465227E+02 -0.16805746234E+03  0.19336710821E+03  0.00000000000E+00 0.  1.
         14    1    3    3    0    0  0.28159419330E+02  0.15395716512E+02 -0.12550708239E+03  0.12954539248E+03  0.00000000000E+00 0. -1.
         11    1    5    5    0    0  0.14144524234E+02  0.94774087922E+02  0.18770667171E+03  0.21075101402E+03  0.00000000000E+00 0. -1.
        -12    1    5    5    0    0  0.90214758081E+01 -0.10260226826E+02  0.25497184255E+01  0.13898213710E+02  0.00000000000E+00 0.  1.
          5    1    4    4  501    0 -0.67350201057E+02 -0.10178612507E+03 -0.57273440568E+02  0.13488581925E+03  0.41800000000E+01 0. -1.
         -5    1    4    4    0  501  0.56509982250E+02 -0.84774917761E+02 -0.29477369586E+02  0.10614401770E+03  0.41800000000E+01 0. -1.
</event>
<event>
11    1  0.8453735E-009  0.1466035E+03  0.7561462E-02  0.1100401E+00
         22   -1    0    0    0    0  0.00000000000E+00  0.00000000000E+00  0.54847678843E+03  0.54847678843E+03  0.00000000000E+00 0.  1.
         22   -1    0    0    0    0 -0.00000000000E+00 -0.00000000000E+00 -0.23742865687E+04  0.23742865687E+04  0.00000000000E+00 0.  1.
        -24    2    1    2    0    0 -0.54029647742E+02 -0.49522163588E+02 -0.19981519410E+04  0.20011647428E+04  0.81715977411E+02 0.  0.
         25    2    1    2    0    0  0.93089387914E+02  0.74031036888E+02 -0.34998720110E+03  0.39023700867E+03  0.12509058093E+03 0.  0.
         24    2    1    2    0    0 -0.39059740172E+02 -0.24508873300E+02  0.52232936183E+03  0.53136160567E+03  0.85970027213E+02 0.  0.
        -13    1    5    5    0    0 -0.40640794508E+02 -0.53904657481E+02  0.33514527902E+03  0.34187679700E+03  0.00000000000E+00 0.  1.
         14    1    5    5    0    0  0.15810543359E+01  0.29395784181E+02  0.18718408281E+03  0.18948480867E+03  0.00000000000E+00 0. -1.
         13    1    3    3    0    0 -0.14153396161E+02 -0.61745184119E+02 -0.90316970123E+03  0.90538847773E+03  0.00000000000E+00 0. -1.
        -14    1    3    3    0    0 -0.39876251581E+02  0.12223020531E+02 -0.10949822398E+04  0.10957762651E+04  0.00000000000E+00 0.  1.
          5    1    4    4  501    0  0.10062557125E+02  0.33475207353E+02 -0.81884949005E+01  0.36143718845E+02  0.41800000000E+01 0.  1.
         -5    1    4    4    0  501  0.83026830789E+02  0.40555829535E+02 -0.34179870620E+03  0.35409328983E+03  0.41800000000E+01 0.  1.
</event>
<event>
11    1  0.8453735E-009  0.1322138E+03  0.7561462E-02  0.1116578E+00
         22   -1    0    0    0    0  0.00000000000E+00  0.00000000000E+00  0.24489789501E+03  0.24489789501E+03  0.00000000000E+00 0. -1.
         22   -1    0    0    0    0 -0.00000000000E+00 -0.00000000000E+00 -0.14263947481E+04  0.14263947481E+04  0.00000000000E+00 0. -1.
        -24    2    1    2    0    0  0.23584455784E+02 -0.10623817428E+02 -0.11154223329E+04  0.11186627933E+04  0.81057832016E+02 0.  0.
         25    2    1    2    0    0 -0.10051190401E+02  0.51129978271E+02 -0.28469416066E+03  0.31530195432E+03  0.12509698710E+03 0.  0.
         24    2    1    2    0    0 -0.13533265384E+02 -0.40506160843E+02  0.21861964051E+03  0.23732789554E+03  0.81890685970E+02 0.  0.
        -13    1    5    5    0    0 -0.78058407518E+01 -0.39411130204E+02  0.34045854879E+02  0.52662022067E+02  0.00000000000E+00 0.  1.
         14    1    5    5    0    0 -0.57274246321E+01 -0.10950306397E+01  0.18457378563E+03  0.18466587348E+03  0.00000000000E+00 0. -1.
         13    1    3    3    0    0  0.48309526519E+02  0.68321112834E+01 -0.87236144027E+03  0.87372476820E+03  0.00000000000E+00 0. -1.
        -14    1    3    3    0    0 -0.24725070735E+02 -0.17455928711E+02 -0.24306089267E+03  0.24493802505E+03  0.00000000000E+00 0.  1.
          5    1    4    4  501    0 -0.46359337521E+02  0.42333707553E+02 -0.26595931075E+03  0.27330049093E+03  0.41800000000E+01 0.  1.
         -5    1    4    4    0  501  0.36308147121E+02  0.87962707177E+01 -0.18734849914E+02  0.42001463393E+02  0.41800000000E+01 0.  1.
</event>
<event>
11    1  0.8453735E-009  0.1356821E+03  0.7561462E-02  0.1112478E+00
         22   -1    0    0    0    0  0.00000000000E+00  0.00000000000E+00  0.40547040492E+03  0.40547040492E+03  0.00000000000E+00 0. -1.
         22   -1    0    0    0    0 -0.00000000000E+00 -0.00000000000E+00 -0.86033245087E+03  0.86033245087E+03  0.00000000000E+00 0. -1.
         24    2    1    2    0    0  0.37403094311E+02  0.38015285672E+02 -0.79661266271E+03  0.80258509784E+03  0.81895979558E+02 0.  0.
         25    2    1    2    0    0 -0.57092643970E+01 -0.39095219014E+02  0.23580720864E+02  0.13328599813E+03  0.12509226615E+03 0.  0.
        -24    2    1    2    0    0 -0.31693829914E+02  0.10799333417E+01  0.31816989589E+03  0.32993175982E+03  0.81346286809E+02 0.  0.
        -13    1    3    3    0    0  0.28774977831E+02 -0.16410811147E+02 -0.48558088044E+03  0.48670946726E+03  0.00000000000E+00 0.  1.
         14    1    3    3    0    0  0.86281164801E+01  0.54426096819E+02 -0.31103178227E+03  0.31587563058E+03  0.00000000000E+00 0. -1.
         11    1    5    5    0    0 -0.53270176016E+02  0.20823220477E+02  0.23148210863E+03  0.23844346244E+03  0.00000000000E+00 0. -1.
        -12    1    5    5    0    0  0.21576346103E+02 -0.19743287135E+02  0.86687787264E+02  0.91488297387E+02  0.00000000000E+00 0.  1.
          5    1    4    4  501    0  0.51681271253E+02 -0.20854375549E+02  0.42295045553E+02  0.70087103352E+02  0.41800000000E+01 0. -1.
         -5    1    4    4    0  501 -0.57390535650E+02 -0.18240843465E+02 -0.18714324689E+02  0.63198894778E+02  0.41800000000E+01 0. -1.
</event>
<event>
11    1  0.8453735E-009  0.3087360E+03  0.7561462E-02  0.9965603E-01
         22   -1    0    0    0    0  0.00000000000E+00  0.00000000000E+00  0.71390746805E+03  0.71390746805E+03  0.00000000000E+00 0.  1.
         22   -1    0    0    0    0 -0.00000000000E+00 -0.00000000000E+00 -0.78284500740E+03  0.78284500740E+03  0.00000000000E+00 0.  1.
        -24    2    1    2    0    0  0.16986540852E+03 -0.11557130204E+02 -0.24524634177E+03  0.30923690815E+03  0.80584570117E+02 0.  0.
         25    2    1    2    0    0  0.98083556982E+02  0.12904042916E+03 -0.44862631324E+03  0.49313741938E+03  0.12508848447E+03 0.  0.
         24    2    1    2    0    0 -0.26794896550E+03 -0.11748329896E+03  0.62493511566E+03  0.69437814792E+03  0.77576670977E+02 0.  0.
        -13    1    5    5    0    0 -0.24898596945E+03 -0.10011530352E+03  0.50668561052E+03  0.57336497529E+03  0.00000000000E+00 0.  1.
         14    1    5    5    0    0 -0.18962996054E+02 -0.17367995439E+02  0.11824950514E+03  0.12101317263E+03  0.00000000000E+00 0. -1.
         13    1    3    3    0    0  0.10061741568E+02 -0.24825212847E+02 -0.23822356683E+02  0.35847378066E+02  0.00000000000E+00 0. -1.
        -14    1    3    3    0    0  0.15980366695E+03  0.13268082642E+02 -0.22142398509E+03  0.27338953008E+03  0.00000000000E+00 0.  1.
          5    1    4    4  501    0  0.46303272346E+02 -0.14552492407E+01 -0.21960275054E+03  0.22447483428E+03  0.41800000000E+01 0.  1.
         -5    1    4    4    0  501  0.51780284636E+02  0.13049567840E+03 -0.22902356271E+03  0.26866258510E+03  0.41800000000E+01 0.  1.
</event>
<event>
11    1  0.8453735E-009  0.3081008E+03  0.7561462E-02  0.9968199E-01
         22   -1    0    0    0    0  0.00000000000E+00  0.00000000000E+00  0.74551052778E+03  0.74551052778E+03  0.00000000000E+00 0.  1.
         22   -1    0    0    0    0 -0.00000000000E+00 -0.00000000000E+00 -0.31694240231E+03  0.31694240231E+03  0.00000000000E+00 0. -1.
        -24    2    1    2    0    0 -0.19728114201E+03 -0.21339834123E+03 -0.97213451893E+02  0.31672769892E+03  0.80045480828E+02 0.  0.
         25    2    1    2    0    0  0.16805099309E+03  0.20500438295E+03  0.97858485571E+02  0.30902287675E+03  0.12510364444E+03 0.  0.
         24    2    1    2    0    0  0.29230148921E+02  0.83939582836E+01  0.42792309179E+03  0.43670235442E+03  0.81645047183E+02 0.  0.
        -13    1    5    5    0    0 -0.68585135444E+01  0.37357587755E+02  0.13894749277E+03  0.14404525094E+03  0.00000000000E+00 0.  1.
         14    1    5    5    0    0  0.36088662465E+02 -0.28963629471E+02  0.28897559902E+03  0.29265710348E+03  0.00000000000E+00 0. -1.
         11    1    3    3    0    0 -0.19252539728E+03 -0.22060055333E+03 -0.94882182069E+02  0.30778768852E+03  0.00000000000E+00 0. -1.
        -12    1    3    3    0    0 -0.47557447281E+01  0.72022120982E+01 -0.23312698241E+01  0.89400104038E+01  0.00000000000E+00 0.  1.
          5    1    4    4  501    0  0.13994492546E+03  0.16494524775E+03  0.20409889193E+02  0.21731441023E+03  0.41800000000E+01 0. -1.
         -5    1    4    4    0  501  0.28106067629E+02  0.40059135193E+02  0.77448596378E+02  0.91708466517E+02  0.41800000000E+01 0. -1.
</event>
<event>
11    1  0.8453735E-009  0.1712762E+03  0.7561462E-02  0.1076926E+00
         22   -1    0    0    0    0  0.00000000000E+00  0.00000000000E+00  0.12929906997E+04  0.12929906997E+04  0.00000000000E+00 0.  1.
         22   -1    0    0    0    0 -0.00000000000E+00 -0.00000000000E+00 -0.35662040485E+03  0.35662040485E+03  0.00000000000E+00 0.  1.
         24    2    1    2    0    0  0.10392437030E+03  0.58031669465E+02 -0.23679624881E+03  0.27817171324E+03  0.84493131061E+02 0.  0.
         25    2    1    2    0    0 -0.11712530575E+03 -0.10467476031E+02 -0.21588847916E+02  0.17304667737E+03  0.12510463178E+03 0.  0.
        -24    2    1    2    0    0  0.13200935455E+02 -0.47564193434E+02  0.11947553916E+04  0.11983927139E+04  0.79170915851E+02 0.  0.
        -13    1    3    3    0    0  0.71651057520E+02  0.33278285320E+02 -0.22072734626E+03  0.23443950116E+03  0.00000000000E+00 0.  1.
         14    1    3    3    0    0  0.32273312780E+02  0.24753384146E+02 -0.16068902545E+02  0.43732212080E+02  0.00000000000E+00 0. -1.
         13    1    5    5    0    0 -0.17984654527E+02  0.14333855396E+02  0.22840131673E+03  0.22955624299E+03  0.00000000000E+00 0. -1.
        -14    1    5    5    0    0  0.31185589982E+02 -0.61898048830E+02  0.96635407485E+03  0.96883647095E+03  0.00000000000E+00 0.  1.
          5    1    4    4  501    0 -0.10478332253E+03 -0.58916442225E+02 -0.24646864376E+02  0.12278286594E+03  0.41800000000E+01 0.  1.
         -5    1    4    4    0  501 -0.12341983229E+02  0.48448966194E+02  0.30580164601E+01  0.50263811435E+02  0.41800000000E+01 0.  1.
</event>
<event>
11    1  0.8453735E-009  0.2134683E+03  0.7561462E-02  0.1045388E+00
         22   -1    0    0    0    0  0.00000000000E+00  0.00000000000E+00  0.89195606065E+03  0.89195606065E+03  0.00000000000E+00 0.  1.
         22   -1    0    0    0    0 -0.00000000000E+00 -0.00000000000E+00 -0.15867830130E+03  0.15867830130E+03  0.00000000000E+00 0.  1.
        -24    2    1    2    0    0  0.76401637768E+02  0.13722118955E+03 -0.10320969119E+02  0.17905747902E+03  0.85370915857E+02 0.  0.
         25    2    1    2    0    0 -0.51436017327E+02 -0.25039499217E+03  0.33962569135E+03  0.44309885938E+03  0.12509065903E+03 0.  0.
         24    2    1    2    0    0 -0.24965620441E+02  0.11317380262E+03  0.40397303712E+03  0.42847802355E+03  0.83472211813E+02 0.  0.
        -13    1    5    5    0    0 -0.32405433005E+02  0.11621733475E+03  0.40264258642E+03  0.42033038599E+03  0.00000000000E+00 0.  1.
         14    1    5    5    0    0  0.74398125637E+01 -0.30435321290E+01  0.13304506951E+01  0.81476375628E+01  0.00000000000E+00 0. -1.
         11    1    3    3    0    0 -0.78983443572E+01 -0.41576312411E+01 -0.11363954574E+02  0.14450231994E+02  0.00000000000E+00 0. -1.
        -12    1    3    3    0    0  0.84299982126E+02  0.14137882079E+03  0.10429854549E+01  0.16460724703E+03  0.00000000000E+00 0.  1.
          5    1    4    4  501    0  0.88365568978E+01  0.10428953135E+02  0.33453243667E+02  0.36379110945E+02  0.41800000000E+01 0.  1.
         -5    1    4    4    0  501 -0.60272574225E+02 -0.26082394530E+03  0.30617244768E+03  0.40671974844E+03  0.41800000000E+01 0.  1.
</event>
<event>
11    1  0.8453735E-009  0.1732367E+03  0.7561462E-02  0.1075249E+00
         22   -1    0    0    0    0  0.00000000000E+00  0.00000000000E+00  0.62256475077E+03  0.62256475077E+03  0.00000000000E+00 0.  1.
         22   -1    0    0    0    0 -0.00000000000E+00 -0.00000000000E+00 -0.69310231396E+03  0.69310231396E+03  0.00000000000E+00 0. -1.
        -24    2    1    2    0    0  0.79723794571E+01 -0.10623848199E+03 -0.35392789734E+03  0.37838716172E+03  0.81004405760E+02 0.  0.
         25    2    1    2    0    0  0.50948283129E+01  0.15333329334E+03 -0.29288356012E+03  0.35350290777E+03  0.12508585008E+03 0.  0.
         24    2    1    2    0    0 -0.13067207770E+02 -0.47094811353E+02  0.57627389427E+03  0.58377699523E+03  0.79468898172E+02 0.  0.
        -11    1    5    5    0    0  0.53992101363E+01 -0.64144527590E+02  0.32968348807E+03  0.33590902667E+03  0.00000000000E+00 0.  1.
         12    1    5    5    0    0 -0.18466417906E+02  0.17049716237E+02  0.24659040619E+03  0.24786796856E+03  0.00000000000E+00 0. -1.
         13    1    3    3    0    0  0.22600755388E+02 -0.71943417385E+02 -0.12158622100E+03  0.14307291353E+03  0.00000000000E+00 0. -1.
        -14    1    3    3    0    0 -0.14628375931E+02 -0.34295064606E+02 -0.23234167634E+03  0.23531424819E+03  0.00000000000E+00 0.  1.
          5    1    4    4  501    0  0.49153186175E+02  0.14338054987E+03 -0.23932646118E+03  0.28331721658E+03  0.41800000000E+01 0.  1.
         -5    1    4    4    0  501 -0.44058357862E+02  0.99527434727E+01 -0.53557098942E+02  0.70185691186E+02  0.41800000000E+01 0.  1.
</event>
<event>
11    1  0.8453735E-009  0.1659191E+03  0.7561462E-02  0.1081639E+00
         22   -1    0    0    0    0  0.00000000000E+00  0.00000000000E+00  0.66882675503E+03  0.66882675503E+03  0.00000000000E+00 0. -1.
         22   -1    0    0    0    0 -0.00000000000E+00 -0.00000000000E+00 -0.17640645849E+03  0.17640645849E+03  0.00000000000E+00 0. -1.
        -24    2    1    2    0    0 -0.11528491316E+02  0.53858127808E+02 -0.10838656940E+03  0.14641412620E+03  0.81583355426E+02 0.  0.
         25    2    1    2    0    0  0.10809181039E+03  0.30096742841E+01  0.13697682379E+03  0.21471602709E+03  0.12508966553E+03 0.  0.
         24    2    1    2    0    0 -0.96563319073E+02 -0.56867802092E+02  0.46383004214E+03  0.48410306023E+03  0.81602962083E+02 0.  0.
        -11    1    5    5    0    0 -0.66438124954E+02 -0.11883610103E+02  0.13593112163E+03  0.15176466803E+03  0.00000000000E+00 0.  1.
         12    1    5    5    0    0 -0.30125194119E+02 -0.44984191989E+02  0.32789892052E+03  0.33233839219E+03  0.00000000000E+00 0. -1.
         13    1    3    3    0    0 -0.38746363210E+02  0.31474726877E+02 -0.97491601253E+02  0.10952876978E+03  0.00000000000E+00 0. -1.
        -14    1    3    3    0    0  0.27217871894E+02  0.22383400931E+02 -0.10894968143E+02  0.36885356424E+02  0.00000000000E+00 0.  1.
          5    1    4    4  501    0  0.29840030861E+02  0.60488106265E+02  0.65171904267E+02  0.93883374178E+02  0.41800000000E+01 0. -1.
         -5    1    4    4    0  501  0.78251779528E+02 -0.57478431981E+02  0.71804919524E+02  0.12083265291E+03  0.41800000000E+01 0. -1.
</event>
<event>
11    1  0.8453735E-009  0.1560371E+03  0.7561462E-02  0.1090865E+00
         22   -1    0    0    0    0  0.00000000000E+00  0.00000000000E+00  0.17137509804E+03  0.17137509804E+03  0.00000000000E+00 0. -1.
         22   -1    0    0    0    0 -0.00000000000E+00 -0.00000000000E+00 -0.44140686873E+04  0.44140686873E+04  0.00000000000E+00 0.  1.
        -24    2    1    2    0    0 -0.45100316229E+02  0.86721526995E+02 -0.39393965209E+04  0.39413863934E+04  0.78275736263E+02 0.  0.
         25    2    1    2    0    0  0.40129735626E+02 -0.33295027328E+02 -0.44810280484E+03  0.46814724285E+03  0.12508702073E+03 0.  0.
         24    2    1    2    0    0  0.49705806027E+01 -0.53426499667E+02  0.14480573649E+03  0.17591014914E+03  0.84241211492E+02 0.  0.
        -13    1    5    5    0    0  0.40636956253E+00  0.18703286765E+02  0.67658250905E+02  0.70196987026E+02  0.00000000000E+00 0.  1.
         14    1    5    5    0    0  0.45642110402E+01 -0.72129786432E+02  0.77147485584E+02  0.10571316212E+03  0.00000000000E+00 0. -1.
         13    1    3    3    0    0  0.59626600410E+01  0.67383153096E+02 -0.17450871395E+04  0.17463977688E+04  0.00000000000E+00 0. -1.
        -14    1    3    3    0    0 -0.51062976270E+02  0.19338373899E+02 -0.21943093815E+04  0.21949886246E+04  0.00000000000E+00 0.  1.
          5    1    4    4  501    0  0.72435011313E+02 -0.42276920937E+02 -0.18855193427E+03  0.20640608815E+03  0.41800000000E+01 0. -1.
         -5    1    4    4    0  501 -0.32305275687E+02  0.89818936091E+01 -0.25955087057E+03  0.26174115470E+03  0.41800000000E+01 0. -1.
</event>
<event>
11    1  0.1905589E-008  0.1648218E+03  0.7561462E-02  0.1082628E+00
         22   -1    0    0    0    0  0.00000000000E+00  0.00000000000E+00  0.12007100069E+04  0.12007100069E+04  0.00000000000E+00 0.  1.
         22   -1    0    0    0    0 -0.00000000000E+00 -0.00000000000E+00 -0.34192168905E+03  0.34192168905E+03  0.00000000000E+00 0.  1.
        -24    2    1    2    0    0 -0.74080004915E+00  0.34123751623E+02 -0.19900515360E+03  0.21738795467E+03  0.80557386171E+02 0.  0.
         25    2    1    2    0    0 -0.26370217091E+02 -0.13684157055E+03 -0.61450966000E+02  0.19708880321E+03  0.12508705508E+03 0.  0.
         24    2    1    2    0    0  0.27111017140E+02  0.10271781893E+03  0.11192444375E+04  0.11281549381E+04  0.93485271219E+02 0.  0.
        -11    1    5    5    0    0  0.68095872563E+01  0.14436154709E+02  0.65283785824E+03  0.65303295643E+03  0.00000000000E+00 0.  1.
         12    1    5    5    0    0  0.20301429884E+02  0.88281664223E+02  0.46640657923E+03  0.47512198164E+03  0.00000000000E+00 0. -1.
         11    1    3    3    0    0  0.18782606600E+01 -0.11730985999E+01  0.75264751723E+01  0.78454988338E+01  0.00000000000E+00 0. -1.
        -12    1    3    3    0    0 -0.26190607092E+01  0.35296850223E+02 -0.20653162877E+03  0.20954245583E+03  0.00000000000E+00 0.  1.
          5    1    4    4  501    0 -0.21977262555E+02 -0.68224763521E+02  0.33947713690E+02  0.79420010650E+02  0.41800000000E+01 0. -1.
         -5    1    4    4    0  501 -0.43929545368E+01 -0.68616807034E+02 -0.95398679690E+02  0.11766879256E+03  0.41800000000E+01 0. -1.
</event>
<event>
11    1  0.8453735E-009  0.1831275E+03  0.7561462E-02  0.1067141E+00
         22   -1    0    0    0    0  0.00000000000E+00  0.00000000000E+00  0.23493846388E+03  0.23493846388E+03  0.00000000000E+00 0. -1.
         22   -1    0    0    0    0 -0.00000000000E+00 -0.00000000000E+00 -0.11068899110E+04  0.11068899110E+04  0.00000000000E+00 0.  1.
         24    2    1    2    0    0  0.62759019529E+02  0.36562574741E+02 -0.84378273163E+03  0.85091506497E+03  0.82532618907E+02 0.  0.
         25    2    1    2    0    0  0.63774332281E+02  0.29324678620E+02 -0.20506750558E+03  0.25025335732E+03  0.12508780425E+03 0.  0.
        -24    2    1    2    0    0 -0.12653335181E+03 -0.65887253361E+02  0.17689879013E+03  0.24065995255E+03  0.79197295013E+02 0.  0.
        -11    1    3    3    0    0  0.45120848037E+02  0.99048215768E+01 -0.75740848661E+03  0.75881592761E+03  0.00000000000E+00 0.  1.
         12    1    3    3    0    0  0.17638171492E+02  0.26657753165E+02 -0.86374245025E+02  0.92099137352E+02  0.00000000000E+00 0. -1.
         13    1    5    5    0    0 -0.10259303949E+03 -0.60288656026E+02  0.18010516550E+03  0.21586552397E+03  0.00000000000E+00 0. -1.
        -14    1    5    5    0    0 -0.23940312317E+02 -0.55985973355E+01 -0.32063753676E+01  0.24794428587E+02  0.00000000000E+00 0.  1.
          5    1    4    4  501    0  0.47123509001E+02 -0.28602116843E+02 -0.25663171625E+02  0.60948970183E+02  0.41800000000E+01 0. -1.
         -5    1    4    4    0  501  0.16650823280E+02  0.57926795463E+02 -0.17940433396E+03  0.18930438714E+03  0.41800000000E+01 0. -1.
</event>
<event>
11    1  0.8453735E-009  0.1717655E+03  0.7561462E-02  0.1076505E+00
         22   -1    0    0    0    0  0.00000000000E+00  0.00000000000E+00  0.32768591409E+03  0.32768591409E+03  0.00000000000E+00 0.  1.
         22   -1    0    0    0    0 -0.00000000000E+00 -0.00000000000E+00 -0.25903679005E+03  0.25903679005E+03  0.00000000000E+00 0.  1.
         24    2    1    2    0    0  0.89682106851E+02 -0.63232752159E+02 -0.13040208486E+03  0.18762143951E+03  0.78459158765E+02 0.  0.
         25    2    1    2    0    0 -0.10564165693E+03  0.10513964018E+03  0.18165115596E+02  0.19542829627E+03  0.12509094269E+03 0.  0.
        -24    2    1    2    0    0  0.15959550076E+02 -0.41906888017E+02  0.18088609330E+03  0.20367296835E+03  0.82170583461E+02 0.  0.
        -13    1    3    3    0    0  0.73726270224E+02 -0.54710773201E+02 -0.13978910501E+03  0.16724181746E+03  0.00000000000E+00 0.  1.
         14    1    3    3    0    0  0.15955836628E+02 -0.85219789572E+01  0.93870201532E+01  0.20379622057E+02  0.00000000000E+00 0. -1.
         11    1    5    5    0    0  0.88797572498E+01  0.22673722405E+02  0.80464329950E+02  0.84068163837E+02  0.00000000000E+00 0. -1.
        -12    1    5    5    0    0  0.70797928262E+01 -0.64580610423E+02  0.10042176335E+03  0.11960480452E+03  0.00000000000E+00 0.  1.
          5    1    4    4  501    0 -0.73115708233E+02  0.35728543251E+02 -0.47576223777E+02  0.94357856388E+02  0.41800000000E+01 0. -1.
         -5    1    4    4    0  501 -0.32525948695E+02  0.69411096925E+02  0.65741339373E+02  0.10107043988E+03  0.41800000000E+01 0. -1.
</event>
<event>
11    1  0.8453735E-009  0.1534454E+03  0.7561462E-02  0.1093409E+00
         22   -1    0    0    0    0  0.00000000000E+00  0.00000000000E+00  0.29503625773E+03  0.29503625773E+03  0.00000000000E+00 0. -1.
         22   -1    0    0    0    0 -0.00000000000E+00 -0.00000000000E+00 -0.74643242605E+03  0.74643242605E+03  0.00000000000E+00 0.  1.
         24    2    1    2    0    0  0.38330698386E+02 -0.80716062792E+01 -0.61199936907E+03  0.61849060428E+03  0.80330607982E+02 0.  0.
         25    2    1    2    0    0 -0.75506789937E+00  0.89594361201E+02 -0.64937722170E+02  0.16701208603E+03  0.12509360268E+03 0.  0.
        -24    2    1    2    0    0 -0.37575630486E+02 -0.81522754922E+02  0.22554092292E+03  0.25596599347E+03  0.81191097577E+02 0.  0.
        -13    1    3    3    0    0  0.52146018026E+02  0.12836834914E+02 -0.53085754292E+03  0.53356698024E+03  0.00000000000E+00 0.  1.
         14    1    3    3    0    0 -0.13815319640E+02 -0.20908441193E+02 -0.81141826147E+02  0.84923624041E+02  0.00000000000E+00 0. -1.
         11    1    5    5    0    0 -0.46258098680E+02 -0.78670426738E+02  0.22874743719E+03  0.24628081078E+03  0.00000000000E+00 0. -1.
        -12    1    5    5    0    0  0.86824681936E+01 -0.28523281845E+01 -0.32065142715E+01  0.96851826920E+01  0.00000000000E+00 0.  1.
          5    1    4    4  501    0 -0.25264331557E+02  0.10890214038E+03 -0.74146673522E+02  0.13421312984E+03  0.41800000000E+01 0. -1.
         -5    1    4    4    0  501  0.24509263657E+02 -0.19307779177E+02  0.92089513517E+01  0.32798956184E+02  0.41800000000E+01 0. -1.
</event>
<event>
11    1  0.8453735E-009  0.1764014E+03  0.7561462E-02  0.1072591E+00
         22   -1    0    0    0    0  0.00000000000E+00  0.00000000000E+00  0.86065815659E+03  0.86065815659E+03  0.00000000000E+00 0.  1.
         22   -1    0    0    0    0 -0.00000000000E+00 -0.00000000000E+00 -0.83783263852E+03  0.83783263852E+03  0.00000000000E+00 0.  1.
         24    2    1    2    0    0  0.98040759221E+02  0.74563056788E+02 -0.78447656403E+03  0.79816961565E+03  0.80620195502E+02 0.  0.
         25    2    1    2    0    0 -0.19170502299E+03 -0.57267974521E+02  0.32225433800E+03  0.39940829123E+03  0.12509471611E+03 0.  0.
        -24    2    1    2    0    0  0.93664263774E+02 -0.17295082268E+02  0.48504774411E+03  0.50091288823E+03  0.81057346059E+02 0.  0.
        -11    1    3    3    0    0  0.62440188222E+02  0.83096165172E+02 -0.45797249350E+03  0.46961958495E+03  0.00000000000E+00 0.  1.
         12    1    3    3    0    0  0.35600570999E+02 -0.85331083840E+01 -0.32650407053E+03  0.32855003069E+03  0.00000000000E+00 0. -1.
         11    1    5    5    0    0  0.24995306585E+02 -0.43270243284E+02  0.15746613833E+03  0.16520491526E+03  0.00000000000E+00 0. -1.
        -12    1    5    5    0    0  0.68668957189E+02  0.25975161016E+02  0.32758160578E+03  0.33570797297E+03  0.00000000000E+00 0.  1.
          5    1    4    4  501    0 -0.10579128850E+03 -0.94490890601E+02  0.20435809967E+03  0.24879716725E+03  0.41800000000E+01 0.  1.
         -5    1    4    4    0  501 -0.85913734495E+02  0.37222916081E+02  0.11789623833E+03  0.15061112399E+03  0.41800000000E+01 0.  1.
</event>
<event>
11    1  0.8453735E-009  0.1441566E+03  0.7561462E-02  0.1103004E+00
         22   -1    0    0    0    0  0.00000000000E+00  0.00000000000E+00  0.11810206188E+04  0.11810206188E+04  0.00000000000E+00 0. -1.
         22   -1    0    0    0    0 -0.00000000000E+00 -0.00000000000E+00 -0.72829189621E+03  0.72829189621E+03  0.00000000000E+00 0.  1.
        -24    2    1    2    0    0 -0.48518130604E+02  0.12789033375E+02 -0.66854756869E+03  0.67525121147E+03  0.80565368566E+02 0.  0.
         25    2    1    2    0    0 -0.25351614183E+02 -0.91250092656E+01  0.22458243624E+02  0.12991759233E+03  0.12509291729E+03 0.  0.
         24    2    1    2    0    0  0.73869744787E+02 -0.36640241096E+01  0.10988180476E+04  0.11041437112E+04  0.79133235008E+02 0.  0.
        -13    1    5    5    0    0 -0.13955132791E+01 -0.29055763690E+01  0.51464260584E+00  0.32641520124E+01  0.00000000000E+00 0.  1.
         14    1    5    5    0    0  0.75265258066E+02 -0.75844774063E+00  0.10983034050E+04  0.11008795592E+04  0.00000000000E+00 0. -1.
         13    1    3    3    0    0 -0.50425733420E+01  0.30099872790E+02 -0.94644693835E+02  0.99443692404E+02  0.00000000000E+00 0. -1.
        -14    1    3    3    0    0 -0.43475557262E+02 -0.17310839414E+02 -0.57390287486E+03  0.57580751906E+03  0.00000000000E+00 0.  1.
          5    1    4    4  501    0 -0.76111165834E+02 -0.13943944018E+00  0.14443457300E+02  0.77582310269E+02  0.41800000000E+01 0. -1.
         -5    1    4    4    0  501  0.50759551650E+02 -0.89855698255E+01  0.80147863238E+01  0.52335282063E+02  0.41800000000E+01 0. -1.
</event>
<event>
11    1  0.8453735E-009  0.1354900E+03  0.7561462E-02  0.1112702E+00
         22   -1    0    0    0    0  0.00000000000E+00  0.00000000000E+00  0.49652035380E+03  0.49652035380E+03  0.00000000000E+00 0. -1.
         22   -1    0    0    0    0 -0.00000000000E+00 -0.00000000000E+00 -0.11461811579E+04  0.11461811579E+04  0.00000000000E+00 0.  1.
         24    2    1    2    0    0  0.18934624992E+02  0.50093087869E+02 -0.10508431818E+04  0.10553929087E+04  0.81944869054E+02 0.  0.
         25    2    1    2    0    0 -0.25607884847E+02 -0.13221154261E+02 -0.42228918732E+02  0.13513378497E+03  0.12508915051E+03 0.  0.
        -24    2    1    2    0    0  0.66732598548E+01 -0.36871933608E+02  0.44341129642E+03  0.45217481804E+03  0.80277122500E+02 0.  0.
        -11    1    3    3    0    0  0.38401272576E+02  0.22370277096E+00 -0.62821654511E+03  0.62938917636E+03  0.00000000000E+00 0.  1.
         12    1    3    3    0    0 -0.19466647584E+02  0.49869385098E+02 -0.42262663668E+03  0.42600373234E+03  0.00000000000E+00 0. -1.
         11    1    5    5    0    0  0.36946300940E+02 -0.11446446030E+02  0.32599833048E+03  0.32828487896E+03  0.00000000000E+00 0. -1.
        -12    1    5    5    0    0 -0.30273041086E+02 -0.25425487578E+02  0.11741296594E+03  0.12388993908E+03  0.00000000000E+00 0.  1.
          5    1    4    4  501    0 -0.49624343067E+02  0.42892299276E+02 -0.11694803729E+02  0.66757513407E+02  0.41800000000E+01 0.  1.
         -5    1    4    4    0  501  0.24016458219E+02 -0.56113453537E+02 -0.30534115003E+02  0.68376271559E+02  0.41800000000E+01 0.  1.
</event>
<event>
11    1  0.8453735E-009  0.2329588E+03  0.7561462E-02  0.1033390E+00
         22   -1    0    0    0    0  0.00000000000E+00  0.00000000000E+00  0.11838088265E+03  0.11838088265E+03  0.00000000000E+00 0. -1.
         22   -1    0    0    0    0 -0.00000000000E+00 -0.00000000000E+00 -0.15259275925E+04  0.15259275925E+04  0.00000000000E+00 0. -1.
        -24    2    1    2    0    0  0.17134528298E+03 -0.36358288997E+01 -0.58228795475E+03  0.61192360299E+03  0.77580979639E+02 0.  0.
         25    2    1    2    0    0 -0.22275948804E+03 -0.14051940386E+03 -0.80765471879E+03  0.85867318003E+03  0.12508394363E+03 0.  0.
         24    2    1    2    0    0  0.51414205051E+02  0.14415523276E+03 -0.17604036309E+02  0.17371169211E+03  0.80260191060E+02 0.  0.
        -11    1    5    5    0    0  0.16466124874E+02 -0.34190916004E+01  0.99971829795E+01  0.19564435164E+02  0.00000000000E+00 0.  1.
         12    1    5    5    0    0  0.34948080177E+02  0.14757432436E+03 -0.27601219288E+02  0.15414725695E+03  0.00000000000E+00 0. -1.
         11    1    3    3    0    0  0.12700821425E+03  0.10010436691E+00 -0.29455217158E+03  0.32076795085E+03  0.00000000000E+00 0. -1.
        -12    1    3    3    0    0  0.44337068734E+02 -0.37359332667E+01 -0.28773578316E+03  0.29115565214E+03  0.00000000000E+00 0.  1.
          5    1    4    4  501    0 -0.20402119484E+03 -0.14332877453E+03 -0.79974170707E+03  0.83771836317E+03  0.41800000000E+01 0.  1.
         -5    1    4    4    0  501 -0.18738293196E+02  0.28093706671E+01 -0.79130117113E+01  0.20954816864E+02  0.41800000000E+01 0.  1.
</event>
<event>
11    1  0.8453735E-009  0.1464395E+03  0.7561462E-02  0.1100573E+00
         22   -1    0    0    0    0  0.00000000000E+00  0.00000000000E+00  0.42129753625E+03  0.42129753625E+03  0.00000000000E+00 0. -1.
         22   -1    0    0    0    0 -0.00000000000E+00 -0.00000000000E+00 -0.36474294500E+03  0.36474294500E+03  0.00000000000E+00 0.  1.
        -24    2    1    2    0    0  0.42669169711E+02  0.63576776948E+02 -0.26030354227E+03  0.28313043277E+03  0.80884134628E+02 0.  0.
         25    2    1    2    0    0 -0.28354272524E+02 -0.69620592464E+02 -0.27012506850E+02  0.14841893990E+03  0.12509002570E+03 0.  0.
         24    2    1    2    0    0 -0.14314897187E+02  0.60438155158E+01  0.34387064037E+03  0.35449110857E+03  0.84708233122E+02 0.  0.
        -11    1    5    5    0    0 -0.10218794721E+02  0.22348499651E+02  0.24576211405E+02  0.34754415104E+02  0.00000000000E+00 0.  1.
         12    1    5    5    0    0 -0.40961024668E+01 -0.16304684135E+02  0.31929442897E+03  0.31973669347E+03  0.00000000000E+00 0. -1.
         11    1    3    3    0    0  0.31620105323E+02  0.69293893572E+01 -0.25134585483E+02  0.40982860868E+02  0.00000000000E+00 0. -1.
        -12    1    3    3    0    0  0.11049064388E+02  0.56647387591E+02 -0.23516895679E+03  0.24214757191E+03  0.00000000000E+00 0.  1.
          5    1    4    4  501    0 -0.23372116092E+02  0.93902979767E+01  0.38076183466E+02  0.45844319758E+02  0.41800000000E+01 0. -1.
         -5    1    4    4    0  501 -0.49821564316E+01 -0.79010890440E+02 -0.65088690316E+02  0.10257462015E+03  0.41800000000E+01 0. -1.
</event>
<event>
11    1  0.8453735E-009  0.1381178E+03  0.7561462E-02  0.1109679E+00
         22   -1    0    0    0    0  0.00000000000E+00  0.00000000000E+00  0.36309906761E+03  0.36309906761E+03  0.00000000000E+00 0. -1.
         22   -1    0    0    0    0 -0.00000000000E+00 -0.00000000000E+00 -0.13613022546E+04  0.13613022546E+04  0.00000000000E+00 0.  1.
        -24    2    1    2    0    0  0.61153091498E+02 -0.64912541182E+01 -0.97592682443E+03  0.98120553474E+03  0.80927731890E+02 0.  0.
         25    2    1    2    0    0 -0.46151251532E+02 -0.17010244101E+02 -0.36536529891E+03  0.38931591256E+03  0.12512310619E+03 0.  0.
         24    2    1    2    0    0 -0.15001839966E+02  0.23501498219E+02  0.34308893634E+03  0.35387987492E+03  0.82119254844E+02 0.  0.
        -11    1    5    5    0    0  0.13056904280E+02  0.26235247032E+01  0.53779515733E+01  0.14362729350E+02  0.00000000000E+00 0.  1.
         12    1    5    5    0    0 -0.28058744246E+02  0.20877973516E+02  0.33771098476E+03  0.33951714557E+03  0.00000000000E+00 0. -1.
         11    1    3    3    0    0  0.57593987247E+02 -0.18699820722E+02 -0.35350270660E+03  0.35865152200E+03  0.00000000000E+00 0. -1.
        -12    1    3    3    0    0  0.35591042508E+01  0.12208566604E+02 -0.62242411783E+03  0.62255401273E+03  0.00000000000E+00 0.  1.
          5    1    4    4  501    0  0.32111243451E+02 -0.34625345245E+02 -0.19904447108E+03  0.20461236609E+03  0.41800000000E+01 0. -1.
         -5    1    4    4    0  501 -0.78262494983E+02  0.17615101144E+02 -0.16632082784E+03  0.18470354648E+03  0.41800000000E+01 0. -1.
</event>
<event>
11    1  0.8453735E-009  0.1691634E+03  0.7561462E-02  0.1078762E+00
         22   -1    0    0    0    0  0.00000000000E+00  0.00000000000E+00  0.17319567417E+03  0.17319567417E+03  0.00000000000E+00 0.  1.
         22   -1    0    0    0    0 -0.00000000000E+00 -0.00000000000E+00 -0.93439981060E+03  0.93439981060E+03  0.00000000000E+00 0. -1.
         24    2    1    2    0    0  0.81264122859E+01 -0.51215913390E+02 -0.51343064574E+03  0.52258373726E+03  0.82423456048E+02 0.  0.
         25    2    1    2    0    0 -0.76962388841E+02 -0.43381029979E+02 -0.36510627299E+03  0.39592363445E+03  0.12509120943E+03 0.  0.
        -24    2    1    2    0    0  0.68835976555E+02  0.94596943369E+02  0.11733278230E+03  0.18908811306E+03  0.91106307867E+02 0.  0.
        -13    1    3    3    0    0 -0.26779735037E+02 -0.53367589394E+02 -0.37919022554E+03  0.38386258082E+03  0.00000000000E+00 0.  1.
         14    1    3    3    0    0  0.34906147323E+02  0.21516760040E+01 -0.13424042020E+03  0.13872115645E+03  0.00000000000E+00 0. -1.
         13    1    5    5    0    0 -0.10433052955E+02 -0.10451075163E+02  0.37159163551E+01  0.15227659057E+02  0.00000000000E+00 0. -1.
        -14    1    5    5    0    0  0.79269029510E+02  0.10504801853E+03  0.11361686595E+03  0.17386045400E+03  0.00000000000E+00 0.  1.
          5    1    4    4  501    0 -0.10200198159E+03 -0.37641630539E+01 -0.28814762573E+03  0.30572062375E+03  0.41800000000E+01 0.  1.
         -5    1    4    4    0  501  0.25039592751E+02 -0.39616866925E+02 -0.76958647264E+02  0.90203010697E+02  0.41800000000E+01 0.  1.
</event>
<event>
11    1  0.8453735E-009  0.1326777E+03  0.7561462E-02  0.1116022E+00
         22   -1    0    0    0    0  0.00000000000E+00  0.00000000000E+00  0.13927553062E+04  0.13927553062E+04  0.00000000000E+00 0.  1.
         22   -1    0    0    0    0 -0.00000000000E+00 -0.00000000000E+00 -0.99997436523E+03  0.99997436523E+03  0.00000000000E+00 0. -1.
        -24    2    1    2    0    0 -0.45061428766E+02 -0.10273482535E+00 -0.93240606805E+03  0.93757388688E+03  0.87368041622E+02 0.  0.
         25    2    1    2    0    0  0.20665614667E+02  0.42318309694E+02  0.71286451475E+01  0.13385077662E+03  0.12508919160E+03 0.  0.
         24    2    1    2    0    0  0.24395814099E+02 -0.42215574869E+02  0.13180583639E+04  0.13213050079E+04  0.78687755766E+02 0.  0.
        -11    1    5    5    0    0 -0.51104636626E+01 -0.46605387611E+02  0.11230430363E+04  0.11240212811E+04  0.00000000000E+00 0.  1.
         12    1    5    5    0    0  0.29506277761E+02  0.43898127423E+01  0.19501532757E+03  0.19728372683E+03  0.00000000000E+00 0. -1.
         13    1    3    3    0    0 -0.60715746967E+02 -0.26939566916E+02 -0.68857411447E+03  0.69177052071E+03  0.00000000000E+00 0. -1.
        -14    1    3    3    0    0  0.15654318201E+02  0.26836832090E+02 -0.24383195358E+03  0.24580336617E+03  0.00000000000E+00 0.  1.
          5    1    4    4  501    0 -0.40768106015E+01  0.28521762949E+02 -0.56786221333E+02  0.63814251384E+02  0.41800000000E+01 0. -1.
         -5    1    4    4    0  501  0.24742425268E+02  0.13796546745E+02  0.63914866481E+02  0.70036525239E+02  0.41800000000E+01 0. -1.
</event>
<event>
11    1  0.8453735E-009  0.1428246E+03  0.7561462E-02  0.1104445E+00
         22   -1    0    0    0    0  0.00000000000E+00  0.00000000000E+00  0.42763595539E+03  0.42763595539E+03  0.00000000000E+00 0. -1.
         22   -1    0    0    0    0 -0.00000000000E+00 -0.00000000000E+00 -0.13506155039E+04  0.13506155039E+04  0.00000000000E+00 0.  1.
        -24    2    1    2    0    0  0.21459414260E+02 -0.29622343861E+02 -0.10928930351E+04  0.10964301495E+04  0.80036847626E+02 0.  0.
         25    2    1    2    0    0  0.37351156285E+02  0.65746812366E+02 -0.22766526145E+03  0.27054344749E+03  0.12507810958E+03 0.  0.
         24    2    1    2    0    0 -0.58810570546E+02 -0.36124468505E+02  0.39757874804E+03  0.41127786224E+03  0.79479296926E+02 0.  0.
        -13    1    5    5    0    0 -0.79637293763E+01  0.67372731754E+01  0.26143039303E+01  0.10753902569E+02  0.00000000000E+00 0.  1.
         14    1    5    5    0    0 -0.50846841169E+02 -0.42861741681E+02  0.39496444411E+03  0.40052395967E+03  0.00000000000E+00 0. -1.
         11    1    3    3    0    0  0.17809920917E+02 -0.29726704693E+02 -0.16833452286E+03  0.17186442867E+03  0.00000000000E+00 0. -1.
        -12    1    3    3    0    0  0.36494933432E+01  0.10436083226E+00 -0.92455851220E+03  0.92456572085E+03  0.00000000000E+00 0.  1.
          5    1    4    4  501    0 -0.31299861157E+02 -0.59074510566E+01 -0.14241661012E+02  0.35140810958E+02  0.41800000000E+01 0. -1.
         -5    1    4    4    0  501  0.68651017442E+02  0.71654263423E+02 -0.21342360043E+03  0.23540263653E+03  0.41800000000E+01 0. -1.
</event>
<event>
11    1  0.8453735E-009  0.1510836E+03  0.7561462E-02  0.1095777E+00
         22   -1    0    0    0    0  0.00000000000E+00  0.00000000000E+00  0.49464469709E+03  0.49464469709E+03  0.00000000000E+00 0.  1.
         22   -1    0    0    0    0 -0.00000000000E+00 -0.00000000000E+00 -0.22365796634E+04  0.22365796634E+04  0.00000000000E+00 0.  1.
        -24    2    1    2    0    0 -0.52691478750E+02 -0.22965297224E+02 -0.21697475002E+04  0.21720640883E+04  0.82185108615E+02 0.  0.
         25    2    1    2    0    0  0.12027527832E+03 -0.20190405488E+02  0.77297036629E+02  0.19104101213E+03  0.12509213162E+03 0.  0.
         24    2    1    2    0    0 -0.67583799575E+02  0.43155702711E+02  0.35051549733E+03  0.36811926002E+03  0.78871357835E+02 0.  0.
        -11    1    5    5    0    0 -0.56725379446E+02  0.41074073429E+02  0.13290825926E+03  0.15023133348E+03  0.00000000000E+00 0.  1.
         12    1    5    5    0    0 -0.10858420130E+02  0.20816292818E+01  0.21760723808E+03  0.21788792654E+03  0.00000000000E+00 0. -1.
         11    1    3    3    0    0  0.85569469607E+00  0.25508105259E+02 -0.37752754457E+03  0.37838927384E+03  0.00000000000E+00 0. -1.
        -12    1    3    3    0    0 -0.53547173446E+02 -0.48473402483E+02 -0.17922199557E+04  0.17936748144E+04  0.00000000000E+00 0.  1.
          5    1    4    4  501    0  0.85670007248E+01  0.61207831817E+01 -0.31114193599E+02  0.33112277655E+02  0.41800000000E+01 0. -1.
         -5    1    4    4    0  501  0.11170827760E+03 -0.26311188669E+02  0.10841123023E+03  0.15792873448E+03  0.41800000000E+01 0. -1.
</event>
<event>
11    1  0.8453735E-009  0.1379569E+03  0.7561462E-02  0.1109861E+00
         22   -1    0    0    0    0  0.00000000000E+00  0.00000000000E+00  0.14944432427E+04  0.14944432427E+04  0.00000000000E+00 0. -1.
         22   -1    0    0    0    0 -0.00000000000E+00 -0.00000000000E+00 -0.64984923052E+02  0.64984923052E+02  0.00000000000E+00 0.  1.
         24    2    1    2    0    0  0.39032899917E+02 -0.23861012810E+02 -0.10991577614E+02  0.93838824998E+02  0.81191102285E+02 0.  0.
         25    2    1    2    0    0 -0.71312186002E+02 -0.22979008467E+02  0.52308774259E+03  0.54303053750E+03  0.12509162844E+03 0.  0.
        -24    2    1    2    0    0  0.32279286085E+02  0.46840021277E+02  0.91736215466E+03  0.92255880324E+03  0.79532903498E+02 0.  0.
        -13    1    3    3    0    0  0.39224100975E+02 -0.51942520129E+02 -0.67445739783E+01  0.65437334701E+02  0.00000000000E+00 0.  1.
         14    1    3    3    0    0 -0.19120105753E+00  0.28081507319E+02 -0.42470036356E+01  0.28401490296E+02  0.00000000000E+00 0. -1.
         13    1    5    5    0    0  0.48166853806E+02  0.22095012608E+02  0.31088681346E+03  0.31537096596E+03  0.00000000000E+00 0. -1.
        -14    1    5    5    0    0 -0.15887567721E+02  0.24745008670E+02  0.60647534120E+03  0.60718783729E+03  0.00000000000E+00 0.  1.
          5    1    4    4  501    0 -0.92972898817E+02 -0.32817200212E+02  0.24842397518E+03  0.26730670097E+03  0.41800000000E+01 0.  1.
         -5    1    4    4    0  501  0.21660712815E+02  0.98381917453E+01  0.27466376742E+03  0.27572383653E+03  0.41800000000E+01 0.  1.
</event>
<event>
11    1  0.8453735E-009  0.1596674E+03  0.7561462E-02  0.1087391E+00
         22   -1    0    0    0    0  0.00000000000E+00  0.00000000000E+00  0.44467163694E+03  0.44467163694E+03  0.00000000000E+00 0. -1.
         22   -1    0    0    0    0 -0.00000000000E+00 -0.00000000000E+00 -0.46241774174E+03  0.46241774174E+03  0.00000000000E+00 0.  1.
         24    2    1    2    0    0 -0.87990897863E+02  0.44008368848E+02 -0.35667651895E+03  0.37849186533E+03  0.79742199071E+02 0.  0.
         25    2    1    2    0    0  0.11287447564E+03 -0.74486062576E+01 -0.88464473762E+01  0.16888307665E+03  0.12508838860E+03 0.  0.
        -24    2    1    2    0    0 -0.24883577781E+02 -0.36559762591E+02  0.34777686153E+03  0.35971443670E+03  0.80560051346E+02 0.  0.
        -11    1    3    3    0    0 -0.65143054645E+02  0.67335746090E+02 -0.25270148148E+03  0.26951022061E+03  0.00000000000E+00 0.  1.
         12    1    3    3    0    0 -0.22847843218E+02 -0.23327377242E+02 -0.10397503747E+03  0.10898164472E+03  0.00000000000E+00 0. -1.
         13    1    5    5    0    0 -0.13068490728E+02 -0.55850861507E+02  0.31310333014E+03  0.31831399518E+03  0.00000000000E+00 0. -1.
        -14    1    5    5    0    0 -0.11815087053E+02  0.19291098916E+02  0.34673531390E+02  0.41400441526E+02  0.00000000000E+00 0.  1.
          5    1    4    4  501    0  0.52011353795E+02 -0.38893754419E+02  0.47100392349E+02  0.80335698265E+02  0.41800000000E+01 0. -1.
         -5    1    4    4    0  501  0.60863121849E+02  0.31445148161E+02 -0.55946839725E+02  0.88547378388E+02  0.41800000000E+01 0. -1.
</event>
<event>
11    1  0.8453735E-009  0.2735396E+03  0.7561462E-02  0.1012056E+00
         22   -1    0    0    0    0  0.00000000000E+00  0.00000000000E+00  0.12943280044E+04  0.12943280044E+04  0.00000000000E+00 0.  1.
         22   -1    0    0    0    0 -0.00000000000E+00 -0.00000000000E+00 -0.64047234404E+03  0.64047234404E+03  0.00000000000E+00 0. -1.
         24    2    1    2    0    0  0.24709111028E+03  0.44015754270E+02 -0.38697535043E+03  0.46832693429E+03  0.81171375141E+02 0.  0.
         25    2    1    2    0    0 -0.22399430957E+03 -0.42773250408E+02 -0.13038658592E+03  0.29094812041E+03  0.12508854987E+03 0.  0.
        -24    2    1    2    0    0 -0.23096800707E+02 -0.12425038621E+01  0.11712175967E+04  0.11755252938E+04  0.97847081628E+02 0.  0.
        -11    1    3    3    0    0  0.25233357378E+02  0.67315190480E+01 -0.74889914581E+01  0.27168376218E+02  0.00000000000E+00 0.  1.
         12    1    3    3    0    0  0.22185775290E+03  0.37284235222E+02 -0.37948635897E+03  0.44115855808E+03  0.00000000000E+00 0. -1.
         13    1    5    5    0    0  0.17879093898E+02 -0.16889487855E+01  0.43471559363E+02  0.47034997822E+02  0.00000000000E+00 0. -1.
        -14    1    5    5    0    0 -0.40975894605E+02  0.44644492333E+00  0.11277460374E+04  0.11284902959E+04  0.00000000000E+00 0.  1.
          5    1    4    4  501    0 -0.15520531438E+03 -0.29548913730E+02 -0.15019603058E+03  0.21803244693E+03  0.41800000000E+01 0. -1.
         -5    1    4    4    0  501 -0.68788995194E+02 -0.13224336678E+02  0.19809444659E+02  0.72915673474E+02  0.41800000000E+01 0. -1.
</event>
<event>
11    1  0.8453735E-009  0.1599003E+03  0.7561462E-02  0.1087171E+00
         22   -1    0    0    0    0  0.00000000000E+00  0.00000000000E+00  0.17253000859E+03  0.17253000859E+03  0.00000000000E+00 0.  1.
         22   -1    0    0    0    0 -0.00000000000E+00 -0.00000000000E+00 -0.79506717720E+03  0.79506717720E+03  0.00000000000E+00 0. -1.
         24    2    1    2    0    0 -0.28540168270E+01 -0.27122592367E+02 -0.63637671049E+03  0.64213776427E+03  0.81374505933E+02 0.  0.
         25    2    1    2    0    0  0.38968789080E+02  0.11342511425E+03 -0.57197223559E+02  0.18249162855E+03  0.12509136279E+03 0.  0.
        -24    2    1    2    0    0 -0.36114772253E+02 -0.86302521883E+02  0.71036765444E+02  0.14296779297E+03  0.81493347731E+02 0.  0.
        -11    1    3    3    0    0 -0.17705033652E+02  0.23439882757E+02 -0.32582822009E+03  0.32714969865E+03  0.00000000000E+00 0.  1.
         12    1    3    3    0    0  0.14851016825E+02 -0.50562475124E+02 -0.31054849041E+03  0.31498806562E+03  0.00000000000E+00 0. -1.
         13    1    5    5    0    0 -0.13771558167E+02  0.65586884301E+01 -0.95539780541E+01  0.17998630640E+02  0.00000000000E+00 0. -1.
        -14    1    5    5    0    0 -0.22343214086E+02 -0.92861210313E+02  0.80590743498E+02  0.12496916233E+03  0.00000000000E+00 0.  1.
          5    1    4    4  501    0  0.17471137467E+02  0.13029789207E+03 -0.15470185593E+02  0.13243708077E+03  0.41800000000E+01 0.  1.
         -5    1    4    4    0  501  0.21497651613E+02 -0.16872777817E+02 -0.41727037966E+02  0.50054547781E+02  0.41800000000E+01 0.  1.
</event>
<event>
11    1  0.8453735E-009  0.1290594E+03  0.7561462E-02  0.1120430E+00
         22   -1    0    0    0    0  0.00000000000E+00  0.00000000000E+00  0.59777260508E+03  0.59777260508E+03  0.00000000000E+00 0.  1.
         22   -1    0    0    0    0 -0.00000000000E+00 -0.00000000000E+00 -0.15338477030E+03  0.15338477030E+03  0.00000000000E+00 0. -1.
         24    2    1    2    0    0  0.89944915833E+01  0.35951732877E+02 -0.11486556461E+03  0.14389627770E+03  0.78349300097E+02 0.  0.
         25    2    1    2    0    0 -0.71839713909E+01  0.36415977354E+01  0.19042438174E+03  0.22797734105E+03  0.12508937682E+03 0.  0.
        -24    2    1    2    0    0 -0.18105201925E+01 -0.39593330612E+02  0.36882901766E+03  0.37928375663E+03  0.79059559594E+02 0.  0.
        -11    1    3    3    0    0  0.37209249184E+01  0.48478725495E+02 -0.28274147143E+02  0.56244639785E+02  0.00000000000E+00 0.  1.
         12    1    3    3    0    0  0.52735666650E+01 -0.12526992618E+02 -0.86591417470E+02  0.87651637913E+02  0.00000000000E+00 0. -1.
         11    1    5    5    0    0 -0.37791194630E+02 -0.28398137943E+02  0.25601943986E+03  0.26034704189E+03  0.00000000000E+00 0. -1.
        -12    1    5    5    0    0  0.35980674437E+02 -0.11195192670E+02  0.11280957780E+03  0.11893671475E+03  0.00000000000E+00 0.  1.
          5    1    4    4  501    0 -0.44722590279E+02  0.16873959032E+02  0.18046554467E+03  0.18673544331E+03  0.41800000000E+01 0. -1.
         -5    1    4    4    0  501  0.37538618888E+02 -0.13232361296E+02  0.99588370649E+01  0.41241897740E+02  0.41800000000E+01 0. -1.
</event>
<event>
11    1  0.1221233E-008  0.1656977E+03  0.7561462E-02  0.1081838E+00
         22   -1    0    0    0    0  0.00000000000E+00  0.00000000000E+00  0.10798744055E+04  0.10798744055E+04  0.00000000000E+00 0. -1.
         22   -1    0    0    0    0 -0.00000000000E+00 -0.00000000000E+00 -0.13556015680E+04  0.13556015680E+04  0.00000000000E+00 0. -1.
        -24    2    1    2    0    0 -0.77685595764E+02  0.70676481291E+02 -0.12048151391E+04  0.12140723401E+04  0.10659226406E+03 0.  0.
         25    2    1    2    0    0  0.94484693051E+02 -0.15399215924E+03 -0.58305112017E+02  0.22737548838E+03  0.12513666249E+03 0.  0.
         24    2    1    2    0    0 -0.16799097287E+02  0.83315677952E+02  0.98739308864E+03  0.99402814507E+03  0.76961872529E+02 0.  0.
        -11    1    5    5    0    0 -0.10832672230E+02  0.25551330618E+02  0.78133058939E+02  0.82915572622E+02  0.00000000000E+00 0.  1.
         12    1    5    5    0    0 -0.59664250573E+01  0.57764347333E+02  0.90926002970E+03  0.91111257245E+03  0.00000000000E+00 0. -1.
         11    1    3    3    0    0 -0.96659154191E+01  0.76415511750E+02 -0.78178030702E+03  0.78556553438E+03  0.00000000000E+00 0. -1.
        -12    1    3    3    0    0 -0.68019680344E+02 -0.57390304588E+01 -0.42303483209E+03  0.42850680571E+03  0.00000000000E+00 0.  1.
          5    1    4    4  501    0  0.89721776599E+02 -0.10930708983E+03 -0.93980014908E+02  0.16984626191E+03  0.41800000000E+01 0.  1.
         -5    1    4    4    0  501  0.47629164519E+01 -0.44685069416E+02  0.35674902891E+02  0.57529226470E+02  0.41800000000E+01 0.  1.
</event>
<event>
11    1  0.8727183E-009  0.1611577E+03  0.7561462E-02  0.1085993E+00
         22   -1    0    0    0    0  0.00000000000E+00  0.00000000000E+00  0.78742331134E+03  0.78742331134E+03  0.00000000000E+00 0. -1.
         22   -1    0    0    0    0 -0.00000000000E+00 -0.00000000000E+00 -0.52470026365E+03  0.52470026365E+03  0.00000000000E+00 0. -1.
         24    2    1    2    0    0  0.86559429127E+02 -0.73793111590E+02 -0.40753755382E+03  0.43071374215E+03  0.80557506232E+02 0.  0.
         25    2    1    2    0    0 -0.33777404947E+02  0.42848778863E+02 -0.56431841345E+02  0.14770577760E+03  0.12512199281E+03 0.  0.
        -24    2    1    2    0    0 -0.52782024181E+02  0.30944332728E+02  0.72669244286E+03  0.73370405525E+03  0.80599257908E+02 0.  0.
        -11    1    3    3    0    0  0.17545071216E+01 -0.39617896674E+01  0.32973564624E+01  0.54448721058E+01  0.00000000000E+00 0.  1.
         12    1    3    3    0    0  0.84804922005E+02 -0.69831321923E+02 -0.41083491028E+03  0.42526887004E+03  0.00000000000E+00 0. -1.
         13    1    5    5    0    0 -0.44369970097E+02  0.55596917448E+02  0.42724938062E+03  0.43313017064E+03  0.00000000000E+00 0. -1.
        -14    1    5    5    0    0 -0.84120540836E+01 -0.24652584720E+02  0.29944306223E+03  0.30057388461E+03  0.00000000000E+00 0.  1.
          5    1    4    4  501    0 -0.68316573658E+02 -0.99703158109E+01 -0.47320880663E+02  0.83805128605E+02  0.41800000000E+01 0.  1.
         -5    1    4    4    0  501  0.34539168712E+02  0.52819094674E+02 -0.91109606823E+01  0.63900648995E+02  0.41800000000E+01 0.  1.
</event>
<event>
11    1  0.8453735E-009  0.1647605E+03  0.7561462E-02  0.1082683E+00
         22   -1    0    0    0    0  0.00000000000E+00  0.00000000000E+00  0.47428121425E+03  0.47428121425E+03  0.00000000000E+00 0.  1.
         22   -1    0    0    0    0 -0.00000000000E+00 -0.00000000000E+00 -0.40332062295E+03  0.40332062295E+03  0.00000000000E+00 0.  1.
         24    2    1    2    0    0 -0.10757418467E+03 -0.41617191164E+02 -0.32704127637E+03  0.35612368242E+03  0.81017806242E+02 0.  0.
         25    2    1    2    0    0  0.57034320623E+02  0.14598323380E+02  0.32650369565E+02  0.14205525626E+03  0.12509046496E+03 0.  0.
        -24    2    1    2    0    0  0.50539864043E+02  0.27018867784E+02  0.36535149810E+03  0.37942289852E+03  0.84827599782E+02 0.  0.
        -13    1    3    3    0    0 -0.90182560313E+02 -0.11018688383E+02 -0.29447831601E+03  0.30817492480E+03  0.00000000000E+00 0.  1.
         14    1    3    3    0    0 -0.17391624354E+02 -0.30598502781E+02 -0.32562960359E+02  0.47948757622E+02  0.00000000000E+00 0. -1.
         11    1    5    5    0    0 -0.21423383421E+02  0.20242840842E+02  0.87870704501E+02  0.92682224143E+02  0.00000000000E+00 0. -1.
        -12    1    5    5    0    0  0.71963247465E+02  0.67760269418E+01  0.27748079360E+03  0.28674067438E+03  0.00000000000E+00 0.  1.
          5    1    4    4  501    0  0.66197130827E+02  0.49552935032E+02  0.54965755763E+02  0.99379375157E+02  0.41800000000E+01 0.  1.
         -5    1    4    4    0  501 -0.91628102038E+01 -0.34954611652E+02 -0.22315386198E+02  0.42675881101E+02  0.41800000000E+01 0.  1.
</event>
<event>
11    1  0.8453735E-009  0.1321259E+03  0.7561462E-02  0.1116684E+00
         22   -1    0    0    0    0  0.00000000000E+00  0.00000000000E+00  0.21428518001E+03  0.21428518001E+03  0.00000000000E+00 0.  1.
         22   -1    0    0    0    0 -0.00000000000E+00 -0.00000000000E+00 -0.64488055527E+03  0.64488055527E+03  0.00000000000E+00 0.  1.
        -24    2    1    2    0    0  0.11267283169E+02 -0.28219732074E+02 -0.29350858920E+03  0.30568661909E+03  0.79835532218E+02 0.  0.
         25    2    1    2    0    0  0.80519290353E+01  0.65428206736E+02 -0.31991395631E+03  0.34976992712E+03  0.12509347974E+03 0.  0.
         24    2    1    2    0    0 -0.19319212204E+02 -0.37208474662E+02  0.18282717026E+03  0.20370918908E+03  0.79460411433E+02 0.  0.
        -13    1    5    5    0    0 -0.10432835019E+01 -0.17001999499E+02  0.17434330782E+03  0.17517347234E+03  0.00000000000E+00 0.  1.
         14    1    5    5    0    0 -0.18275928702E+02 -0.20206475163E+02  0.84838624357E+01  0.28535716747E+02  0.00000000000E+00 0. -1.
         13    1    3    3    0    0 -0.32132332314E+02 -0.30568388654E+01 -0.77971065846E+02  0.84387902883E+02  0.00000000000E+00 0. -1.
        -14    1    3    3    0    0  0.43399615483E+02 -0.25162893209E+02 -0.21553752336E+03  0.22129871620E+03  0.00000000000E+00 0.  1.
          5    1    4    4  501    0  0.57581838140E+02  0.31971214393E+02 -0.86570170035E+02  0.10885629689E+03  0.41800000000E+01 0. -1.
         -5    1    4    4    0  501 -0.49529909105E+02  0.33456992343E+02 -0.23334378628E+03  0.24091363022E+03  0.41800000000E+01 0. -1.
</event>
<event>
11    1  0.8453735E-009  0.1778257E+03  0.7561462E-02  0.1071415E+00
         22   -1    0    0    0    0  0.00000000000E+00  0.00000000000E+00  0.10094435491E+04  0.10094435491E+04  0.00000000000E+00 0. -1.
         22   -1    0    0    0    0 -0.00000000000E+00 -0.00000000000E+00 -0.11825867823E+03  0.11825867823E+03  0.00000000000E+00 0. -1.
        -24    2    1    2    0    0 -0.51577255409E+02 -0.11633060518E+03 -0.39588527640E+02  0.14855555780E+03  0.65639007127E+02 0.  0.
         25    2    1    2    0    0  0.27678476079E+02  0.11944327507E+03  0.33857289447E+03  0.38119844697E+03  0.12509139498E+03 0.  0.
         24    2    1    2    0    0  0.23898779329E+02 -0.31126698886E+01  0.59220050406E+03  0.59794822259E+03  0.79118894806E+02 0.  0.
        -11    1    5    5    0    0  0.15036529057E+02  0.13907766063E+02  0.36016011021E+02  0.41432791516E+02  0.00000000000E+00 0.  1.
         12    1    5    5    0    0  0.88622502721E+01 -0.17020435951E+02  0.55618449304E+03  0.55651543107E+03  0.00000000000E+00 0. -1.
         11    1    3    3    0    0 -0.13536203051E+02 -0.81105082490E+02 -0.49206302029E+02  0.95825483866E+02  0.00000000000E+00 0. -1.
        -12    1    3    3    0    0 -0.38041052358E+02 -0.35225522689E+02  0.96177743893E+01  0.52730073937E+02  0.00000000000E+00 0.  1.
          5    1    4    4  501    0 -0.30069626386E+02  0.90458280768E+02  0.12042510048E+03  0.15364426516E+03  0.41800000000E+01 0.  1.
         -5    1    4    4    0  501  0.57748102466E+02  0.28984994300E+02  0.21814779399E+03  0.22755418181E+03  0.41800000000E+01 0.  1.
</event>
<event>
11    1  0.8453735E-009  0.1442649E+03  0.7561462E-02  0.1102887E+00
         22   -1    0    0    0    0  0.00000000000E+00  0.00000000000E+00  0.39039873974E+03  0.39039873974E+03  0.00000000000E+00 0. -1.
         22   -1    0    0    0    0 -0.00000000000E+00 -0.00000000000E+00 -0.42219132226E+03  0.42219132226E+03  0.00000000000E+00 0. -1.
         24    2    1    2    0    0 -0.30216885834E+02  0.28206639073E+01 -0.36953234619E+03  0.37954864452E+03  0.81129540515E+02 0.  0.
         25    2    1    2    0    0  0.39319625324E+02 -0.71717299661E+02  0.12852680721E+03  0.19711886128E+03  0.12508917337E+03 0.  0.
        -24    2    1    2    0    0 -0.91027394909E+01  0.68896635754E+02  0.20921295647E+03  0.23592255619E+03  0.84022527237E+02 0.  0.
        -13    1    3    3    0    0 -0.10933810726E+02  0.58418960378E+00 -0.15546033701E+01  0.11059217248E+02  0.00000000000E+00 0.  1.
         14    1    3    3    0    0 -0.19283075107E+02  0.22364743035E+01 -0.36797774282E+03  0.36848942728E+03  0.00000000000E+00 0. -1.
         11    1    5    5    0    0  0.28431059913E+02  0.12650765804E+02  0.12005778690E+03  0.12402515567E+03  0.00000000000E+00 0. -1.
        -12    1    5    5    0    0 -0.37533799404E+02  0.56245869950E+02  0.89155169569E+02  0.11189740053E+03  0.00000000000E+00 0.  1.
          5    1    4    4  501    0 -0.20226909362E+02 -0.14084673086E+02  0.10906358974E+03  0.11189211270E+03  0.41800000000E+01 0. -1.
         -5    1    4    4    0  501  0.59546534687E+02 -0.57632626575E+02  0.19463217472E+02  0.85226748580E+02  0.41800000000E+01 0. -1.
</event>
<event>
11    1  0.8453735E-009  0.2350794E+03  0.7561462E-02  0.1032162E+00
         22   -1    0    0    0    0  0.00000000000E+00  0.00000000000E+00  0.14742639191E+04  0.14742639191E+04  0.00000000000E+00 0. -1.
         22   -1    0    0    0    0 -0.00000000000E+00 -0.00000000000E+00 -0.90592585380E+03  0.90592585380E+03  0.00000000000E+00 0. -1.
         24    2    1    2    0    0 -0.83671558617E+02 -0.56180109468E+02 -0.82888175344E+03  0.83862945938E+03  0.78085046805E+02 0.  0.
         25    2    1    2    0    0  0.19130271565E+03  0.20855254755E+03  0.31941415312E+03  0.44470617892E+03  0.12508912925E+03 0.  0.
        -24    2    1    2    0    0 -0.10763115703E+03 -0.15237243808E+03  0.10778056656E+04  0.10968541346E+04  0.81376371763E+02 0.  0.
        -11    1    3    3    0    0 -0.35345170051E+02 -0.55634984149E+02 -0.28129956049E+03  0.28891863083E+03  0.00000000000E+00 0.  1.
         12    1    3    3    0    0 -0.48326388566E+02 -0.54512531885E+00 -0.54758219295E+03  0.54971082855E+03  0.00000000000E+00 0. -1.
         11    1    5    5    0    0 -0.83265396328E+02 -0.14328767230E+03  0.10212166733E+04  0.10345762307E+04  0.00000000000E+00 0. -1.
        -12    1    5    5    0    0 -0.24365760707E+02 -0.90847657821E+01  0.56588992300E+02  0.62277903896E+02  0.00000000000E+00 0.  1.
          5    1    4    4  501    0  0.19308194317E+03  0.13590215515E+03  0.23346930614E+03  0.33207743354E+03  0.41800000000E+01 0.  1.
         -5    1    4    4    0  501 -0.17792275175E+01  0.72650392395E+02  0.85944846974E+02  0.11262874539E+03  0.41800000000E+01 0.  1.
</event>
<event>
11    1  0.8453735E-009  0.1373149E+03  0.7561462E-02  0.1110594E+00
         22   -1    0    0    0    0  0.00000000000E+00  0.00000000000E+00  0.74322387428E+03  0.74322387428E+03  0.00000000000E+00 0.  1.
         22   -1    0    0    0    0 -0.00000000000E+00 -0.00000000000E+00 -0.16745060618E+03  0.16745060618E+03  0.00000000000E+00 0. -1.
        -24    2    1    2    0    0  0.75102505247E+01 -0.96952413259E+01 -0.13733129939E+03  0.15907718726E+03  0.79342700655E+02 0.  0.
         25    2    1    2    0    0  0.16985714016E+02 -0.46520061767E+02  0.37485236509E+03  0.39825922097E+03  0.12507390153E+03 0.  0.
         24    2    1    2    0    0 -0.24495964540E+02  0.56215303093E+02  0.33825220239E+03  0.35333807223E+03  0.81688605591E+02 0.  0.
        -11    1    5    5    0    0  0.17386312006E+02  0.54043874283E+02  0.23779761754E+03  0.24448053318E+03  0.00000000000E+00 0.  1.
         12    1    5    5    0    0 -0.41882276546E+02  0.21714288104E+01  0.10045458485E+03  0.10885753905E+03  0.00000000000E+00 0. -1.
         11    1    3    3    0    0  0.22223965622E+02 -0.99435860619E+01 -0.14166070817E+03  0.14373773266E+03  0.00000000000E+00 0. -1.
        -12    1    3    3    0    0 -0.14713715098E+02  0.24834473596E+00  0.43294087774E+01  0.15339454601E+02  0.00000000000E+00 0.  1.
          5    1    4    4  501    0  0.72157149324E+01 -0.21320044376E+02  0.48888241477E+00  0.22898083767E+02  0.41800000000E+01 0.  1.
         -5    1    4    4    0  501  0.97699990833E+01 -0.25200017391E+02  0.37436348268E+03  0.37536113720E+03  0.41800000000E+01 0.  1.
</event>
<event>
11    1  0.8453735E-009  0.1336265E+03  0.7561462E-02  0.1114892E+00
         22   -1    0    0    0    0  0.00000000000E+00  0.00000000000E+00  0.17843259776E+04  0.17843259776E+04  0.00000000000E+00 0.  1.
         22   -1    0    0    0    0 -0.00000000000E+00 -0.00000000000E+00 -0.12023709265E+04  0.12023709265E+04  0.00000000000E+00 0.  1.
         24    2    1    2    0    0 -0.41285024645E+02 -0.21966393569E+02 -0.11706550359E+04  0.11745588022E+04  0.83475691648E+02 0.  0.
         25    2    1    2    0    0  0.59625958986E+02  0.31631627846E+02  0.14721445266E+03  0.20463537237E+03  0.12509086973E+03 0.  0.
        -24    2    1    2    0    0 -0.18340934341E+02 -0.96652342765E+01  0.16053956344E+04  0.16075027295E+04  0.79624593340E+02 0.  0.
        -11    1    3    3    0    0 -0.55263430928E+02 -0.22857295605E+02 -0.11295654002E+04  0.11311474245E+04  0.00000000000E+00 0.  1.
         12    1    3    3    0    0  0.13978406283E+02  0.89090203620E+00 -0.41089635700E+02  0.43411377663E+02  0.00000000000E+00 0. -1.
         11    1    5    5    0    0  0.23207369990E+02  0.82622630792E+01  0.10425514573E+04  0.10428424560E+04  0.00000000000E+00 0. -1.
        -12    1    5    5    0    0 -0.41548304332E+02 -0.17927497356E+02  0.56284417711E+03  0.56466027350E+03  0.00000000000E+00 0.  1.
          5    1    4    4  501    0 -0.80140533957E+01  0.21727009098E+01 -0.19871479107E+02  0.21938408397E+02  0.41800000000E+01 0. -1.
         -5    1    4    4    0  501  0.67640012382E+02  0.29458926936E+02  0.16708593177E+03  0.18269696397E+03  0.41800000000E+01 0. -1.
</event>
<event>
11    1  0.8453735E-009  0.1372597E+03  0.7561462E-02  0.1110658E+00
         22   -1    0    0    0    0  0.00000000000E+00  0.00000000000E+00  0.27356524564E+03  0.27356524564E+03  0.00000000000E+00 0. -1.
         22   -1    0    0    0    0 -0.00000000000E+00 -0.00000000000E+00 -0.61886827205E+03  0.61886827205E+03  0.00000000000E+00 0. -1.
        -24    2    1    2    0    0  0.43209315046E+02  0.31244822388E+02 -0.52669431569E+03  0.53545781525E+03  0.80404514192E+02 0.  0.
         25    2    1    2    0    0 -0.86746649347E+02 -0.50631877826E+02  0.15194569888E+02  0.16114551296E+03  0.12509369755E+03 0.  0.
         24    2    1    2    0    0  0.43537334301E+02  0.19387055438E+02  0.16619671940E+03  0.19583018948E+03  0.91960622978E+02 0.  0.
        -13    1    5    5    0    0 -0.25069627823E+02 -0.24173979874E+01  0.17636676191E+02  0.30747071394E+02  0.00000000000E+00 0.  1.
         14    1    5    5    0    0  0.68606962124E+02  0.21804453425E+02  0.14856004321E+03  0.16508311809E+03  0.00000000000E+00 0. -1.
         11    1    3    3    0    0  0.57145667839E+02  0.75954372455E+01 -0.21624486414E+03  0.22379713869E+03  0.00000000000E+00 0. -1.
        -12    1    3    3    0    0 -0.13936352793E+02  0.23649385143E+02 -0.31044945155E+03  0.31166067656E+03  0.00000000000E+00 0.  1.
          5    1    4    4  501    0 -0.64553318090E+02 -0.56323785037E+02 -0.44815165936E+02  0.96774847638E+02  0.41800000000E+01 0.  1.
         -5    1    4    4    0  501 -0.22193331257E+02  0.56919072112E+01  0.60009735824E+02  0.64370665319E+02  0.41800000000E+01 0.  1.
</event>
<event>
11    1  0.8453735E-009  0.1591069E+03  0.7561462E-02  0.1087920E+00
         22   -1    0    0    0    0  0.00000000000E+00  0.00000000000E+00  0.18140420143E+03  0.18140420143E+03  0.00000000000E+00 0. -1.
         22   -1    0    0    0    0 -0.00000000000E+00 -0.00000000000E+00 -0.40764622032E+04  0.40764622032E+04  0.00000000000E+00 0. -1.
        -24    2    1    2    0    0  0.96697297528E+02  0.18804903175E+02 -0.38654436294E+04  0.38676605410E+04  0.86253211168E+02 0.  0.
         25    2    1    2    0    0 -0.92548291813E+02 -0.12445526535E+02 -0.16882423000E+03  0.22993284808E+03  0.12508963403E+03 0.  0.
         24    2    1    2    0    0 -0.41490057148E+01 -0.63593766399E+01  0.13920985770E+03  0.16027301551E+03  0.79059465593E+02 0.  0.
        -11    1    5    5    0    0 -0.10416159829E+02 -0.13824384044E+02 -0.31383871666E+01  0.17591459683E+02  0.00000000000E+00 0.  1.
         12    1    5    5    0    0  0.62671541145E+01  0.74650074041E+01  0.14234824487E+03  0.14268155583E+03  0.00000000000E+00 0. -1.
         11    1    3    3    0    0  0.41636649333E+02  0.47365172577E+02 -0.25185502781E+04  0.25193397098E+04  0.00000000000E+00 0. -1.
        -12    1    3    3    0    0  0.55060648195E+02 -0.28560269402E+02 -0.13468933514E+04  0.13483208312E+04  0.00000000000E+00 0.  1.
          5    1    4    4  501    0 -0.11944614580E+03  0.65175773392E+01 -0.11086808285E+03  0.16315350060E+03  0.41800000000E+01 0.  1.
         -5    1    4    4    0  501  0.26897853990E+02 -0.18963103875E+02 -0.57956147148E+02  0.66779347482E+02  0.41800000000E+01 0.  1.
</event>
<event>
11    1  0.8453735E-009  0.1566195E+03  0.7561462E-02  0.1090301E+00
         22   -1    0    0    0    0  0.00000000000E+00  0.00000000000E+00  0.10732125394E+04  0.10732125394E+04  0.00000000000E+00 0.  1.
         22   -1    0    0    0    0 -0.00000000000E+00 -0.00000000000E+00 -0.10450548870E+03  0.10450548870E+03  0.00000000000E+00 0. -1.
        -24    2    1    2    0    0  0.72253181011E+02 -0.23437293411E+02  0.29419053937E+02  0.11379818614E+03  0.79465197067E+02 0.  0.
         25    2    1    2    0    0 -0.10348322583E+03  0.91509572938E+02  0.88923098396E+02  0.20648622861E+03  0.12508583137E+03 0.  0.
         24    2    1    2    0    0  0.31230044823E+02 -0.68072279528E+02  0.85036489834E+03  0.85743361332E+03  0.80391479619E+02 0.  0.
        -11    1    5    5    0    0 -0.11644790789E+02 -0.53692951448E+02  0.28395427686E+03  0.28922061741E+03  0.00000000000E+00 0.  1.
         12    1    5    5    0    0  0.42874835612E+02 -0.14379328080E+02  0.56641062148E+03  0.56821299592E+03  0.00000000000E+00 0. -1.
         11    1    3    3    0    0 -0.10747024590E+01 -0.25638043588E+02 -0.13303294214E+02  0.28904011855E+02  0.00000000000E+00 0. -1.
        -12    1    3    3    0    0  0.73327883470E+02  0.22007501767E+01  0.42722348151E+02  0.84894174282E+02  0.00000000000E+00 0.  1.
          5    1    4    4  501    0 -0.11080336304E+03  0.11406462602E+03  0.62979935914E+02  0.17109082061E+03  0.41800000000E+01 0.  1.
         -5    1    4    4    0  501  0.73201372016E+01 -0.22555053080E+02  0.25943162481E+02  0.35395408002E+02  0.41800000000E+01 0.  1.
</event>
<event>
11    1  0.8453735E-009  0.1290150E+03  0.7561462E-02  0.1120485E+00
         22   -1    0    0    0    0  0.00000000000E+00  0.00000000000E+00  0.13154486116E+04  0.13154486116E+04  0.00000000000E+00 0.  1.
         22   -1    0    0    0    0 -0.00000000000E+00 -0.00000000000E+00 -0.31136744521E+04  0.31136744521E+04  0.00000000000E+00 0. -1.
        -24    2    1    2    0    0 -0.49385048373E+01  0.86993427496E+01 -0.24489641003E+04  0.24503620097E+04  0.82150756593E+02 0.  0.
         25    2    1    2    0    0  0.27615618730E+02  0.13304366534E+02 -0.65628840075E+03  0.66880556770E+03  0.12508714506E+03 0.  0.
         24    2    1    2    0    0 -0.22677113893E+02 -0.22003709283E+02  0.13070266605E+04  0.13099554863E+04  0.81647229272E+02 0.  0.
        -11    1    5    5    0    0 -0.39188103534E+02  0.46128010248E+01  0.10864262885E+04  0.10871426152E+04  0.00000000000E+00 0.  1.
         12    1    5    5    0    0  0.16510989641E+02 -0.26616510308E+02  0.22060037196E+03  0.22281287105E+03  0.00000000000E+00 0. -1.
         13    1    3    3    0    0  0.16839507007E+02  0.82903007861E+01 -0.22699509305E+04  0.22700285295E+04  0.00000000000E+00 0. -1.
        -14    1    3    3    0    0 -0.21778011844E+02  0.40904196354E+00 -0.17901316980E+03  0.18033348019E+03  0.00000000000E+00 0.  1.
          5    1    4    4  501    0  0.60644423277E+02  0.27386179707E+02 -0.19460725671E+03  0.20571146219E+03  0.41800000000E+01 0. -1.
         -5    1    4    4    0  501 -0.33028804547E+02 -0.14081813174E+02 -0.46168114405E+03  0.46309410551E+03  0.41800000000E+01 0. -1.
</event>
<event>
11    1  0.8453735E-009  0.1463954E+03  0.7561462E-02  0.1100620E+00
         22   -1    0    0    0    0  0.00000000000E+00  0.00000000000E+00  0.19667646685E+04  0.19667646685E+04  0.00000000000E+00 0. -1.
         22   -1    0    0    0    0 -0.00000000000E+00 -0.00000000000E+00 -0.20596472011E+03  0.20596472011E+03  0.00000000000E+00 0. -1.
        -24    2    1    2    0    0 -0.58784256921E+02  0.40358238130E+02 -0.15209896302E+03  0.18919282547E+03  0.87037086412E+02 0.  0.
         25    2    1    2    0    0  0.12308365383E+03 -0.75290646094E+02  0.23729096867E+03  0.30460726036E+03  0.12514116839E+03 0.  0.
         24    2    1    2    0    0 -0.64299396904E+02  0.34932407964E+02  0.16756079427E+04  0.16789293028E+04  0.76071942003E+02 0.  0.
        -11    1    5    5    0    0 -0.18702363912E+02  0.39663602961E+02  0.38189647784E+03  0.38440590475E+03  0.00000000000E+00 0.  1.
         12    1    5    5    0    0 -0.45597032992E+02 -0.47311949966E+01  0.12937114649E+04  0.12945233980E+04  0.00000000000E+00 0. -1.
         11    1    3    3    0    0 -0.76265496009E+02  0.49128318951E+02 -0.13773449437E+03  0.16492667626E+03  0.00000000000E+00 0. -1.
        -12    1    3    3    0    0  0.17481239089E+02 -0.87700808210E+01 -0.14364468652E+02  0.24266149207E+02  0.00000000000E+00 0.  1.
          5    1    4    4  501    0  0.10407733004E+03 -0.14727175339E+02  0.21101017081E+03  0.23577901710E+03  0.41800000000E+01 0.  1.
         -5    1    4    4    0  501  0.19006323789E+02 -0.60563470756E+02  0.26280797856E+02  0.68828243258E+02  0.41800000000E+01 0.  1.
</event>
<event>
11    1  0.8453735E-009  0.1524094E+03  0.7561462E-02  0.1094442E+00
         22   -1    0    0    0    0  0.00000000000E+00  0.00000000000E+00  0.76599860712E+03  0.76599860712E+03  0.00000000000E+00 0. -1.
         22   -1    0    0    0    0 -0.00000000000E+00 -0.00000000000E+00 -0.13958682446E+03  0.13958682446E+03  0.00000000000E+00 0.  1.
        -24    2    1    2    0    0 -0.19547078954E+01 -0.11668068408E+02 -0.10360614904E+03  0.12568166692E+03  0.70154704600E+02 0.  0.
         25    2    1    2    0    0  0.82686612719E+02 -0.24217258215E+02  0.44711851484E+03  0.47221444559E+03  0.12509182541E+03 0.  0.
         24    2    1    2    0    0 -0.80731904824E+02  0.35885326623E+02  0.28289941686E+03  0.30768931907E+03  0.82675509586E+02 0.  0.
        -11    1    5    5    0    0 -0.28775930545E+02 -0.17062521971E+02  0.16527428022E+03  0.16862612946E+03  0.00000000000E+00 0.  1.
         12    1    5    5    0    0 -0.51955974278E+02  0.52947848594E+02  0.11762513664E+03  0.13906318961E+03  0.00000000000E+00 0. -1.
         13    1    3    3    0    0  0.31775629529E+02 -0.43500070433E+01 -0.28019761689E+02  0.42587794476E+02  0.00000000000E+00 0. -1.
        -14    1    3    3    0    0 -0.33730337424E+02 -0.73180613643E+01 -0.75586387354E+02  0.83093872446E+02  0.00000000000E+00 0.  1.
          5    1    4    4  501    0  0.11418007187E+03 -0.13520235729E+02  0.38234402137E+03  0.39927973736E+03  0.41800000000E+01 0. -1.
         -5    1    4    4    0  501 -0.31493459153E+02 -0.10697022486E+02  0.64774493473E+02  0.72934708227E+02  0.41800000000E+01 0. -1.
</event>
<event>
11    1  0.8453735E-009  0.1321117E+03  0.7561462E-02  0.1116701E+00
         22   -1    0    0    0    0  0.00000000000E+00  0.00000000000E+00  0.35269210608E+03  0.35269210608E+03  0.00000000000E+00 0.  1.
         22   -1    0    0    0    0 -0.00000000000E+00 -0.00000000000E+00 -0.27702177741E+03  0.27702177741E+03  0.00000000000E+00 0. -1.
         24    2    1    2    0    0  0.93819281848E+01  0.39685910162E+02 -0.18046879654E+03  0.20063931470E+03  0.77615436857E+02 0.  0.
         25    2    1    2    0    0 -0.25690914448E+02 -0.47179327401E+02 -0.23037388181E+02  0.13807825595E+03  0.12509584922E+03 0.  0.
        -24    2    1    2    0    0  0.16308986263E+02  0.74934172389E+01  0.27917651339E+03  0.29099631284E+03  0.80107391189E+02 0.  0.
        -13    1    3    3    0    0 -0.95835292040E+01  0.49188285818E+02 -0.59351387264E+02  0.77678302401E+02  0.00000000000E+00 0.  1.
         14    1    3    3    0    0  0.18965457389E+02 -0.95023756552E+01 -0.12111740927E+03  0.12296101230E+03  0.00000000000E+00 0. -1.
         11    1    5    5    0    0 -0.64297857271E+01 -0.24165422747E+02  0.31245049763E+02  0.40019531928E+02  0.00000000000E+00 0. -1.
        -12    1    5    5    0    0  0.22738771990E+02  0.31658839986E+02  0.24793146363E+03  0.25097678091E+03  0.00000000000E+00 0.  1.
          5    1    4    4  501    0  0.44916384268E+02  0.31566611589E+00  0.10834390235E+02  0.46394370699E+02  0.41800000000E+01 0.  1.
         -5    1    4    4    0  501 -0.70607298716E+02 -0.47494993517E+02 -0.33871778416E+02  0.91683885249E+02  0.41800000000E+01 0.  1.
</event>
<event>
11    1  0.8453735E-009  0.1486560E+03  0.7561462E-02  0.1098260E+00
         22   -1    0    0    0    0  0.00000000000E+00  0.00000000000E+00  0.30889289271E+03  0.30889289271E+03  0.00000000000E+00 0.  1.
         22   -1    0    0    0    0 -0.00000000000E+00 -0.00000000000E+00 -0.22484602444E+03  0.22484602444E+03  0.00000000000E+00 0. -1.
        -24    2    1    2    0    0  0.55089129052E+02 -0.56489268233E+02 -0.11747349892E+03  0.16289226920E+03  0.80672292969E+02 0.  0.
         25    2    1    2    0    0 -0.85809482441E+02  0.32622398921E+02  0.48002859727E+01  0.15523267675E+03  0.12508658200E+03 0.  0.
         24    2    1    2    0    0  0.30720353389E+02  0.23866869313E+02  0.19672008122E+03  0.21561397119E+03  0.79228950867E+02 0.  0.
        -13    1    5    5    0    0  0.35053294531E+02  0.49690106335E+02  0.15315404928E+03  0.16478471694E+03  0.00000000000E+00 0.  1.
         14    1    5    5    0    0 -0.43329411421E+01 -0.25823237023E+02  0.43566031935E+02  0.50829254252E+02  0.00000000000E+00 0. -1.
         13    1    3    3    0    0  0.72932070724E+02 -0.60125202240E+02 -0.10111701364E+03  0.13841523518E+03  0.00000000000E+00 0. -1.
        -14    1    3    3    0    0 -0.17842941671E+02  0.36359340072E+01 -0.16356485282E+02  0.24477034019E+02  0.00000000000E+00 0.  1.
          5    1    4    4  501    0  0.13626873012E+02  0.23573470085E+02  0.40613416934E+02  0.49074659398E+02  0.41800000000E+01 0.  1.
         -5    1    4    4    0  501 -0.99436355454E+02  0.90489288355E+01 -0.35813130962E+02  0.10615801735E+03  0.41800000000E+01 0.  1.
</event>
<event>
11    1  0.8453735E-009  0.1854926E+03  0.7561462E-02  0.1065285E+00
         22   -1    0    0    0    0  0.00000000000E+00  0.00000000000E+00  0.20981204039E+03  0.20981204039E+03  0.00000000000E+00 0.  1.
         22   -1    0    0    0    0 -0.00000000000E+00 -0.00000000000E+00 -0.12487802451E+04  0.12487802451E+04  0.00000000000E+00 0. -1.
        -24    2    1    2    0    0  0.19325129042E+02 -0.29888468070E+02 -0.10138416697E+04  0.10176938001E+04  0.80987396530E+02 0.  0.
         25    2    1    2    0    0 -0.15306597660E+03  0.23140843891E+02 -0.14329584472E+03  0.24524758626E+03  0.12509191663E+03 0.  0.
         24    2    1    2    0    0  0.13374084756E+03  0.67476241797E+01  0.11816930971E+03  0.19565089913E+03  0.79894579509E+02 0.  0.
        -13    1    5    5    0    0  0.11585879552E+03  0.94075086215E+01  0.52513813424E+02  0.12755180249E+03  0.00000000000E+00 0.  1.
         14    1    5    5    0    0  0.17882052033E+02 -0.26598844419E+01  0.65655496284E+02  0.68099096634E+02  0.00000000000E+00 0. -1.
         11    1    3    3    0    0  0.29141076170E+02 -0.92088562857E+01 -0.93740491979E+03  0.93790297419E+03  0.00000000000E+00 0. -1.
        -12    1    3    3    0    0 -0.98159471287E+01 -0.20679611785E+02 -0.76436749954E+02  0.79790825945E+02  0.00000000000E+00 0.  1.
          5    1    4    4  501    0 -0.17378799507E+03  0.17261720437E+02 -0.11381777028E+03  0.20849985960E+03  0.41800000000E+01 0. -1.
         -5    1    4    4    0  501  0.20722018472E+02  0.58791234533E+01 -0.29478074437E+02  0.36747726659E+02  0.41800000000E+01 0. -1.
</event>
<event>
11    1  0.8453735E-009  0.1404126E+03  0.7561462E-02  0.1107099E+00
         22   -1    0    0    0    0  0.00000000000E+00  0.00000000000E+00  0.15364048818E+04  0.15364048818E+04  0.00000000000E+00 0.  1.
         22   -1    0    0    0    0 -0.00000000000E+00 -0.00000000000E+00 -0.14291724071E+03  0.14291724071E+03  0.00000000000E+00 0. -1.
        -24    2    1    2    0    0 -0.19768630009E+02 -0.57952138952E+02 -0.82815027842E+02  0.13048353789E+03  0.80114765701E+02 0.  0.
         25    2    1    2    0    0 -0.59948794365E+01  0.87341227679E+02  0.13368744727E+03  0.20293728285E+03  0.12508708399E+03 0.  0.
         24    2    1    2    0    0  0.25763509445E+02 -0.29389088727E+02  0.13426152216E+04  0.13459013017E+04  0.85482183644E+02 0.  0.
        -11    1    5    5    0    0  0.39034417952E+02 -0.44600539668E+02  0.12342249968E+04  0.12356472946E+04  0.00000000000E+00 0.  1.
         12    1    5    5    0    0 -0.13270908506E+02  0.15211450941E+02  0.10839022486E+03  0.11025400717E+03  0.00000000000E+00 0. -1.
         11    1    3    3    0    0 -0.90995198167E+01 -0.75180912724E+02 -0.46412516335E+02  0.88820563899E+02  0.00000000000E+00 0. -1.
        -12    1    3    3    0    0 -0.10669110192E+02  0.17228773772E+02 -0.36402511507E+02  0.41662973994E+02  0.00000000000E+00 0.  1.
          5    1    4    4  501    0 -0.25409243353E+02 -0.14616978139E+02  0.81455046780E+02  0.86669964483E+02  0.41800000000E+01 0.  1.
         -5    1    4    4    0  501  0.19414363916E+02  0.10195820582E+03  0.52232400494E+02  0.11626731837E+03  0.41800000000E+01 0.  1.
</event>
<event>
11    1  0.8453735E-009  0.1356210E+03  0.7561462E-02  0.1112549E+00
         22   -1    0    0    0    0  0.00000000000E+00  0.00000000000E+00  0.23509046614E+03  0.23509046614E+03  0.00000000000E+00 0. -1.
         22   -1    0    0    0    0 -0.00000000000E+00 -0.00000000000E+00 -0.50895666451E+03  0.50895666451E+03  0.00000000000E+00 0.  1.
        -24    2    1    2    0    0  0.31466976154E+02 -0.33178951929E+02 -0.32921728181E+03  0.34259704437E+03  0.83052409541E+02 0.  0.
         25    2    1    2    0    0 -0.66390874266E+02  0.58248684645E+02 -0.12827168025E+03  0.19975371908E+03  0.12508903582E+03 0.  0.
         24    2    1    2    0    0  0.34923898112E+02 -0.25069732716E+02  0.18362276369E+03  0.20169636721E+03  0.71525764890E+02 0.  0.
        -13    1    5    5    0    0 -0.11274778634E+02 -0.25004413123E+02  0.27337122360E+02  0.38725438252E+02  0.00000000000E+00 0.  1.
         14    1    5    5    0    0  0.46198676746E+02 -0.65319592179E-01  0.15628564133E+03  0.16297092896E+03  0.00000000000E+00 0. -1.
         13    1    3    3    0    0 -0.66020241083E+00 -0.40640659526E+02 -0.67377569125E+02  0.78688219545E+02  0.00000000000E+00 0. -1.
        -14    1    3    3    0    0  0.32127178565E+02  0.74617075969E+01 -0.26183971268E+03  0.26390882482E+03  0.00000000000E+00 0.  1.
          5    1    4    4  501    0 -0.96921163556E+02  0.38563383996E+02 -0.55310061641E+02  0.11814195634E+03  0.41800000000E+01 0. -1.
         -5    1    4    4    0  501  0.30530289290E+02  0.19685300649E+02 -0.72961618614E+02  0.81611762734E+02  0.41800000000E+01 0. -1.
</event>
<event>
11    1  0.8453735E-009  0.1607109E+03  0.7561462E-02  0.1086411E+00
         22   -1    0    0    0    0  0.00000000000E+00  0.00000000000E+00  0.95466383444E+03  0.95466383444E+03  0.00000000000E+00 0. -1.
         22   -1    0    0    0    0 -0.00000000000E+00 -0.00000000000E+00 -0.70469987661E+02  0.70469987661E+02  0.00000000000E+00 0. -1.
         24    2    1    2    0    0  0.25525774427E+02 -0.51634997366E+01  0.28823302799E+02  0.89928702449E+02  0.81105868161E+02 0.  0.
         25    2    1    2    0    0  0.14190999753E+02  0.98694919664E+02  0.15429784852E+03  0.22225062964E+03  0.12508175197E+03 0.  0.
        -24    2    1    2    0    0 -0.39716774180E+02 -0.93531419928E+02  0.70107269546E+03  0.71295449002E+03  0.80471310694E+02 0.  0.
        -11    1    3    3    0    0  0.45101000010E+02  0.20630996753E+02  0.29184565275E+02  0.57545434912E+02  0.00000000000E+00 0.  1.
         12    1    3    3    0    0 -0.19575225583E+02 -0.25794496490E+02 -0.36126247549E+00  0.32383267537E+02  0.00000000000E+00 0. -1.
         13    1    5    5    0    0  0.59408623340E+01 -0.36930463156E+02  0.88496546714E+02  0.96077009396E+02  0.00000000000E+00 0. -1.
        -14    1    5    5    0    0 -0.45657636514E+02 -0.56600956772E+02  0.61257614875E+03  0.61687748062E+03  0.00000000000E+00 0.  1.
          5    1    4    4  501    0  0.92454382731E+01 -0.24604990497E+02  0.63914302339E+02  0.69234342126E+02  0.41800000000E+01 0. -1.
         -5    1    4    4    0  501  0.49455614799E+01  0.12329991016E+03  0.90383546179E+02  0.15301628751E+03  0.41800000000E+01 0. -1.
</event>
<event>
11    1  0.8453735E-009  0.1343023E+03  0.7561462E-02  0.1114093E+00
         22   -1    0    0    0    0  0.00000000000E+00  0.00000000000E+00  0.19935132645E+03  0.19935132645E+03  0.00000000000E+00 0. -1.
         22   -1    0    0    0    0 -0.00000000000E+00 -0.00000000000E+00 -0.21387600935E+04  0.21387600935E+04  0.00000000000E+00 0. -1.
         24    2    1    2    0    0  0.11342768279E+01  0.16097075224E+02 -0.17676491592E+04  0.17695613270E+04  0.80643274654E+02 0.  0.
         25    2    1    2    0    0 -0.44108006330E+02 -0.38806062594E+02 -0.34478102911E+03  0.37144691890E+03  0.12508968308E+03 0.  0.
        -24    2    1    2    0    0  0.42973729502E+02  0.22708987370E+02  0.17302142123E+03  0.19710317403E+03  0.80937071079E+02 0.  0.
        -13    1    3    3    0    0 -0.16194715676E+02 -0.28993817691E+02 -0.60773493960E+03  0.60864165737E+03  0.00000000000E+00 0.  1.
         14    1    3    3    0    0  0.17328992503E+02  0.45090892915E+02 -0.11599142196E+04  0.11609196696E+04  0.00000000000E+00 0. -1.
         11    1    5    5    0    0  0.27897550271E+02  0.53381739890E+02  0.11008216608E+03  0.12548293411E+03  0.00000000000E+00 0. -1.
        -12    1    5    5    0    0  0.15076179231E+02 -0.30672752520E+02  0.62939255149E+02  0.71620239919E+02  0.00000000000E+00 0.  1.
          5    1    4    4  501    0  0.43668233222E+02 -0.16420202047E+02 -0.10056806118E+03  0.11094117791E+03  0.41800000000E+01 0.  1.
         -5    1    4    4    0  501 -0.87776239552E+02 -0.22385860547E+02 -0.24421296793E+03  0.26050574099E+03  0.41800000000E+01 0.  1.
</event>
<event>
11    1  0.8453735E-009  0.1656687E+03  0.7561462E-02  0.1081864E+00
         22   -1    0    0    0    0  0.00000000000E+00  0.00000000000E+00  0.18048046460E+04  0.18048046460E+04  0.00000000000E+00 0.  1.
         22   -1    0    0    0    0 -0.00000000000E+00 -0.00000000000E+00 -0.11004688316E+03  0.11004688316E+03  0.00000000000E+00 0. -1.
         24    2    1    2    0    0  0.10061706535E+03  0.20796072459E+02 -0.20503392734E+02  0.13215330414E+03  0.80547105555E+02 0.  0.
         25    2    1    2    0    0 -0.13277807407E+03 -0.31328365842E+02  0.23151728436E+03  0.29641257258E+03  0.12509467123E+03 0.  0.
        -24    2    1    2    0    0  0.32161008723E+02  0.10532293383E+02  0.14837438712E+04  0.14862856524E+04  0.80024406224E+02 0.  0.
        -11    1    3    3    0    0  0.24468563880E+02  0.12997287219E+02  0.29696255941E+02  0.40614131904E+02  0.00000000000E+00 0.  1.
         12    1    3    3    0    0  0.76148501467E+02  0.77987852397E+01 -0.50199648675E+02  0.91539172238E+02  0.00000000000E+00 0. -1.
         13    1    5    5    0    0 -0.12722129242E+02 -0.14943524814E+02  0.12235978294E+03  0.12392367807E+03  0.00000000000E+00 0. -1.
        -14    1    5    5    0    0  0.44883137965E+02  0.25475818197E+02  0.13613840882E+04  0.13623619743E+04  0.00000000000E+00 0.  1.
          5    1    4    4  501    0 -0.39962498618E+02 -0.21373651235E+02 -0.13141456916E+01  0.45530579195E+02  0.41800000000E+01 0.  1.
         -5    1    4    4    0  501 -0.92815575451E+02 -0.99547146072E+01  0.23283143005E+03  0.25088199339E+03  0.41800000000E+01 0.  1.
</event>
<event>
11    1  0.8453735E-009  0.1450380E+03  0.7561462E-02  0.1102060E+00
         22   -1    0    0    0    0  0.00000000000E+00  0.00000000000E+00  0.49314303971E+02  0.49314303971E+02  0.00000000000E+00 0. -1.
         22   -1    0    0    0    0 -0.00000000000E+00 -0.00000000000E+00 -0.21488164099E+04  0.21488164099E+04  0.00000000000E+00 0.  1.
        -24    2    1    2    0    0 -0.29125234831E+01 -0.10235328184E+02 -0.16440277807E+04  0.16460463881E+04  0.80796803140E+02 0.  0.
         25    2    1    2    0    0  0.48166799441E+02 -0.48893879815E+02 -0.40856659036E+03  0.43276117307E+03  0.12507966303E+03 0.  0.
         24    2    1    2    0    0 -0.45254275958E+02  0.59129207999E+02 -0.46907734854E+02  0.11932315267E+03  0.80582047893E+02 0.  0.
        -13    1    5    5    0    0  0.17959301099E+02  0.37203273758E+02 -0.27607426672E+02  0.49686920630E+02  0.00000000000E+00 0.  1.
         14    1    5    5    0    0 -0.63213577057E+02  0.21925934241E+02 -0.19300308182E+02  0.69636232039E+02  0.00000000000E+00 0. -1.
         13    1    3    3    0    0 -0.13191439583E+02  0.28091680441E+02 -0.11530798532E+04  0.11534974228E+04  0.00000000000E+00 0. -1.
        -14    1    3    3    0    0  0.10278916100E+02 -0.38327008625E+02 -0.49094792747E+03  0.49254896528E+03  0.00000000000E+00 0.  1.
          5    1    4    4  501    0  0.35986740643E+02 -0.22034450587E+02 -0.39933016924E+03  0.40157517227E+03  0.41800000000E+01 0. -1.
         -5    1    4    4    0  501  0.12180058798E+02 -0.26859429227E+02 -0.92364211178E+01  0.31186000798E+02  0.41800000000E+01 0. -1.
</event>
<event>
11    1  0.8453735E-009  0.1275337E+03  0.7561462E-02  0.1122337E+00
         22   -1    0    0    0    0  0.00000000000E+00  0.00000000000E+00  0.26771519205E+03  0.26771519205E+03  0.00000000000E+00 0. -1.
         22   -1    0    0    0    0 -0.00000000000E+00 -0.00000000000E+00 -0.34563234421E+03  0.34563234421E+03  0.00000000000E+00 0. -1.
        -24    2    1    2    0    0  0.15446074030E+02 -0.22174270616E+02 -0.26516242992E+03  0.27642742467E+03  0.73285246726E+02 0.  0.
         25    2    1    2    0    0 -0.38277716845E+02  0.22902935081E+02  0.39329279504E+00  0.13280870744E+03  0.12509304557E+03 0.  0.
         24    2    1    2    0    0  0.22831642815E+02 -0.72866446550E+00  0.18685198497E+03  0.20411140416E+03  0.78904918434E+02 0.  0.
        -13    1    5    5    0    0  0.38281182113E+02 -0.27302941399E+02  0.78705825629E+02  0.91681549403E+02  0.00000000000E+00 0.  1.
         14    1    5    5    0    0 -0.15449539298E+02  0.26574276934E+02  0.10814615934E+03  0.11242985475E+03  0.00000000000E+00 0. -1.
         11    1    3    3    0    0  0.17455792583E+02 -0.44769537763E+02 -0.22701488405E+03  0.23204476677E+03  0.00000000000E+00 0. -1.
        -12    1    3    3    0    0 -0.20097185523E+01  0.22595267147E+02 -0.38147545875E+02  0.44382657902E+02  0.00000000000E+00 0.  1.
          5    1    4    4  501    0 -0.63530236047E+02 -0.11536780167E+02  0.38609301555E+02  0.75348117132E+02  0.41800000000E+01 0. -1.
         -5    1    4    4    0  501  0.25252519202E+02  0.34439715248E+02 -0.38216008760E+02  0.57460590303E+02  0.41800000000E+01 0. -1.
</event>
<event>
11    1  0.8453735E-009  0.1633287E+03  0.7561462E-02  0.1083988E+00
         22   -1    0    0    0    0  0.00000000000E+00  0.00000000000E+00  0.43289921040E+03  0.43289921040E+03  0.00000000000E+00 0. -1.
         22   -1    0    0    0    0 -0.00000000000E+00 -0.00000000000E+00 -0.12606467549E+04  0.12606467549E+04  0.00000000000E+00 0.  1.
         24    2    1    2    0    0  0.40172559582E+02 -0.93115868793E+02 -0.10988624137E+04  0.11064445178E+04  0.80227596659E+02 0.  0.
         25    2    1    2    0    0 -0.44966165406E+02  0.18965349241E+03 -0.54688136762E+02  0.23796810354E+03  0.12509045840E+03 0.  0.
        -24    2    1    2    0    0  0.47936058236E+01 -0.96537623618E+02  0.32580300597E+03  0.34913334390E+03  0.80025006677E+02 0.  0.
        -13    1    3    3    0    0  0.63561709743E+02 -0.77950935251E+02 -0.80383913903E+03  0.81010727727E+03  0.00000000000E+00 0.  1.
         14    1    3    3    0    0 -0.23389150161E+02 -0.15164933542E+02 -0.29502327465E+03  0.29633724055E+03  0.00000000000E+00 0. -1.
         11    1    5    5    0    0  0.24031965896E+02 -0.68064419943E+02  0.29251918219E+03  0.30129349909E+03  0.00000000000E+00 0. -1.
        -12    1    5    5    0    0 -0.19238360073E+02 -0.28473203675E+02  0.33283823782E+02  0.47839844809E+02  0.00000000000E+00 0.  1.
          5    1    4    4  501    0 -0.62375997512E+01  0.11504581140E+02  0.32909587465E+02  0.35661973935E+02  0.41800000000E+01 0. -1.
         -5    1    4    4    0  501 -0.38728565654E+02  0.17814891127E+03 -0.87597724227E+02  0.20230612960E+03  0.41800000000E+01 0. -1.
</event>
<event>
11    1  0.8453735E-009  0.2161235E+03  0.7561462E-02  0.1043673E+00
         22   -1    0    0    0    0  0.00000000000E+00  0.00000000000E+00  0.67983030394E+03  0.67983030394E+03  0.00000000000E+00 0.  1.
         22   -1    0    0    0    0 -0.00000000000E+00 -0.00000000000E+00 -0.10911937946E+04  0.10911937946E+04  0.00000000000E+00 0.  1.
        -24    2    1    2    0    0  0.19536677670E+03 -0.38617343049E+02 -0.76213686042E+03  0.79183736433E+03  0.80587473691E+02 0.  0.
         25    2    1    2    0    0 -0.10834239394E+03  0.96548163483E+02 -0.27724480297E+03  0.33700595494E+03  0.12509480685E+03 0.  0.
         24    2    1    2    0    0 -0.87024382765E+02 -0.57930820434E+02  0.62801817270E+03  0.64218077929E+03  0.84024430393E+02 0.  0.
        -13    1    5    5    0    0 -0.92531857408E+02 -0.27607799342E+02  0.54780914861E+03  0.55625461663E+03  0.00000000000E+00 0.  1.
         14    1    5    5    0    0  0.55074746430E+01 -0.30323021092E+02  0.80209024086E+02  0.85926162663E+02  0.00000000000E+00 0. -1.
         11    1    3    3    0    0  0.10232844587E+03 -0.13227402944E+01 -0.25274297714E+03  0.27267539855E+03  0.00000000000E+00 0. -1.
        -12    1    3    3    0    0  0.93038330829E+02 -0.37294602755E+02 -0.50939388328E+03  0.51916196579E+03  0.00000000000E+00 0.  1.
          5    1    4    4  501    0 -0.63448443378E+02  0.10974881424E+03 -0.12661132301E+03  0.17921608942E+03  0.41800000000E+01 0. -1.
         -5    1    4    4    0  501 -0.44893950559E+02 -0.13200650754E+02 -0.15063347996E+03  0.15778986552E+03  0.41800000000E+01 0. -1.
</event>
<event>
11    1  0.8453735E-009  0.2176720E+04  0.7561462E-02  0.7998171E-01
         22   -1    0    0    0    0  0.00000000000E+00  0.00000000000E+00  0.78847818420E+03  0.78847818420E+03  0.00000000000E+00 0. -1.
         22   -1    0    0    0    0 -0.00000000000E+00 -0.00000000000E+00 -0.15022963206E+04  0.15022963206E+04  0.00000000000E+00 0. -1.
         24    2    1    2    0    0  0.16954863916E+03  0.51059050822E+02 -0.11441875003E+02  0.19472699301E+03  0.80211704813E+02 0.  0.
         25    2    1    2    0    0 -0.87725536618E+03 -0.40032685988E+02 -0.98885433708E+03  0.13284051265E+04  0.12509071436E+03 0.  0.
        -24    2    1    2    0    0  0.70770672702E+03 -0.11026364834E+02  0.28647807568E+03  0.76764238526E+03  0.78960443308E+02 0.  0.
        -13    1    3    3    0    0  0.94715502916E+02  0.34674022410E+02  0.33048127227E+02  0.10613902692E+03  0.00000000000E+00 0.  1.
         14    1    3    3    0    0  0.74833136247E+02  0.16385028412E+02 -0.44490002230E+02  0.88587966085E+02  0.00000000000E+00 0. -1.
         13    1    5    5    0    0  0.28001023461E+03  0.26127940841E+02  0.13906234657E+03  0.31373035717E+03  0.00000000000E+00 0. -1.
        -14    1    5    5    0    0  0.42769649241E+03 -0.37154305675E+02  0.14741572911E+03  0.45391202809E+03  0.00000000000E+00 0.  1.
          5    1    4    4  501    0 -0.33670902386E+03  0.27364265540E+02 -0.44422074713E+03  0.55809615154E+03  0.41800000000E+01 0. -1.
         -5    1    4    4    0  501 -0.54054634233E+03 -0.67396951527E+02 -0.54463358994E+03  0.77030897500E+03  0.41800000000E+01 0. -1.
</event>
<event>
11    1  0.8453735E-009  0.1336415E+03  0.7561462E-02  0.1114874E+00
         22   -1    0    0    0    0  0.00000000000E+00  0.00000000000E+00  0.88051893812E+03  0.88051893812E+03  0.00000000000E+00 0.  1.
         22   -1    0    0    0    0 -0.00000000000E+00 -0.00000000000E+00 -0.25656622838E+04  0.25656622838E+04  0.00000000000E+00 0.  1.
        -24    2    1    2    0    0  0.25588309429E+02 -0.17116299145E+02 -0.23563834536E+04  0.23579867534E+04  0.81306946933E+02 0.  0.
         25    2    1    2    0    0 -0.64224694176E+02 -0.94937545472E+01 -0.18208178226E+03  0.23025196483E+03  0.12508896498E+03 0.  0.
         24    2    1    2    0    0  0.38636384747E+02  0.26610053692E+02  0.85332189018E+03  0.85794250367E+03  0.75539566826E+02 0.  0.
        -13    1    5    5    0    0 -0.16093111650E+02 -0.52203040170E+01  0.38360356078E+03  0.38397647280E+03  0.00000000000E+00 0.  1.
         14    1    5    5    0    0  0.54729496397E+02  0.31830357709E+02  0.46971832940E+03  0.47396603087E+03  0.00000000000E+00 0. -1.
         13    1    3    3    0    0  0.55279404417E+02 -0.80472672720E+01 -0.14834472975E+04  0.14844987219E+04  0.00000000000E+00 0. -1.
        -14    1    3    3    0    0 -0.29691094988E+02 -0.90690318732E+01 -0.87293615612E+03  0.87348803147E+03  0.00000000000E+00 0.  1.
          5    1    4    4  501    0 -0.50031692839E+02 -0.57200936223E+01 -0.20024554286E+03  0.20652273385E+03  0.41800000000E+01 0. -1.
         -5    1    4    4    0  501 -0.14193001337E+02 -0.37736609249E+01  0.18163760604E+02  0.23729230982E+02  0.41800000000E+01 0. -1.
</event>
<event>
11    1  0.8453735E-009  0.1771461E+03  0.7561462E-02  0.1071975E+00
         22   -1    0    0    0    0  0.00000000000E+00  0.00000000000E+00  0.97715322569E+02  0.97715322569E+02  0.00000000000E+00 0.  1.
         22   -1    0    0    0    0 -0.00000000000E+00 -0.00000000000E+00 -0.78260238629E+03  0.78260238629E+03  0.00000000000E+00 0. -1.
        -24    2    1    2    0    0 -0.38088343021E+02  0.15970719267E+02 -0.41315919122E+03  0.42314644231E+03  0.81526735483E+02 0.  0.
         25    2    1    2    0    0  0.14599133990E+03  0.32723773915E+02 -0.24139321228E+03  0.31032364326E+03  0.12508302814E+03 0.  0.
         24    2    1    2    0    0 -0.10790299688E+03 -0.48694493182E+02 -0.30334660221E+02  0.14684762329E+03  0.81423721679E+02 0.  0.
        -11    1    5    5    0    0 -0.41517971306E+02 -0.10246212068E+02  0.27440117867E+02  0.50810302810E+02  0.00000000000E+00 0.  1.
         12    1    5    5    0    0 -0.66385025577E+02 -0.38448281114E+02 -0.57774778088E+02  0.96037320478E+02  0.00000000000E+00 0. -1.
         11    1    3    3    0    0 -0.39662654214E+01 -0.20681757976E+02 -0.28147935692E+03  0.28226599998E+03  0.00000000000E+00 0. -1.
        -12    1    3    3    0    0 -0.34122077599E+02  0.36652477244E+02 -0.13167983430E+03  0.14088044233E+03  0.00000000000E+00 0.  1.
          5    1    4    4  501    0  0.26780942490E+02 -0.22982230793E+02 -0.13920031565E+03  0.14366489512E+03  0.41800000000E+01 0. -1.
         -5    1    4    4    0  501  0.11921039741E+03  0.55706004708E+02 -0.10219289663E+03  0.16665874815E+03  0.41800000000E+01 0. -1.
</event>
<event>
11    1  0.8453735E-009  0.1544152E+03  0.7561462E-02  0.1092451E+00
         22   -1    0    0    0    0  0.00000000000E+00  0.00000000000E+00  0.19184496858E+03  0.19184496858E+03  0.00000000000E+00 0. -1.
         22   -1    0    0    0    0 -0.00000000000E+00 -0.00000000000E+00 -0.80273060000E+03  0.80273060000E+03  0.00000000000E+00 0. -1.
        -24    2    1    2    0    0  0.33576150098E+02 -0.29938485476E+02 -0.65914750610E+03  0.66549664679E+03  0.79916714869E+02 0.  0.
         25    2    1    2    0    0 -0.39390375155E+02  0.11371263890E+03 -0.45914604594E+02  0.17954975217E+03  0.12509115351E+03 0.  0.
         24    2    1    2    0    0  0.58142250573E+01 -0.83774153429E+02  0.94176479267E+02  0.14952916962E+03  0.80236209565E+02 0.  0.
        -13    1    5    5    0    0 -0.18323823969E+02 -0.86786481663E+02  0.58158344745E+02  0.10606624811E+03  0.00000000000E+00 0.  1.
         14    1    5    5    0    0  0.24138049026E+02  0.30123282342E+01  0.36018134523E+02  0.43462921516E+02  0.00000000000E+00 0. -1.
         13    1    3    3    0    0  0.51276109884E+02 -0.45135332444E+02 -0.47995735683E+03  0.48479428839E+03  0.00000000000E+00 0. -1.
        -14    1    3    3    0    0 -0.17699959786E+02  0.15196846967E+02 -0.17919014927E+03  0.18070235840E+03  0.00000000000E+00 0.  1.
          5    1    4    4  501    0 -0.55962735239E+02  0.56008817044E+02 -0.78108625093E+02  0.11129800104E+03  0.41800000000E+01 0. -1.
         -5    1    4    4    0  501  0.16572360084E+02  0.57703821861E+02  0.32194020499E+02  0.68251751128E+02  0.41800000000E+01 0. -1.
</event>
<event>
11    1  0.8453735E-009  0.2211589E+03  0.7561462E-02  0.1040494E+00
         22   -1    0    0    0    0  0.00000000000E+00  0.00000000000E+00  0.11703932998E+04  0.11703932998E+04  0.00000000000E+00 0. -1.
         22   -1    0    0    0    0 -0.00000000000E+00 -0.00000000000E+00 -0.25479313491E+03  0.25479313491E+03  0.00000000000E+00 0.  1.
         24    2    1    2    0    0 -0.82329630635E+02  0.10597315572E+02 -0.19118755466E+03  0.22398713270E+03  0.82018798942E+02 0.  0.
         25    2    1    2    0    0  0.13196200166E+03 -0.17551375641E+03  0.42666827284E+03  0.49589582112E+03  0.12509117390E+03 0.  0.
        -24    2    1    2    0    0 -0.49632371024E+02  0.16491644084E+03  0.68011944671E+03  0.70530348089E+03  0.72316897361E+02 0.  0.
        -13    1    3    3    0    0 -0.88582835047E+02  0.10393892925E+02 -0.19649043443E+03  0.21578564015E+03  0.00000000000E+00 0.  1.
         14    1    3    3    0    0  0.62532044115E+01  0.20342264643E+00  0.53028797654E+01  0.82014925466E+01  0.00000000000E+00 0. -1.
         11    1    5    5    0    0 -0.67228799074E+02  0.13762189341E+03  0.52860555149E+03  0.55034836788E+03  0.00000000000E+00 0. -1.
        -12    1    5    5    0    0  0.17596428050E+02  0.27294547430E+02  0.15151389523E+03  0.15495511300E+03  0.00000000000E+00 0.  1.
          5    1    4    4  501    0  0.62399531211E+02 -0.16176110202E+03  0.35442144213E+03  0.39457874583E+03  0.41800000000E+01 0. -1.
         -5    1    4    4    0  501  0.69562470448E+02 -0.13752654397E+02  0.72246830707E+02  0.10131707529E+03  0.41800000000E+01 0. -1.
</event>
<event>
11    1  0.8453735E-009  0.4211222E+03  0.7561462E-02  0.9589413E-01
         22   -1    0    0    0    0  0.00000000000E+00  0.00000000000E+00  0.13477423237E+04  0.13477423237E+04  0.00000000000E+00 0. -1.
         22   -1    0    0    0    0 -0.00000000000E+00 -0.00000000000E+00 -0.57106747770E+03  0.57106747770E+03  0.00000000000E+00 0. -1.
         24    2    1    2    0    0  0.39609620980E+02 -0.40959001987E+02 -0.77243897915E+02  0.12679514003E+03  0.82848209715E+02 0.  0.
         25    2    1    2    0    0 -0.17042074578E+03 -0.34127656585E+03 -0.34195838780E+03  0.52734762693E+03  0.12508819145E+03 0.  0.
        -24    2    1    2    0    0  0.13081112480E+03  0.38223556784E+03  0.11958771317E+04  0.12646670344E+04  0.77749688879E+02 0.  0.
        -13    1    3    3    0    0  0.73597834903E+01  0.19126774387E+02 -0.48760323704E+02  0.52892051191E+02  0.00000000000E+00 0.  1.
         14    1    3    3    0    0  0.32249837490E+02 -0.60085776374E+02 -0.28483574211E+02  0.73903088842E+02  0.00000000000E+00 0. -1.
         13    1    5    5    0    0  0.20887529497E+02  0.14914301250E+03  0.36859813709E+03  0.39817648566E+03  0.00000000000E+00 0. -1.
        -14    1    5    5    0    0  0.10992359531E+03  0.23309255534E+03  0.82727899462E+03  0.86649054877E+03  0.00000000000E+00 0.  1.
          5    1    4    4  501    0 -0.59020582087E+02 -0.21586368672E+03 -0.25166665214E+03  0.33679984642E+03  0.41800000000E+01 0.  1.
         -5    1    4    4    0  501 -0.11140016370E+03 -0.12541287914E+03 -0.90291735666E+02  0.19054778050E+03  0.41800000000E+01 0.  1.
</event>
<event>
11    1  0.8453735E-009  0.1416972E+03  0.7561462E-02  0.1105678E+00
         22   -1    0    0    0    0  0.00000000000E+00  0.00000000000E+00  0.16055793024E+04  0.16055793024E+04  0.00000000000E+00 0.  1.
         22   -1    0    0    0    0 -0.00000000000E+00 -0.00000000000E+00 -0.28247972479E+03  0.28247972479E+03  0.00000000000E+00 0. -1.
         24    2    1    2    0    0  0.20722148663E+02 -0.64877143911E+00 -0.26241563921E+03  0.27561352279E+03  0.81676299458E+02 0.  0.
         25    2    1    2    0    0 -0.60750682432E+02 -0.49592646398E+02  0.48350824856E+03  0.50554749358E+03  0.12509182965E+03 0.  0.
        -24    2    1    2    0    0  0.40028533769E+02  0.50241417837E+02  0.11020069683E+04  0.11068980108E+04  0.81715143727E+02 0.  0.
        -11    1    3    3    0    0  0.98743084110E+01 -0.41043589863E+02 -0.12172944403E+03  0.12884151419E+03  0.00000000000E+00 0.  1.
         12    1    3    3    0    0  0.10847840252E+02  0.40394818424E+02 -0.14068619518E+03  0.14677200860E+03  0.00000000000E+00 0. -1.
         13    1    5    5    0    0 -0.20062027575E+02 -0.28901344939E+01  0.35953602709E+03  0.36010691830E+03  0.00000000000E+00 0. -1.
        -14    1    5    5    0    0  0.60090561344E+02  0.53131552331E+02  0.74247094118E+03  0.74679109255E+03  0.00000000000E+00 0.  1.
          5    1    4    4  501    0 -0.11240497095E+02  0.41833626688E+02  0.14965540046E+03  0.15585445898E+03  0.41800000000E+01 0. -1.
         -5    1    4    4    0  501 -0.49510185336E+02 -0.91426273087E+02  0.33385284811E+03  0.34969303461E+03  0.41800000000E+01 0. -1.
</event>
<event>
11    1  0.8453735E-009  0.1453592E+03  0.7561462E-02  0.1101717E+00
         22   -1    0    0    0    0  0.00000000000E+00  0.00000000000E+00  0.14635964943E+03  0.14635964943E+03  0.00000000000E+00 0. -1.
         22   -1    0    0    0    0 -0.00000000000E+00 -0.00000000000E+00 -0.30854999798E+04  0.30854999798E+04  0.00000000000E+00 0. -1.
         24    2    1    2    0    0 -0.34919420303E+02 -0.62478039274E+02 -0.23747263159E+04  0.23772187603E+04  0.81982240826E+02 0.  0.
         25    2    1    2    0    0  0.88934467545E+02  0.54495965945E+02 -0.68284549300E+03  0.70200036660E+03  0.12508955823E+03 0.  0.
        -24    2    1    2    0    0 -0.54015047242E+02  0.79820733294E+01  0.11843147850E+03  0.15264050231E+03  0.79320672109E+02 0.  0.
        -13    1    3    3    0    0  0.21090728130E+02 -0.23508205660E+00 -0.26784280989E+03  0.26867200243E+03  0.00000000000E+00 0.  1.
         14    1    3    3    0    0 -0.56010148433E+02 -0.62242957218E+02 -0.21068835060E+04  0.21085467579E+04  0.00000000000E+00 0. -1.
         13    1    5    5    0    0  0.52194012829E+01  0.24593014299E+02  0.69896832894E+02  0.74280722605E+02  0.00000000000E+00 0. -1.
        -14    1    5    5    0    0 -0.59234448525E+02 -0.16610940969E+02  0.48534645601E+02  0.78359779706E+02  0.00000000000E+00 0.  1.
          5    1    4    4  501    0  0.77540191337E+02  0.89737384352E+02 -0.59251636638E+03  0.60428337413E+03  0.41800000000E+01 0.  1.
         -5    1    4    4    0  501  0.11394276207E+02 -0.35241418407E+02 -0.90329126615E+02  0.97716992466E+02  0.41800000000E+01 0.  1.
</event>
<event>
11    1  0.8453735E-009  0.1448948E+03  0.7561462E-02  0.1102212E+00
         22   -1    0    0    0    0  0.00000000000E+00  0.00000000000E+00  0.11697634991E+04  0.11697634991E+04  0.00000000000E+00 0. -1.
         22   -1    0    0    0    0 -0.00000000000E+00 -0.00000000000E+00 -0.18515575438E+03  0.18515575438E+03  0.00000000000E+00 0.  1.
         24    2    1    2    0    0 -0.51645391080E+02 -0.48973133614E+02 -0.95770227746E+02  0.14409282317E+03  0.80778653932E+02 0.  0.
         25    2    1    2    0    0  0.30889593266E+02  0.81484556910E+02  0.28473471873E+02  0.15508738292E+03  0.12508979876E+03 0.  0.
        -24    2    1    2    0    0  0.20755797814E+02 -0.32511423296E+02  0.10519045006E+04  0.10557390474E+04  0.81203830208E+02 0.  0.
        -11    1    3    3    0    0  0.17945605464E+02 -0.27580951140E+02 -0.43140441451E+02  0.54257269650E+02  0.00000000000E+00 0.  1.
         12    1    3    3    0    0 -0.69590996544E+02 -0.21392182474E+02 -0.52629786295E+02  0.89835553521E+02  0.00000000000E+00 0. -1.
         13    1    5    5    0    0 -0.21605271877E+02 -0.17709772641E+02  0.74979500881E+03  0.75031525311E+03  0.00000000000E+00 0. -1.
        -14    1    5    5    0    0  0.42361069692E+02 -0.14801650654E+02  0.30210949174E+03  0.30542379424E+03  0.00000000000E+00 0.  1.
          5    1    4    4  501    0  0.75422143684E+01  0.38811461258E+02  0.76744370490E+02  0.86431390851E+02  0.41800000000E+01 0. -1.
         -5    1    4    4    0  501  0.23347378897E+02  0.42673095652E+02 -0.48270898617E+02  0.68655992071E+02  0.41800000000E+01 0. -1.
</event>
<event>
11    1  0.8453735E-009  0.1525357E+03  0.7561462E-02  0.1094316E+00
         22   -1    0    0    0    0  0.00000000000E+00  0.00000000000E+00  0.72946005056E+03  0.72946005056E+03  0.00000000000E+00 0.  1.
         22   -1    0    0    0    0 -0.00000000000E+00 -0.00000000000E+00 -0.12104020643E+04  0.12104020643E+04  0.00000000000E+00 0.  1.
         24    2    1    2    0    0  0.18966788112E+02 -0.85779914606E+02 -0.11828782818E+04  0.11888580011E+04  0.80401395128E+02 0.  0.
         25    2    1    2    0    0  0.13175152925E+02  0.53016873826E+02  0.20877634937E+03  0.24941715841E+03  0.12504791597E+03 0.  0.
        -24    2    1    2    0    0 -0.32141941037E+02  0.32763040779E+02  0.49315991869E+03  0.50158695538E+03  0.79222769372E+02 0.  0.
        -13    1    3    3    0    0  0.43021378659E+02 -0.76480598386E+02 -0.10379775316E+04  0.10416801222E+04  0.00000000000E+00 0.  1.
         14    1    3    3    0    0 -0.24054590547E+02 -0.92993162193E+01 -0.14490075026E+03  0.14717787889E+03  0.00000000000E+00 0. -1.
         13    1    5    5    0    0 -0.28504632364E+02  0.34910932493E+02  0.11666021595E+03  0.12506355688E+03  0.00000000000E+00 0. -1.
        -14    1    5    5    0    0 -0.36373086734E+01 -0.21478917134E+01  0.37649970274E+03  0.37652339850E+03  0.00000000000E+00 0.  1.
          5    1    4    4  501    0  0.57055960334E+01 -0.16925527896E+01 -0.16183295095E+02  0.17742322316E+02  0.41800000000E+01 0.  1.
         -5    1    4    4    0  501  0.74695568915E+01  0.54709426616E+02  0.22495964447E+03  0.23167483610E+03  0.41800000000E+01 0.  1.
</event>
<event>
11    1  0.8453735E-009  0.1296257E+03  0.7561462E-02  0.1119730E+00
         22   -1    0    0    0    0  0.00000000000E+00  0.00000000000E+00  0.21087084657E+03  0.21087084657E+03  0.00000000000E+00 0.  1.
         22   -1    0    0    0    0 -0.00000000000E+00 -0.00000000000E+00 -0.30066093746E+04  0.30066093746E+04  0.00000000000E+00 0. -1.
         24    2    1    2    0    0  0.34030850291E+02  0.29045980417E+01 -0.29381290553E+04  0.29394712814E+04  0.81991055415E+02 0.  0.
         25    2    1    2    0    0 -0.14797469825E+02 -0.18984071008E+02  0.19180970957E+02  0.12881937731E+03  0.12508861762E+03 0.  0.
        -24    2    1    2    0    0 -0.19233380465E+02  0.16079472966E+02  0.12320955625E+03  0.14918956252E+03  0.80302294105E+02 0.  0.
        -13    1    3    3    0    0  0.43757397043E+02  0.74939050397E+01 -0.74825662687E+03  0.74957244350E+03  0.00000000000E+00 0.  1.
         14    1    3    3    0    0 -0.97265467518E+01 -0.45893069980E+01 -0.21898724284E+04  0.21898988379E+04  0.00000000000E+00 0. -1.
         11    1    5    5    0    0 -0.87227515791E+01 -0.18716323049E+02 -0.84296986589E-01  0.20649315959E+02  0.00000000000E+00 0. -1.
        -12    1    5    5    0    0 -0.10510628886E+02  0.34795796015E+02  0.12329385324E+03  0.12854024656E+03  0.00000000000E+00 0.  1.
          5    1    4    4  501    0  0.44578688998E+02  0.23745494977E+01 -0.25319547871E+02  0.51492231477E+02  0.41800000000E+01 0. -1.
         -5    1    4    4    0  501 -0.59376158823E+02 -0.21358620505E+02  0.44500518828E+02  0.77327145831E+02  0.41800000000E+01 0. -1.
</event>
<event>
11    1  0.8453735E-009  0.1342199E+03  0.7561462E-02  0.1114190E+00
         22   -1    0    0    0    0  0.00000000000E+00  0.00000000000E+00  0.20611905746E+03  0.20611905746E+03  0.00000000000E+00 0. -1.
         22   -1    0    0    0    0 -0.00000000000E+00 -0.00000000000E+00 -0.63925835999E+03  0.63925835999E+03  0.00000000000E+00 0.  1.
         24    2    1    2    0    0 -0.19332054341E+02 -0.27730699608E+02 -0.48543347546E+03  0.49299585153E+03  0.79098233204E+02 0.  0.
         25    2    1    2    0    0 -0.27268679086E+01 -0.18993607892E+02 -0.10726873547E+03  0.16589114762E+03  0.12508036736E+03 0.  0.
        -24    2    1    2    0    0  0.22058922249E+02  0.46724307500E+02  0.15956290841E+03  0.18649041831E+03  0.81538931906E+02 0.  0.
        -11    1    3    3    0    0 -0.44710194569E+01 -0.53315242920E+02 -0.36916152446E+03  0.37301841280E+03  0.00000000000E+00 0.  1.
         12    1    3    3    0    0 -0.14861034884E+02  0.25584543313E+02 -0.11627195100E+03  0.11997743873E+03  0.00000000000E+00 0. -1.
         13    1    5    5    0    0  0.44010730597E+02  0.21158620881E+02  0.13824541211E+03  0.14661659392E+03  0.00000000000E+00 0. -1.
        -14    1    5    5    0    0 -0.21951808348E+02  0.25565686618E+02  0.21317496306E+02  0.39873824381E+02  0.00000000000E+00 0.  1.
          5    1    4    4  501    0  0.15957774948E+02 -0.61504615568E+02 -0.10021772228E+03  0.11873724174E+03  0.41800000000E+01 0. -1.
         -5    1    4    4    0  501 -0.18684642856E+02  0.42511007676E+02 -0.70510131924E+01  0.47153905875E+02  0.41800000000E+01 0. -1.
</event>
<event>
11    1  0.8453735E-009  0.1544481E+03  0.7561462E-02  0.1092418E+00
         22   -1    0    0    0    0  0.00000000000E+00  0.00000000000E+00  0.28798869026E+03  0.28798869026E+03  0.00000000000E+00 0. -1.
         22   -1    0    0    0    0 -0.00000000000E+00 -0.00000000000E+00 -0.13286622321E+04  0.13286622321E+04  0.00000000000E+00 0.  1.
        -24    2    1    2    0    0  0.93058550680E+02  0.19839811532E+02 -0.79852983466E+03  0.80817031874E+03  0.80223782528E+02 0.  0.
         25    2    1    2    0    0 -0.82342952645E+02  0.47553644299E+01 -0.50792758579E+03  0.52956697247E+03  0.12509104914E+03 0.  0.
         24    2    1    2    0    0 -0.10715598036E+02 -0.24595175962E+02  0.26578387863E+03  0.27891363112E+03  0.80199730447E+02 0.  0.
        -13    1    5    5    0    0  0.17610347807E+02  0.21524539366E+02  0.60013091147E+02  0.66143792255E+02  0.00000000000E+00 0.  1.
         14    1    5    5    0    0 -0.28325945843E+02 -0.46119715328E+02  0.20577078749E+03  0.21276983887E+03  0.00000000000E+00 0. -1.
         13    1    3    3    0    0  0.48244003368E+02  0.50679708590E+02 -0.46396899215E+03  0.46921545413E+03  0.00000000000E+00 0. -1.
        -14    1    3    3    0    0  0.44814547312E+02 -0.30839897058E+02 -0.33456084251E+03  0.33895486461E+03  0.00000000000E+00 0.  1.
          5    1    4    4  501    0 -0.10994302810E+02  0.54165341015E+02 -0.28430355560E+03  0.28965624969E+03  0.41800000000E+01 0. -1.
         -5    1    4    4    0  501 -0.71348649835E+02 -0.49409976585E+02 -0.22362403020E+03  0.23991072277E+03  0.41800000000E+01 0. -1.
</event>
<event>
11    1  0.8453735E-009  0.1349194E+03  0.7561462E-02  0.1113368E+00
         22   -1    0    0    0    0  0.00000000000E+00  0.00000000000E+00  0.27089382737E+03  0.27089382737E+03  0.00000000000E+00 0. -1.
         22   -1    0    0    0    0 -0.00000000000E+00 -0.00000000000E+00 -0.79122877673E+03  0.79122877673E+03  0.00000000000E+00 0.  1.
         24    2    1    2    0    0  0.19837284614E+02  0.39705981151E+02 -0.61103162743E+03  0.61805789414E+03  0.81644522065E+02 0.  0.
         25    2    1    2    0    0 -0.16242702404E+02 -0.88033579778E+02 -0.13166508168E+03  0.20247799860E+03  0.12509160497E+03 0.  0.
        -24    2    1    2    0    0 -0.35945822102E+01  0.48327598627E+02  0.22236175975E+03  0.24158671136E+03  0.81061144186E+02 0.  0.
        -11    1    3    3    0    0  0.14392096206E+02  0.48419029975E+02 -0.60274546810E+03  0.60485835880E+03  0.00000000000E+00 0.  1.
         12    1    3    3    0    0  0.54451884087E+01 -0.87130488242E+01 -0.82861593332E+01  0.13199535337E+02  0.00000000000E+00 0. -1.
         13    1    5    5    0    0 -0.42077839053E+02  0.30822234388E+02  0.12415884763E+03  0.13466987086E+03  0.00000000000E+00 0. -1.
        -14    1    5    5    0    0  0.38483256842E+02  0.17505364239E+02  0.98202912120E+02  0.10691684050E+03  0.00000000000E+00 0.  1.
          5    1    4    4  501    0  0.31550384201E+02 -0.99486656628E+02 -0.87097133267E+02  0.13600148754E+03  0.41800000000E+01 0. -1.
         -5    1    4    4    0  501 -0.47793086605E+02  0.11453076850E+02 -0.44567948410E+02  0.66476511055E+02  0.41800000000E+01 0. -1.
</event>
<event>
11    1  0.8453735E-009  0.1438240E+03  0.7561462E-02  0.1103362E+00
         22   -1    0    0    0    0  0.00000000000E+00  0.00000000000E+00  0.87796807904E+03  0.87796807904E+03  0.00000000000E+00 0.  1.
         22   -1    0    0    0    0 -0.00000000000E+00 -0.00000000000E+00 -0.41016146916E+03  0.41016146916E+03  0.00000000000E+00 0. -1.
         24    2    1    2    0    0 -0.45474315650E+02 -0.42556874519E+02 -0.33412515010E+03  0.34925009613E+03  0.80355539722E+02 0.  0.
         25    2    1    2    0    0  0.16658677227E+02  0.10617453488E+03  0.40143965885E+02  0.16973064320E+03  0.12508561012E+03 0.  0.
        -24    2    1    2    0    0  0.28815638423E+02 -0.63617660364E+02  0.76178779409E+03  0.76914880887E+03  0.79948103322E+02 0.  0.
        -11    1    3    3    0    0  0.93434364747E+01 -0.45656393508E+02 -0.16314707970E+03  0.16967255431E+03  0.00000000000E+00 0.  1.
         12    1    3    3    0    0 -0.54817752125E+02  0.30995189892E+01 -0.17097807040E+03  0.17957754182E+03  0.00000000000E+00 0. -1.
         13    1    5    5    0    0  0.39330682163E+02 -0.60342578370E+02  0.35610389098E+03  0.36331544213E+03  0.00000000000E+00 0. -1.
        -14    1    5    5    0    0 -0.10515043740E+02 -0.32750819944E+01  0.40568390311E+03  0.40583336673E+03  0.00000000000E+00 0.  1.
          5    1    4    4  501    0 -0.38515997428E+02 -0.20245543862E+00  0.30737394508E+02  0.49454856862E+02  0.41800000000E+01 0.  1.
         -5    1    4    4    0  501  0.55174674655E+02  0.10637699032E+03  0.94065713770E+01  0.12027578633E+03  0.41800000000E+01 0.  1.
</event>
<event>
11    1  0.8453735E-009  0.1339147E+03  0.7561462E-02  0.1114551E+00
         22   -1    0    0    0    0  0.00000000000E+00  0.00000000000E+00  0.15335453080E+04  0.15335453080E+04  0.00000000000E+00 0. -1.
         22   -1    0    0    0    0 -0.00000000000E+00 -0.00000000000E+00 -0.13526497362E+03  0.13526497362E+03  0.00000000000E+00 0.  1.
         24    2    1    2    0    0  0.15083981906E+02 -0.45885436403E+02 -0.80645878430E+02  0.12383947306E+03  0.80619213562E+02 0.  0.
         25    2    1    2    0    0 -0.85909312791E+01  0.90777642792E+02  0.16106363497E+03  0.22339039623E+03  0.12508952829E+03 0.  0.
        -24    2    1    2    0    0 -0.64930506270E+01 -0.44892206389E+02  0.13178625778E+04  0.13215804123E+04  0.88065556787E+02 0.  0.
        -11    1    3    3    0    0  0.15867616812E+02 -0.66626211199E+02 -0.76489738353E+02  0.10267187227E+03  0.00000000000E+00 0.  1.
         12    1    3    3    0    0 -0.78363490611E+00  0.20740774796E+02 -0.41561400772E+01  0.21167600788E+02  0.00000000000E+00 0. -1.
         13    1    5    5    0    0 -0.32214548265E+02 -0.46344635204E+02  0.47767131433E+03  0.48099426906E+03  0.00000000000E+00 0. -1.
        -14    1    5    5    0    0  0.25721497638E+02  0.14524288146E+01  0.84019126349E+03  0.84058614325E+03  0.00000000000E+00 0.  1.
          5    1    4    4  501    0  0.23278273550E+02 -0.15754760916E+02  0.98410062707E+00  0.28434685949E+02  0.41800000000E+01 0. -1.
         -5    1    4    4    0  501 -0.31869204829E+02  0.10653240371E+03  0.16007953434E+03  0.19495571028E+03  0.41800000000E+01 0. -1.
</event>
<event>
11    1  0.8453735E-009  0.1327573E+03  0.7561462E-02  0.1115927E+00
         22   -1    0    0    0    0  0.00000000000E+00  0.00000000000E+00  0.58452459997E+03  0.58452459997E+03  0.00000000000E+00 0.  1.
         22   -1    0    0    0    0 -0.00000000000E+00 -0.00000000000E+00 -0.99560915291E+03  0.99560915291E+03  0.00000000000E+00 0. -1.
         24    2    1    2    0    0 -0.68539813501E+01  0.40455885803E+02 -0.87841107164E+03  0.88312812709E+03  0.81397925794E+02 0.  0.
         25    2    1    2    0    0 -0.14757047597E+02  0.30343037828E-01 -0.75066577355E+02  0.14660682372E+03  0.12506317744E+03 0.  0.
        -24    2    1    2    0    0  0.21611028947E+02 -0.40486228841E+02  0.54239309605E+03  0.55039880207E+03  0.81500916423E+02 0.  0.
        -11    1    3    3    0    0  0.24473172005E+01  0.23546605341E+01  0.42029051321E+00  0.34220508217E+01  0.00000000000E+00 0.  1.
         12    1    3    3    0    0 -0.93012985506E+01  0.38101225269E+02 -0.87883136215E+03  0.87970607627E+03  0.00000000000E+00 0. -1.
         11    1    5    5    0    0 -0.67108578168E+01  0.10485543126E+02  0.13746164884E+02  0.18545599918E+02  0.00000000000E+00 0. -1.
        -12    1    5    5    0    0  0.28321886764E+02 -0.50971771966E+02  0.52864693116E+03  0.53185320215E+03  0.00000000000E+00 0.  1.
          5    1    4    4  501    0  0.41115995845E+02  0.39541268187E+02 -0.30311071648E+02  0.64732298497E+02  0.41800000000E+01 0.  1.
         -5    1    4    4    0  501 -0.55873043442E+02 -0.39510925150E+02 -0.44755505707E+02  0.81874525225E+02  0.41800000000E+01 0.  1.
</event>
<event>
11    1  0.8453735E-009  0.1481702E+03  0.7561462E-02  0.1098763E+00
         22   -1    0    0    0    0  0.00000000000E+00  0.00000000000E+00  0.59436303400E+03  0.59436303400E+03  0.00000000000E+00 0.  1.
         22   -1    0    0    0    0 -0.00000000000E+00 -0.00000000000E+00 -0.15381556885E+04  0.15381556885E+04  0.00000000000E+00 0. -1.
         24    2    1    2    0    0 -0.34197312440E+02 -0.69715679392E+01 -0.11577110687E+04  0.11607589404E+04  0.76474440336E+02 0.  0.
         25    2    1    2    0    0  0.71825446706E+02  0.76537492870E+02 -0.35528841446E+03  0.39101357490E+03  0.12507947754E+03 0.  0.
        -24    2    1    2    0    0 -0.37628134265E+02 -0.69565924931E+02  0.56920682864E+03  0.58074620729E+03  0.83752308102E+02 0.  0.
        -13    1    3    3    0    0 -0.21522373183E+02  0.32586526051E+02 -0.39747375840E+03  0.39938763482E+03  0.00000000000E+00 0.  1.
         14    1    3    3    0    0 -0.12674939258E+02 -0.39558093991E+02 -0.76023731033E+03  0.76137130554E+03  0.00000000000E+00 0. -1.
         11    1    5    5    0    0 -0.43889213050E+02 -0.50590980165E+02  0.19836808562E+03  0.20936954814E+03  0.00000000000E+00 0. -1.
        -12    1    5    5    0    0  0.62610787847E+01 -0.18974944766E+02  0.37083874302E+03  0.37137665915E+03  0.00000000000E+00 0.  1.
          5    1    4    4  501    0 -0.21623112820E+02 -0.19129051991E+02 -0.54727897243E+02  0.62016891043E+02  0.41800000000E+01 0.  1.
         -5    1    4    4    0  501  0.93448559525E+02  0.95666544861E+02 -0.30056051721E+03  0.32899668386E+03  0.41800000000E+01 0.  1.
</event>
<event>
11    1  0.8453735E-009  0.1780891E+03  0.7561462E-02  0.1071199E+00
         22   -1    0    0    0    0  0.00000000000E+00  0.00000000000E+00  0.71916046083E+03  0.71916046083E+03  0.00000000000E+00 0. -1.
         22   -1    0    0    0    0 -0.00000000000E+00 -0.00000000000E+00 -0.40004649103E+03  0.40004649103E+03  0.00000000000E+00 0. -1.
         24    2    1    2    0    0 -0.12036696584E+03  0.42022891281E+02 -0.32063562992E+03  0.35391852908E+03  0.78720951439E+02 0.  0.
         25    2    1    2    0    0  0.10089780910E+03 -0.75749484155E+02  0.74654043838E+02  0.19271644575E+03  0.12509216591E+03 0.  0.
        -24    2    1    2    0    0  0.19469156744E+02  0.33726592874E+02  0.56509555587E+03  0.57257197703E+03  0.83601139235E+02 0.  0.
        -13    1    3    3    0    0  0.82211413886E+01 -0.14979347288E+00 -0.56888826092E+02  0.57479980323E+02  0.00000000000E+00 0.  1.
         14    1    3    3    0    0 -0.12858810723E+03  0.42172684754E+02 -0.26374680383E+03  0.29643854876E+03  0.00000000000E+00 0. -1.
         13    1    5    5    0    0  0.22456476282E+02  0.78125352321E+00  0.48997787733E+03  0.49049283783E+03  0.00000000000E+00 0. -1.
        -14    1    5    5    0    0 -0.29873195377E+01  0.32945339351E+02  0.75117678536E+02  0.82079139199E+02  0.00000000000E+00 0.  1.
          5    1    4    4  501    0  0.10369672480E+03 -0.40984767794E+02  0.99652620326E+02  0.14960240327E+03  0.41800000000E+01 0. -1.
         -5    1    4    4    0  501 -0.27989157033E+01 -0.34764716361E+02 -0.24998576488E+02  0.43114042483E+02  0.41800000000E+01 0. -1.
</event>
<event>
11    1  0.8453735E-009  0.1636027E+03  0.7561462E-02  0.1083737E+00
         22   -1    0    0    0    0  0.00000000000E+00  0.00000000000E+00  0.16964334335E+04  0.16964334335E+04  0.00000000000E+00 0.  1.
         22   -1    0    0    0    0 -0.00000000000E+00 -0.00000000000E+00 -0.50697129370E+03  0.50697129370E+03  0.00000000000E+00 0.  1.
        -24    2    1    2    0    0 -0.26538653865E+02  0.10160146555E+03 -0.47778449024E+03  0.49567835083E+03  0.79949048882E+02 0.  0.
         25    2    1    2    0    0  0.89832034338E+02 -0.10990764826E+03  0.46834668010E+03  0.50511815187E+03  0.12508496731E+03 0.  0.
         24    2    1    2    0    0 -0.63293380473E+02  0.83061827149E+01  0.11988999500E+04  0.12026082245E+04  0.69501129257E+02 0.  0.
        -11    1    5    5    0    0 -0.43511888458E+02 -0.12603093109E+02  0.10485331813E+04  0.10495112932E+04  0.00000000000E+00 0.  1.
         12    1    5    5    0    0 -0.19781492015E+02  0.20909275824E+02  0.15036676868E+03  0.15309693128E+03  0.00000000000E+00 0. -1.
         11    1    3    3    0    0  0.19534866894E+02  0.11131119981E+01 -0.10663818972E+03  0.10841841886E+03  0.00000000000E+00 0. -1.
        -12    1    3    3    0    0 -0.46073520759E+02  0.10048835355E+03 -0.37114630052E+03  0.38725993197E+03  0.00000000000E+00 0.  1.
          5    1    4    4  501    0  0.79020777370E+02 -0.21193008153E+01  0.23094639428E+03  0.24413619994E+03  0.41800000000E+01 0.  1.
         -5    1    4    4    0  501  0.10811256968E+02 -0.10778834745E+03  0.23740028583E+03  0.26098195193E+03  0.41800000000E+01 0.  1.
</event>
<event>
11    1  0.8453735E-009  0.1439339E+03  0.7561462E-02  0.1103243E+00
         22   -1    0    0    0    0  0.00000000000E+00  0.00000000000E+00  0.44027277678E+03  0.44027277678E+03  0.00000000000E+00 0. -1.
         22   -1    0    0    0    0 -0.00000000000E+00 -0.00000000000E+00 -0.43581977337E+03  0.43581977337E+03  0.00000000000E+00 0. -1.
         24    2    1    2    0    0 -0.65506398724E+02 -0.21714177426E+02 -0.33800999594E+03  0.35387481727E+03  0.78829151788E+02 0.  0.
         25    2    1    2    0    0  0.89002852371E+02  0.19328975287E+02 -0.14517337503E+02  0.15541392434E+03  0.12509043838E+03 0.  0.
        -24    2    1    2    0    0 -0.23496453646E+02  0.23852021391E+01  0.35698033685E+03  0.36680380854E+03  0.80946281777E+02 0.  0.
        -13    1    3    3    0    0 -0.35618001513E+02  0.27502638034E+02 -0.11342562753E+03  0.12202626812E+03  0.00000000000E+00 0.  1.
         14    1    3    3    0    0 -0.29888397211E+02 -0.49216815460E+02 -0.22458436841E+03  0.23184854915E+03  0.00000000000E+00 0. -1.
         13    1    5    5    0    0 -0.40116635994E+02 -0.27987064346E+02  0.23306048126E+03  0.23813821235E+03  0.00000000000E+00 0. -1.
        -14    1    5    5    0    0  0.16620182348E+02  0.30372266485E+02  0.12391985559E+03  0.12866559619E+03  0.00000000000E+00 0.  1.
          5    1    4    4  501    0 -0.15349733031E+02 -0.15037744123E+02 -0.37190452464E+02  0.43154955763E+02  0.41800000000E+01 0. -1.
         -5    1    4    4    0  501  0.10435258540E+03  0.34366719411E+02  0.22673114961E+02  0.11225896857E+03  0.41800000000E+01 0. -1.
</event>
<event>
11    1  0.8453735E-009  0.3702301E+03  0.7561462E-02  0.9741924E-01
         22   -1    0    0    0    0  0.00000000000E+00  0.00000000000E+00  0.22299152761E+04  0.22299152761E+04  0.00000000000E+00 0.  1.
         22   -1    0    0    0    0 -0.00000000000E+00 -0.00000000000E+00 -0.15102131957E+03  0.15102131957E+03  0.00000000000E+00 0.  1.
        -24    2    1    2    0    0  0.31664853369E+03  0.13807912459E+03  0.14524305897E+03  0.38290617429E+03  0.78673080491E+02 0.  0.
         25    2    1    2    0    0 -0.36066612763E+03 -0.90373436785E+02  0.16426273711E+04  0.16888219428E+04  0.12508980912E+03 0.  0.
         24    2    1    2    0    0  0.44017593936E+02 -0.47705687807E+02  0.29102352646E+03  0.30920847863E+03  0.81864577660E+02 0.  0.
        -11    1    5    5    0    0  0.16956618712E+02 -0.66439112874E+02  0.15920688446E+03  0.17334507405E+03  0.00000000000E+00 0.  1.
         12    1    5    5    0    0  0.27060975224E+02  0.18733425067E+02  0.13181664200E+03  0.13586340458E+03  0.00000000000E+00 0. -1.
         11    1    3    3    0    0  0.17547658248E+02 -0.53733645082E+01  0.22889689144E+02  0.29338221235E+02  0.00000000000E+00 0. -1.
        -12    1    3    3    0    0  0.29910087545E+03  0.14345248910E+03  0.12235336982E+03  0.35356795306E+03  0.00000000000E+00 0.  1.
          5    1    4    4  501    0 -0.11586700691E+03  0.29551095269E+02  0.49372918067E+03  0.50802008500E+03  0.41800000000E+01 0.  1.
         -5    1    4    4    0  501 -0.24479912072E+03 -0.11992453205E+03  0.11488981905E+04  0.11808018578E+04  0.41800000000E+01 0.  1.
</event>
<event>
11    1  0.8453735E-009  0.1426708E+03  0.7561462E-02  0.1104612E+00
         22   -1    0    0    0    0  0.00000000000E+00  0.00000000000E+00  0.69043104657E+03  0.69043104657E+03  0.00000000000E+00 0. -1.
         22   -1    0    0    0    0 -0.00000000000E+00 -0.00000000000E+00 -0.78404654330E+03  0.78404654330E+03  0.00000000000E+00 0.  1.
        -24    2    1    2    0    0  0.61896257558E+02 -0.27926319420E+02 -0.72078988902E+03  0.72849021722E+03  0.80925314054E+02 0.  0.
         25    2    1    2    0    0 -0.74241290873E+02  0.47913936539E+02  0.47809298586E+02  0.16044364499E+03  0.12509564181E+03 0.  0.
         24    2    1    2    0    0  0.12345033315E+02 -0.19987617119E+02  0.57936509370E+03  0.58554372766E+03  0.81520798045E+02 0.  0.
        -13    1    5    5    0    0  0.19891869289E+02  0.29011023310E+02  0.22755155594E+03  0.23025428671E+03  0.00000000000E+00 0.  1.
         14    1    5    5    0    0 -0.75468359742E+01 -0.48998640429E+02  0.35181353776E+03  0.35528944095E+03  0.00000000000E+00 0. -1.
         11    1    3    3    0    0  0.53321803999E+02 -0.36403245325E+02 -0.27271936942E+03  0.28025749857E+03  0.00000000000E+00 0. -1.
        -12    1    3    3    0    0  0.85744535585E+01  0.84769259047E+01 -0.44807051960E+03  0.44823271864E+03  0.00000000000E+00 0.  1.
          5    1    4    4  501    0 -0.19869348935E+02 -0.37246523095E+02 -0.10515517433E+02  0.43705182949E+02  0.41800000000E+01 0. -1.
         -5    1    4    4    0  501 -0.54371941938E+02  0.85160459634E+02  0.58324816019E+02  0.11673846204E+03  0.41800000000E+01 0. -1.
</event>
<event>
11    1  0.1249870E-008  0.1576108E+03  0.7561462E-02  0.1089346E+00
         22   -1    0    0    0    0  0.00000000000E+00  0.00000000000E+00  0.24796161392E+03  0.24796161392E+03  0.00000000000E+00 0.  1.
         22   -1    0    0    0    0 -0.00000000000E+00 -0.00000000000E+00 -0.47785732057E+03  0.47785732057E+03  0.00000000000E+00 0.  1.
        -24    2    1    2    0    0 -0.23850446546E+02  0.27975771200E+02 -0.21669006433E+03  0.23416487176E+03  0.80790566354E+02 0.  0.
         25    2    1    2    0    0  0.92407728458E+02 -0.91196083875E+02 -0.19955461862E+03  0.26893263900E+03  0.12508718765E+03 0.  0.
         24    2    1    2    0    0 -0.68557281912E+02  0.63220312674E+02  0.18634897630E+03  0.22272142374E+03  0.78625586081E+02 0.  0.
        -11    1    5    5    0    0 -0.16579303435E+02  0.20729948856E+01  0.11226266592E+03  0.11349923687E+03  0.00000000000E+00 0.  1.
         12    1    5    5    0    0 -0.51977978477E+02  0.61147317789E+02  0.74086310382E+02  0.10922218687E+03  0.00000000000E+00 0. -1.
         13    1    3    3    0    0 -0.24644125074E+02  0.47263836652E+01 -0.11400776767E+02  0.27561736413E+02  0.00000000000E+00 0. -1.
        -14    1    3    3    0    0  0.79367852856E+00  0.23249387535E+02 -0.20528928756E+03  0.20660313535E+03  0.00000000000E+00 0.  1.
          5    1    4    4  501    0  0.11286456748E+03 -0.37401274741E+02 -0.15817697512E+03  0.19792598062E+03  0.41800000000E+01 0.  1.
         -5    1    4    4    0  501 -0.20456839025E+02 -0.53794809133E+02 -0.41377643492E+02  0.71006658375E+02  0.41800000000E+01 0.  1.
</event>
<event>
11    1  0.8453735E-009  0.1275645E+03  0.7561462E-02  0.1122298E+00
         22   -1    0    0    0    0  0.00000000000E+00  0.00000000000E+00  0.56421714892E+03  0.56421714892E+03  0.00000000000E+00 0. -1.
         22   -1    0    0    0    0 -0.00000000000E+00 -0.00000000000E+00 -0.95288604987E+03  0.95288604987E+03  0.00000000000E+00 0. -1.
        -24    2    1    2    0    0 -0.23027506813E+02  0.96492320361E+01 -0.92982837262E+03  0.93364142368E+03  0.80511686948E+02 0.  0.
         25    2    1    2    0    0  0.25500890646E+02 -0.20878303141E+02  0.25243218893E+03  0.28364625940E+03  0.12508793506E+03 0.  0.
         24    2    1    2    0    0 -0.24733838333E+01  0.11229071104E+02  0.28872728273E+03  0.29981551572E+03  0.79960552797E+02 0.  0.
        -13    1    5    5    0    0 -0.30909147835E+02 -0.20767552817E+02  0.11432419713E+03  0.12023597099E+03  0.00000000000E+00 0.  1.
         14    1    5    5    0    0  0.28435764001E+02  0.31996623921E+02  0.17440308560E+03  0.17957954473E+03  0.00000000000E+00 0. -1.
         13    1    3    3    0    0  0.22600837015E+02  0.13967816380E+02 -0.60640468143E+03  0.60698643757E+03  0.00000000000E+00 0. -1.
        -14    1    3    3    0    0 -0.45628343828E+02 -0.43185843436E+01 -0.32342369119E+03  0.32665498611E+03  0.00000000000E+00 0.  1.
          5    1    4    4  501    0 -0.38329117204E+02 -0.40273292305E+02  0.70881183297E+02  0.90181338670E+02  0.41800000000E+01 0. -1.
         -5    1    4    4    0  501  0.63830007850E+02  0.19394989165E+02  0.18155100563E+03  0.19346492073E+03  0.41800000000E+01 0. -1.
</event>
<event>
11    1  0.8453735E-009  0.1686624E+03  0.7561462E-02  0.1079202E+00
         22   -1    0    0    0    0  0.00000000000E+00  0.00000000000E+00  0.81944397465E+03  0.81944397465E+03  0.00000000000E+00 0. -1.
         22   -1    0    0    0    0 -0.00000000000E+00 -0.00000000000E+00 -0.52200885617E+03  0.52200885617E+03  0.00000000000E+00 0.  1.
         24    2    1    2    0    0  0.62320139225E+02 -0.49519350185E+02 -0.35964785130E+03  0.37703449449E+03  0.80451645691E+02 0.  0.
         25    2    1    2    0    0 -0.12387653029E+03  0.14064078687E+03 -0.61072309680E+02  0.23345910956E+03  0.12509237842E+03 0.  0.
        -24    2    1    2    0    0  0.61556391068E+02 -0.91121436689E+02  0.71815527946E+03  0.73095922676E+03  0.80387065332E+02 0.  0.
        -13    1    3    3    0    0  0.69821448437E+02 -0.15595553962E+02 -0.17348582547E+03  0.18765816690E+03  0.00000000000E+00 0.  1.
         14    1    3    3    0    0 -0.75013092119E+01 -0.33923796223E+02 -0.18616202583E+03  0.18937632759E+03  0.00000000000E+00 0. -1.
         11    1    5    5    0    0  0.63303316768E+02 -0.57649318001E+02  0.31549954732E+03  0.32691087186E+03  0.00000000000E+00 0. -1.
        -12    1    5    5    0    0 -0.17469256996E+01 -0.33472118688E+02  0.40265573214E+03  0.40404835491E+03  0.00000000000E+00 0.  1.
          5    1    4    4  501    0 -0.10485884543E+03  0.95659631193E+02 -0.97620901685E+02  0.17231789039E+03  0.41800000000E+01 0.  1.
         -5    1    4    4    0  501 -0.19017684867E+02  0.44981155681E+02  0.36548592005E+02  0.61141219171E+02  0.41800000000E+01 0.  1.
</event>
<event>
11    1  0.8453735E-009  0.1383241E+03  0.7561462E-02  0.1109444E+00
         22   -1    0    0    0    0  0.00000000000E+00  0.00000000000E+00  0.16735846181E+04  0.16735846181E+04  0.00000000000E+00 0.  1.
         22   -1    0    0    0    0 -0.00000000000E+00 -0.00000000000E+00 -0.38975609153E+03  0.38975609153E+03  0.00000000000E+00 0.  1.
        -24    2    1    2    0    0 -0.50181033960E+02  0.39238700744E+02 -0.22238821912E+03  0.24474453743E+03  0.79909678963E+02 0.  0.
         25    2    1    2    0    0  0.58991863895E+02  0.70669846496E+01 -0.12389334276E+03  0.18581802552E+03  0.12509514759E+03 0.  0.
         24    2    1    2    0    0 -0.88108299354E+01 -0.46305685393E+02  0.16301100884E+04  0.16327781466E+04  0.80521603124E+02 0.  0.
        -11    1    5    5    0    0  0.15171385549E+02 -0.52397413765E+02  0.14440502126E+04  0.14450801627E+04  0.00000000000E+00 0.  1.
         12    1    5    5    0    0 -0.23982215484E+02  0.60917283711E+01  0.18605987576E+03  0.18769798396E+03  0.00000000000E+00 0. -1.
         13    1    3    3    0    0 -0.72719499924E+01 -0.54566339644E+01  0.40717586925E+01  0.99616931174E+01  0.00000000000E+00 0. -1.
        -14    1    3    3    0    0 -0.42909083967E+02  0.44695334708E+02 -0.22645997781E+03  0.23478284431E+03  0.00000000000E+00 0.  1.
          5    1    4    4  501    0  0.27299508890E+02  0.34406979299E+02 -0.13523671441E+03  0.14225169502E+03  0.41800000000E+01 0.  1.
         -5    1    4    4    0  501  0.31692355005E+02 -0.27339994650E+02  0.11343371652E+02  0.43566330505E+02  0.41800000000E+01 0.  1.
</event>
<event>
11    1  0.1225151E-008  0.1740816E+03  0.7561462E-02  0.1074533E+00
         22   -1    0    0    0    0  0.00000000000E+00  0.00000000000E+00  0.50731620624E+03  0.50731620624E+03  0.00000000000E+00 0. -1.
         22   -1    0    0    0    0 -0.00000000000E+00 -0.00000000000E+00 -0.41253038077E+03  0.41253038077E+03  0.00000000000E+00 0.  1.
        -24    2    1    2    0    0 -0.82297089533E+02 -0.21533619854E+02 -0.28678314652E+03  0.30855951899E+03  0.75682864010E+02 0.  0.
         25    2    1    2    0    0  0.37286904978E+02 -0.96618252557E+02 -0.37009960201E+02  0.16656068507E+03  0.12508926671E+03 0.  0.
         24    2    1    2    0    0  0.45010184556E+02  0.11815187241E+03  0.41857893219E+03  0.44472638295E+03  0.81163116910E+02 0.  0.
        -11    1    5    5    0    0  0.42287419827E+02  0.57222187464E+02  0.11616698062E+03  0.13622544549E+03  0.00000000000E+00 0.  1.
         12    1    5    5    0    0  0.27227647287E+01  0.60929684947E+02  0.30241195158E+03  0.30850093746E+03  0.00000000000E+00 0. -1.
         13    1    3    3    0    0 -0.20185316857E+02 -0.61838208565E+01 -0.80765484469E+01  0.22603479640E+02  0.00000000000E+00 0. -1.
        -14    1    3    3    0    0 -0.62111772676E+02 -0.15349798998E+02 -0.27870659807E+03  0.28595603935E+03  0.00000000000E+00 0.  1.
          5    1    4    4  501    0  0.24306590001E+02 -0.11086193846E+03  0.11541881196E+02  0.11415720362E+03  0.41800000000E+01 0. -1.
         -5    1    4    4    0  501  0.12980314976E+02  0.14243685901E+02 -0.48551841397E+02  0.52403481449E+02  0.41800000000E+01 0. -1.
</event>
<event>
11    1  0.8453735E-009  0.2186958E+03  0.7561462E-02  0.1042038E+00
         22   -1    0    0    0    0  0.00000000000E+00  0.00000000000E+00  0.14605605988E+03  0.14605605988E+03  0.00000000000E+00 0.  1.
         22   -1    0    0    0    0 -0.00000000000E+00 -0.00000000000E+00 -0.61670496817E+03  0.61670496817E+03  0.00000000000E+00 0. -1.
        -24    2    1    2    0    0 -0.16855785713E+03 -0.25739723759E+02 -0.24342670847E+03  0.30756478711E+03  0.79153340346E+02 0.  0.
         25    2    1    2    0    0  0.20545214019E+03 -0.81184961554E+02 -0.12810955026E+03  0.28436961693E+03  0.12510972095E+03 0.  0.
         24    2    1    2    0    0 -0.36894283055E+02  0.10692468531E+03 -0.99112649555E+02  0.17082662401E+03  0.81020625260E+02 0.  0.
        -13    1    5    5    0    0 -0.24799986830E+01 -0.12305648619E+02 -0.20139872921E+02  0.23731705853E+02  0.00000000000E+00 0.  1.
         14    1    5    5    0    0 -0.34414284372E+02  0.11923033393E+03 -0.78972776634E+02  0.14709491816E+03  0.00000000000E+00 0. -1.
         13    1    3    3    0    0 -0.11081626344E+03  0.21839719110E+02 -0.15367369646E+03  0.19071660273E+03  0.00000000000E+00 0. -1.
        -14    1    3    3    0    0 -0.57741593693E+02 -0.47579442869E+02 -0.89753012014E+02  0.11684818437E+03  0.00000000000E+00 0.  1.
          5    1    4    4  501    0  0.15952255840E+03 -0.44930960883E+02 -0.27701434070E+02  0.16808057513E+03  0.41800000000E+01 0. -1.
         -5    1    4    4    0  501  0.45929581785E+02 -0.36254000670E+02 -0.10040811619E+03  0.11628904181E+03  0.41800000000E+01 0. -1.
</event>
<event>
11    1  0.8453735E-009  0.1317537E+03  0.7561462E-02  0.1117133E+00
         22   -1    0    0    0    0  0.00000000000E+00  0.00000000000E+00  0.54054178012E+03  0.54054178012E+03  0.00000000000E+00 0. -1.
         22   -1    0    0    0    0 -0.00000000000E+00 -0.00000000000E+00 -0.83069059889E+03  0.83069059889E+03  0.00000000000E+00 0.  1.
         24    2    1    2    0    0 -0.20197320980E+02  0.37196812248E+02 -0.72660809507E+03  0.73221878435E+03  0.79959300415E+02 0.  0.
         25    2    1    2    0    0  0.33396544108E+01 -0.28959581495E+02 -0.56116720611E+02  0.14016411084E+03  0.12508829276E+03 0.  0.
        -24    2    1    2    0    0  0.16857666569E+02 -0.82372307538E+01  0.49257599691E+03  0.49884948382E+03  0.76600665045E+02 0.  0.
        -13    1    3    3    0    0  0.78599076816E+01  0.13632457359E+02 -0.60514770695E+03  0.60535226874E+03  0.00000000000E+00 0.  1.
         14    1    3    3    0    0 -0.28057228662E+02  0.23564354889E+02 -0.12146038811E+03  0.12686651561E+03  0.00000000000E+00 0. -1.
         13    1    5    5    0    0  0.34060439992E+02  0.19712427052E+02  0.16475768830E+03  0.16939241189E+03  0.00000000000E+00 0. -1.
        -14    1    5    5    0    0 -0.17202773423E+02 -0.27949657805E+02  0.32781830861E+03  0.32945707193E+03  0.00000000000E+00 0.  1.
          5    1    4    4  501    0 -0.92206014405E+01 -0.69843047748E+02 -0.13963849811E+01  0.70586777096E+02  0.41800000000E+01 0. -1.
         -5    1    4    4    0  501  0.12560255851E+02  0.40883466254E+02 -0.54720335630E+02  0.69577333748E+02  0.41800000000E+01 0. -1.
</event>
<event>
11    1  0.8453735E-009  0.1546621E+03  0.7561462E-02  0.1092208E+00
         22   -1    0    0    0    0  0.00000000000E+00  0.00000000000E+00  0.21889020690E+03  0.21889020690E+03  0.00000000000E+00 0. -1.
         22   -1    0    0    0    0 -0.00000000000E+00 -0.00000000000E+00 -0.61603949149E+03  0.61603949149E+03  0.00000000000E+00 0.  1.
        -24    2    1    2    0    0 -0.79589664013E+02  0.49615942785E+02 -0.50795782669E+03  0.52294899097E+03  0.81598021249E+02 0.  0.
         25    2    1    2    0    0  0.51430136416E+02 -0.47274229389E+02 -0.28350512995E+02  0.14604878939E+03  0.12508631260E+03 0.  0.
         24    2    1    2    0    0  0.28159527597E+02 -0.23417133954E+01  0.13915905509E+03  0.16593191802E+03  0.85847051139E+02 0.  0.
        -13    1    5    5    0    0  0.24742803536E+02  0.70520503334E+01 -0.67895128183E+00  0.25737107755E+02  0.00000000000E+00 0.  1.
         14    1    5    5    0    0  0.34167240608E+01 -0.93937637288E+01  0.13983800637E+03  0.14019481027E+03  0.00000000000E+00 0. -1.
         11    1    3    3    0    0 -0.96226471138E+02  0.42014137741E+02 -0.40563528016E+03  0.41900441767E+03  0.00000000000E+00 0. -1.
        -12    1    3    3    0    0  0.16636807125E+02  0.76018050442E+01 -0.10232254652E+03  0.10394457330E+03  0.00000000000E+00 0.  1.
          5    1    4    4  501    0  0.49275135062E+02 -0.82718593973E+02  0.58759891896E+01  0.96552598998E+02  0.41800000000E+01 0.  1.
         -5    1    4    4    0  501  0.21550013534E+01  0.35444364583E+02 -0.34226502184E+02  0.49496190392E+02  0.41800000000E+01 0.  1.
</event>
<event>
11    1  0.8453735E-009  0.1777634E+03  0.7561462E-02  0.1071466E+00
         22   -1    0    0    0    0  0.00000000000E+00  0.00000000000E+00  0.27535334158E+03  0.27535334158E+03  0.00000000000E+00 0. -1.
         22   -1    0    0    0    0 -0.00000000000E+00 -0.00000000000E+00 -0.20071018747E+04  0.20071018747E+04  0.00000000000E+00 0. -1.
        -24    2    1    2    0    0 -0.35016386927E+02 -0.16854807548E+02 -0.15886296613E+04  0.15913830527E+04  0.85121019290E+02 0.  0.
         25    2    1    2    0    0 -0.55968841112E+02 -0.73563818956E+02 -0.37946972733E+03  0.41010596307E+03  0.12508189459E+03 0.  0.
         24    2    1    2    0    0  0.90985228038E+02  0.90418626504E+02  0.23635085552E+03  0.28096620045E+03  0.81402943122E+02 0.  0.
        -13    1    5    5    0    0  0.30884789401E+02  0.15240208412E+02  0.11381215943E+02  0.36272113877E+02  0.00000000000E+00 0.  1.
         14    1    5    5    0    0  0.60100438638E+02  0.75178418092E+02  0.22496963958E+03  0.24469408657E+03  0.00000000000E+00 0. -1.
         13    1    3    3    0    0 -0.30239383090E+02 -0.50663816361E+02 -0.93127651955E+03  0.93314371800E+03  0.00000000000E+00 0. -1.
        -14    1    3    3    0    0 -0.47770038371E+01  0.33809008813E+02 -0.65735314174E+03  0.65823933474E+03  0.00000000000E+00 0.  1.
          5    1    4    4  501    0  0.26016308953E+02 -0.28737765179E+02 -0.23355335658E+03  0.23678545193E+03  0.41800000000E+01 0. -1.
         -5    1    4    4    0  501 -0.81985150065E+02 -0.44826053777E+02 -0.14591637075E+03  0.17332051114E+03  0.41800000000E+01 0. -1.
</event>
<event>
11    1  0.8453735E-009  0.1538255E+03  0.7561462E-02  0.1093033E+00
         22   -1    0    0    0    0  0.00000000000E+00  0.00000000000E+00  0.18395864378E+04  0.18395864378E+04  0.00000000000E+00 0. -1.
         22   -1    0    0    0    0 -0.00000000000E+00 -0.00000000000E+00 -0.10034290345E+03  0.10034290345E+03  0.00000000000E+00 0.  1.
         24    2    1    2    0    0  0.80322920887E+01 -0.23808846680E+01 -0.67810621081E+02  0.10543522773E+03  0.80300190453E+02 0.  0.
         25    2    1    2    0    0  0.73478482915E+02 -0.38526387393E+02  0.50431867314E+03  0.52618278013E+03  0.12509046347E+03 0.  0.
        -24    2    1    2    0    0 -0.81510775003E+02  0.40907272061E+02  0.13027354823E+04  0.13083113334E+04  0.79002512065E+02 0.  0.
        -13    1    3    3    0    0 -0.28700341458E+02 -0.21256406140E+02 -0.47454062500E+02  0.59392191823E+02  0.00000000000E+00 0.  1.
         14    1    3    3    0    0  0.36732633547E+02  0.18875521472E+02 -0.20356558581E+02  0.46043035906E+02  0.00000000000E+00 0. -1.
         13    1    5    5    0    0  0.12845522662E+02 -0.40545460558E+01  0.26048527625E+03  0.26083332981E+03  0.00000000000E+00 0. -1.
        -14    1    5    5    0    0 -0.94356297666E+02  0.44961818117E+02  0.10422502060E+04  0.10474780036E+04  0.00000000000E+00 0.  1.
          5    1    4    4  501    0  0.10140490129E+03  0.41765395787E+00  0.36174325530E+03  0.37571103736E+03  0.41800000000E+01 0. -1.
         -5    1    4    4    0  501 -0.27926418372E+02 -0.38944041351E+02  0.14257541784E+03  0.15047174277E+03  0.41800000000E+01 0. -1.
</event>
<event>
11    1  0.8453735E-009  0.1519783E+03  0.7561462E-02  0.1094874E+00
         22   -1    0    0    0    0  0.00000000000E+00  0.00000000000E+00  0.25189042729E+03  0.25189042729E+03  0.00000000000E+00 0. -1.
         22   -1    0    0    0    0 -0.00000000000E+00 -0.00000000000E+00 -0.45348827496E+03  0.45348827496E+03  0.00000000000E+00 0.  1.
         24    2    1    2    0    0 -0.20904007670E+02 -0.19535391607E+02 -0.34795757134E+03  0.35871191817E+03  0.82347797307E+02 0.  0.
         25    2    1    2    0    0  0.83503555974E+02  0.69517864649E+02  0.92051192066E+01  0.16594603626E+03  0.12509106829E+03 0.  0.
        -24    2    1    2    0    0 -0.62599548304E+02 -0.49982473041E+02  0.13715460447E+03  0.18072074782E+03  0.86207030489E+02 0.  0.
        -11    1    3    3    0    0 -0.42432779962E+02  0.60133037281E+01 -0.27683904177E+03  0.28013667323E+03  0.00000000000E+00 0.  1.
         12    1    3    3    0    0  0.21528772293E+02 -0.25548695335E+02 -0.71118529566E+02  0.78575244940E+02  0.00000000000E+00 0. -1.
         11    1    5    5    0    0 -0.77964044174E+02 -0.21380479780E+02  0.11795981960E+03  0.14300362282E+03  0.00000000000E+00 0. -1.
        -12    1    5    5    0    0  0.15364495870E+02 -0.28601993261E+02  0.19194784864E+02  0.37717124994E+02  0.00000000000E+00 0.  1.
          5    1    4    4  501    0  0.24106859958E+02  0.56713637861E+02 -0.51154207246E+02  0.80198520781E+02  0.41800000000E+01 0.  1.
         -5    1    4    4    0  501  0.59396696015E+02  0.12804226788E+02  0.60359326452E+02  0.85747515480E+02  0.41800000000E+01 0.  1.
</event>
<event>
11    1  0.8453735E-009  0.2093603E+03  0.7561462E-02  0.1048095E+00
         22   -1    0    0    0    0  0.00000000000E+00  0.00000000000E+00  0.96312449591E+03  0.96312449591E+03  0.00000000000E+00 0. -1.
         22   -1    0    0    0    0 -0.00000000000E+00 -0.00000000000E+00 -0.39226492679E+03  0.39226492679E+03  0.00000000000E+00 0. -1.
         24    2    1    2    0    0 -0.22987421796E+02 -0.38907548182E+02 -0.27116648191E+03  0.28673066615E+03  0.81492301063E+02 0.  0.
         25    2    1    2    0    0 -0.11539106293E+03  0.13343458706E+03  0.10495878259E+02  0.21649575753E+03  0.12506143747E+03 0.  0.
        -24    2    1    2    0    0  0.13837848473E+03 -0.94527038878E+02  0.83153017278E+03  0.85216299901E+03  0.81580527887E+02 0.  0.
        -11    1    3    3    0    0 -0.82614369448E+01  0.15228321330E+02 -0.17138495190E+03  0.17225839558E+03  0.00000000000E+00 0.  1.
         12    1    3    3    0    0 -0.14725984851E+02 -0.54135869512E+02 -0.99781530016E+02  0.11447227057E+03  0.00000000000E+00 0. -1.
         13    1    5    5    0    0  0.97602366022E+02 -0.97786820435E+02  0.52334389636E+03  0.54127379205E+03  0.00000000000E+00 0. -1.
        -14    1    5    5    0    0  0.40776118705E+02  0.32597815574E+01  0.30818627642E+03  0.31088920696E+03  0.00000000000E+00 0.  1.
          5    1    4    4  501    0 -0.13999491839E+03  0.10679648715E+03 -0.64597151185E+01  0.17624774371E+03  0.41800000000E+01 0.  1.
         -5    1    4    4    0  501  0.24603855459E+02  0.26638099906E+02  0.16955593377E+02  0.40248013825E+02  0.41800000000E+01 0.  1.
</event>
<event>
11    1  0.8453735E-009  0.1617093E+03  0.7561462E-02  0.1085481E+00
         22   -1    0    0    0    0  0.00000000000E+00  0.00000000000E+00  0.28520980725E+02  0.28520980725E+02  0.00000000000E+00 0. -1.
         22   -1    0    0    0    0 -0.00000000000E+00 -0.00000000000E+00 -0.18935991542E+04  0.18935991542E+04  0.00000000000E+00 0. -1.
        -24    2    1    2    0    0 -0.67402921065E+01  0.10451249961E+03 -0.12290756576E+04  0.12362137430E+04  0.81419605786E+02 0.  0.
         25    2    1    2    0    0 -0.35655983507E+02 -0.94689562664E+02 -0.46572055152E+03  0.49272775696E+03  0.12509015925E+03 0.  0.
         24    2    1    2    0    0  0.42396275614E+02 -0.98229369474E+01 -0.17028196430E+03  0.19317863488E+03  0.80175453438E+02 0.  0.
        -11    1    5    5    0    0 -0.10126675177E+02 -0.45326439286E+01 -0.11921945071E+03  0.11973458915E+03  0.00000000000E+00 0.  1.
         12    1    5    5    0    0  0.52522950791E+02 -0.52902930189E+01 -0.51062513592E+02  0.73444045738E+02  0.00000000000E+00 0. -1.
         11    1    3    3    0    0 -0.31050595431E+02  0.84063682088E+02 -0.10841443859E+04  0.10878418505E+04  0.00000000000E+00 0. -1.
        -12    1    3    3    0    0  0.24310303324E+02  0.20448817523E+02 -0.14493127170E+03  0.14837189256E+03  0.00000000000E+00 0.  1.
          5    1    4    4  501    0 -0.23014556032E+02  0.23002930842E+02 -0.18744339399E+03  0.19029267713E+03  0.41800000000E+01 0. -1.
         -5    1    4    4    0  501 -0.12641427475E+02 -0.11769249351E+03 -0.27827715752E+03  0.30243507984E+03  0.41800000000E+01 0. -1.
</event>
<event>
11    1  0.8453735E-009  0.1865559E+03  0.7561462E-02  0.1064460E+00
         22   -1    0    0    0    0  0.00000000000E+00  0.00000000000E+00  0.14663495189E+04  0.14663495189E+04  0.00000000000E+00 0.  1.
         22   -1    0    0    0    0 -0.00000000000E+00 -0.00000000000E+00 -0.11992189169E+04  0.11992189169E+04  0.00000000000E+00 0.  1.
         24    2    1    2    0    0 -0.11398123682E+03 -0.77683512143E+02 -0.11098485485E+04  0.11212641606E+04  0.80268717636E+02 0.  0.
         25    2    1    2    0    0  0.10279387715E+03  0.11165408045E+03  0.34664517569E+02  0.19970487627E+03  0.12508874437E+03 0.  0.
        -24    2    1    2    0    0  0.11187359663E+02 -0.33970568308E+02  0.13423146330E+04  0.13445993989E+04  0.69712359934E+02 0.  0.
        -13    1    3    3    0    0 -0.58278530445E+02 -0.21281659015E+02 -0.24288010637E+03  0.25067916187E+03  0.00000000000E+00 0.  1.
         14    1    3    3    0    0 -0.55702706373E+02 -0.56401853128E+02 -0.86696844208E+03  0.87058499878E+03  0.00000000000E+00 0. -1.
         13    1    5    5    0    0 -0.31183455859E+01 -0.31159763234E+02  0.22281552376E+03  0.22500536117E+03  0.00000000000E+00 0. -1.
        -14    1    5    5    0    0  0.14305705249E+02 -0.28108050743E+01  0.11194991092E+04  0.11195940377E+04  0.00000000000E+00 0.  1.
          5    1    4    4  501    0  0.22549129480E+02 -0.27415628093E+02  0.19753244256E+01  0.35797405082E+02  0.41800000000E+01 0.  1.
         -5    1    4    4    0  501  0.80244747675E+02  0.13906970854E+03  0.32689193144E+02  0.16390747119E+03  0.41800000000E+01 0.  1.
</event>
<event>
11    1  0.8453735E-009  0.1604101E+03  0.7561462E-02  0.1086692E+00
         22   -1    0    0    0    0  0.00000000000E+00  0.00000000000E+00  0.15701660378E+04  0.15701660378E+04  0.00000000000E+00 0. -1.
         22   -1    0    0    0    0 -0.00000000000E+00 -0.00000000000E+00 -0.15255575559E+04  0.15255575559E+04  0.00000000000E+00 0. -1.
        -24    2    1    2    0    0  0.10077603861E+03 -0.73943177357E+01 -0.14656911438E+04  0.14713400694E+04  0.79878563308E+02 0.  0.
         25    2    1    2    0    0 -0.78874541453E+02  0.26878948912E+00  0.42066734838E+02  0.15374687366E+03  0.12508887018E+03 0.  0.
         24    2    1    2    0    0 -0.21901497160E+02  0.71255282466E+01  0.14682328908E+04  0.14706366507E+04  0.80832468558E+02 0.  0.
        -11    1    5    5    0    0 -0.18430565331E+02 -0.30707131024E+02  0.36571620574E+03  0.36746558583E+03  0.00000000000E+00 0.  1.
         12    1    5    5    0    0 -0.34709318295E+01  0.37832659271E+02  0.11025166851E+04  0.11031710648E+04  0.00000000000E+00 0. -1.
         13    1    3    3    0    0  0.83924683561E+02  0.24860170943E+02 -0.82855879180E+03  0.83316928177E+03  0.00000000000E+00 0. -1.
        -14    1    3    3    0    0  0.16851355052E+02 -0.32254488679E+02 -0.63713235197E+03  0.63817078759E+03  0.00000000000E+00 0.  1.
          5    1    4    4  501    0 -0.35711791641E+02  0.80780065522E+01  0.84740898993E+02  0.92407135083E+02  0.41800000000E+01 0.  1.
         -5    1    4    4    0  501 -0.43162749812E+02 -0.78092170631E+01 -0.42674164155E+02  0.61339738578E+02  0.41800000000E+01 0.  1.
</event>
<event>
11    1  0.8453735E-009  0.1365683E+03  0.7561462E-02  0.1111452E+00
         22   -1    0    0    0    0  0.00000000000E+00  0.00000000000E+00  0.15221192305E+03  0.15221192305E+03  0.00000000000E+00 0.  1.
         22   -1    0    0    0    0 -0.00000000000E+00 -0.00000000000E+00 -0.13163518349E+04  0.13163518349E+04  0.00000000000E+00 0. -1.
         24    2    1    2    0    0 -0.57192695224E+01  0.53396124179E+02 -0.81360272122E+03  0.81931985205E+03  0.80322947341E+02 0.  0.
         25    2    1    2    0    0  0.25909485879E+02 -0.55481087785E+02 -0.47812894332E+03  0.49799783678E+03  0.12508039990E+03 0.  0.
        -24    2    1    2    0    0 -0.20190216357E+02  0.20849636062E+01  0.12759175267E+03  0.15124606914E+03  0.78636671926E+02 0.  0.
        -11    1    3    3    0    0  0.85598797756E+01  0.39463654489E+02 -0.14776660262E+03  0.15318492230E+03  0.00000000000E+00 0.  1.
         12    1    3    3    0    0 -0.14279149298E+02  0.13932469690E+02 -0.66583611860E+03  0.66613492976E+03  0.00000000000E+00 0. -1.
         11    1    5    5    0    0 -0.26482974386E+02  0.26645084016E+01  0.33305075100E+01  0.26824239367E+02  0.00000000000E+00 0. -1.
        -12    1    5    5    0    0  0.62927580294E+01 -0.57954479539E+00  0.12426124516E+03  0.12442182977E+03  0.00000000000E+00 0.  1.
          5    1    4    4  501    0  0.74743558550E+02 -0.40375533582E+02 -0.34504086680E+03  0.35536946326E+03  0.41800000000E+01 0. -1.
         -5    1    4    4    0  501 -0.48834072671E+02 -0.15105554203E+02 -0.13308807652E+03  0.14262837352E+03  0.41800000000E+01 0. -1.
</event>
<event>
11    1  0.8453735E-009  0.1277207E+03  0.7561462E-02  0.1122102E+00
         22   -1    0    0    0    0  0.00000000000E+00  0.00000000000E+00  0.32939611251E+03  0.32939611251E+03  0.00000000000E+00 0. -1.
         22   -1    0    0    0    0 -0.00000000000E+00 -0.00000000000E+00 -0.35031627072E+03  0.35031627072E+03  0.00000000000E+00 0.  1.
         24    2    1    2    0    0 -0.16926288909E+02 -0.16905905949E+02 -0.28551564307E+03  0.29856694506E+03  0.83968621104E+02 0.  0.
         25    2    1    2    0    0  0.47426568281E+02  0.25935315606E+02  0.42310425417E+02  0.14268777845E+03  0.12509080720E+03 0.  0.
        -24    2    1    2    0    0 -0.30500279373E+02 -0.90294096570E+01  0.22228505945E+03  0.23845765972E+03  0.80247184038E+02 0.  0.
        -13    1    3    3    0    0 -0.20992974803E+02 -0.41532632840E+02 -0.25467192611E+03  0.25888888453E+03  0.00000000000E+00 0.  1.
         14    1    3    3    0    0  0.40666858946E+01  0.24626726892E+02 -0.30843716957E+02  0.39678060528E+02  0.00000000000E+00 0. -1.
         13    1    5    5    0    0 -0.51877999294E+02 -0.26915103839E+02  0.14941485470E+03  0.16043861266E+03  0.00000000000E+00 0. -1.
        -14    1    5    5    0    0  0.21377719922E+02  0.17885694182E+02  0.72870204743E+02  0.78019047064E+02  0.00000000000E+00 0.  1.
          5    1    4    4  501    0  0.88331223345E+02  0.22839854771E+02  0.13356439556E+02  0.92303471556E+02  0.41800000000E+01 0.  1.
         -5    1    4    4    0  501 -0.40904655064E+02  0.30954608348E+01  0.28953985861E+02  0.50384306892E+02  0.41800000000E+01 0.  1.
</event>
<event>
11    1  0.8453735E-009  0.1300929E+03  0.7561462E-02  0.1119155E+00
         22   -1    0    0    0    0  0.00000000000E+00  0.00000000000E+00  0.37569873633E+04  0.37569873633E+04  0.00000000000E+00 0. -1.
         22   -1    0    0    0    0 -0.00000000000E+00 -0.00000000000E+00 -0.56240021747E+02  0.56240021747E+02  0.00000000000E+00 0.  1.
        -24    2    1    2    0    0  0.23889545370E+02 -0.23588080538E+02 -0.33857245632E+01  0.87765253796E+02  0.81019557649E+02 0.  0.
         25    2    1    2    0    0 -0.47695276530E+02  0.37212331600E+02  0.46645206324E+03  0.48670774582E+03  0.12508919027E+03 0.  0.
         24    2    1    2    0    0  0.23805731161E+02 -0.13624251062E+02  0.32376810029E+04  0.32387543855E+04  0.78736012443E+02 0.  0.
        -11    1    5    5    0    0 -0.78998113840E+01 -0.34968547972E+01  0.41008660868E+02  0.41908773301E+02  0.00000000000E+00 0.  1.
         12    1    5    5    0    0  0.31705542545E+02 -0.10127396265E+02  0.31966723421E+04  0.31968456122E+04  0.00000000000E+00 0. -1.
         13    1    3    3    0    0 -0.28365548817E+02 -0.15191289531E+02  0.89951879088E+01  0.33410971892E+02  0.00000000000E+00 0. -1.
        -14    1    3    3    0    0  0.52255094186E+02 -0.83967910067E+01 -0.12380912472E+02  0.54354281904E+02  0.00000000000E+00 0.  1.
          5    1    4    4  501    0 -0.33815433260E+02 -0.40985054204E+01  0.23490547330E+02  0.41587972866E+02  0.41800000000E+01 0.  1.
         -5    1    4    4    0  501 -0.13879843270E+02  0.41310837020E+02  0.44296151590E+03  0.44511977296E+03  0.41800000000E+01 0.  1.
</event>
<event>
11    1  0.8453735E-009  0.2209456E+03  0.7561462E-02  0.1040627E+00
         22   -1    0    0    0    0  0.00000000000E+00  0.00000000000E+00  0.47772248911E+03  0.47772248911E+03  0.00000000000E+00 0.  1.
         22   -1    0    0    0    0 -0.00000000000E+00 -0.00000000000E+00 -0.98362786136E+03  0.98362786136E+03  0.00000000000E+00 0.  1.
         24    2    1    2    0    0 -0.28998062869E+02 -0.46658047091E+02 -0.85454264072E+03  0.85997931132E+03  0.79394143888E+02 0.  0.
         25    2    1    2    0    0  0.13126301432E+03 -0.10998474075E+03  0.17758571165E+02  0.21281239790E+03  0.12508847959E+03 0.  0.
        -24    2    1    2    0    0 -0.10226495145E+03  0.15664278784E+03  0.33087869730E+03  0.38855864125E+03  0.80635116970E+02 0.  0.
        -11    1    3    3    0    0 -0.43387414158E+02 -0.10416000837E+02 -0.66344662317E+03  0.66494539819E+03  0.00000000000E+00 0.  1.
         12    1    3    3    0    0  0.14389351290E+02 -0.36242046254E+02 -0.19109601755E+03  0.19503391313E+03  0.00000000000E+00 0. -1.
         11    1    5    5    0    0  0.13229253931E+02  0.17471239633E+02  0.25288685167E+02  0.33463038884E+02  0.00000000000E+00 0. -1.
        -12    1    5    5    0    0 -0.11549420538E+03  0.13917154820E+03  0.30559001213E+03  0.35509560237E+03  0.00000000000E+00 0.  1.
          5    1    4    4  501    0  0.17849017186E+02  0.14775771462E+02  0.36164045309E+02  0.43153463475E+02  0.41800000000E+01 0.  1.
         -5    1    4    4    0  501  0.11341399713E+03 -0.12476051221E+03 -0.18405474144E+02  0.16965893443E+03  0.41800000000E+01 0.  1.
</event>
<event>
11    1  0.8453735E-009  0.1631002E+03  0.7561462E-02  0.1084197E+00
         22   -1    0    0    0    0  0.00000000000E+00  0.00000000000E+00  0.31232393848E+03  0.31232393848E+03  0.00000000000E+00 0. -1.
         22   -1    0    0    0    0 -0.00000000000E+00 -0.00000000000E+00 -0.19906708528E+04  0.19906708528E+04  0.00000000000E+00 0. -1.
         24    2    1    2    0    0 -0.92405938499E+02 -0.49043114785E+02 -0.17770967004E+04  0.17819665999E+04  0.79926191360E+02 0.  0.
         25    2    1    2    0    0  0.10105460399E+03  0.34131658407E+02 -0.17167157048E+03  0.23768677732E+03  0.12508746105E+03 0.  0.
        -24    2    1    2    0    0 -0.86486654909E+01  0.14911456378E+02  0.27042135662E+03  0.28334141398E+03  0.82809998269E+02 0.  0.
        -13    1    3    3    0    0 -0.24732330612E+01  0.80647446811E+01 -0.20849907152E+02  0.22491678834E+02  0.00000000000E+00 0.  1.
         14    1    3    3    0    0 -0.89932705437E+02 -0.57107859466E+02 -0.17562467933E+04  0.17594749211E+04  0.00000000000E+00 0. -1.
         13    1    5    5    0    0 -0.39619973196E+02 -0.14189498620E+02  0.13570320773E+03  0.14207900878E+03  0.00000000000E+00 0. -1.
        -14    1    5    5    0    0  0.30971307705E+02  0.29100954998E+02  0.13471814889E+03  0.14126240520E+03  0.00000000000E+00 0.  1.
          5    1    4    4  501    0  0.12853376710E+03  0.34479474805E+02 -0.15827696142E+03  0.20683044356E+03  0.41800000000E+01 0.  1.
         -5    1    4    4    0  501 -0.27479163109E+02 -0.34781639803E+00 -0.13394609055E+02  0.30856333760E+02  0.41800000000E+01 0.  1.
</event>
<event>
11    1  0.8453735E-009  0.1494802E+03  0.7561462E-02  0.1097411E+00
         22   -1    0    0    0    0  0.00000000000E+00  0.00000000000E+00  0.27982500671E+03  0.27982500671E+03  0.00000000000E+00 0. -1.
         22   -1    0    0    0    0 -0.00000000000E+00 -0.00000000000E+00 -0.27695862080E+04  0.27695862080E+04  0.00000000000E+00 0. -1.
         24    2    1    2    0    0  0.56628584371E+02  0.67346577002E+02 -0.25847360774E+04  0.25872982490E+04  0.74224531720E+02 0.  0.
         25    2    1    2    0    0 -0.12302826107E+03 -0.21209003457E+02 -0.12210256380E+03  0.21480583137E+03  0.12508690681E+03 0.  0.
        -24    2    1    2    0    0  0.66399676695E+02 -0.46137573545E+02  0.21707743998E+03  0.24730713433E+03  0.86606067829E+02 0.  0.
        -11    1    3    3    0    0 -0.11355148149E+02  0.38028129297E+02 -0.71995280268E+03  0.72104584882E+03  0.00000000000E+00 0.  1.
         12    1    3    3    0    0  0.67983732520E+02  0.29318447705E+02 -0.18647832748E+04  0.18662524001E+04  0.00000000000E+00 0. -1.
         11    1    5    5    0    0  0.65019640748E+02 -0.64411167997E+02  0.13426553419E+03  0.16249180262E+03  0.00000000000E+00 0. -1.
        -12    1    5    5    0    0  0.13800359468E+01  0.18273594452E+02  0.82811905792E+02  0.84815331718E+02  0.00000000000E+00 0.  1.
          5    1    4    4  501    0 -0.98206224806E+02  0.24570421597E+02 -0.12685026725E+03  0.16234725409E+03  0.41800000000E+01 0. -1.
         -5    1    4    4    0  501 -0.24822036261E+02 -0.45779425054E+02  0.47477034509E+01  0.52458577282E+02  0.41800000000E+01 0. -1.
</event>
<event>
11    1  0.8453735E-009  0.1307916E+03  0.7561462E-02  0.1118300E+00
         22   -1    0    0    0    0  0.00000000000E+00  0.00000000000E+00  0.22896734130E+03  0.22896734130E+03  0.00000000000E+00 0.  1.
         22   -1    0    0    0    0 -0.00000000000E+00 -0.00000000000E+00 -0.17804030943E+04  0.17804030943E+04  0.00000000000E+00 0.  1.
         24    2    1    2    0    0 -0.37782541977E+02  0.65464430272E+01 -0.16962849582E+04  0.16986502177E+04  0.80990903748E+02 0.  0.
         25    2    1    2    0    0  0.30183856619E+02 -0.55491481733E+01 -0.15749628758E+02  0.12976089448E+03  0.12509188896E+03 0.  0.
        -24    2    1    2    0    0  0.75986853578E+01 -0.99729485391E+00  0.16059883390E+03  0.18095932341E+03  0.83039488585E+02 0.  0.
        -11    1    3    3    0    0 -0.50991873273E+02  0.31626103686E+02 -0.12763819431E+04  0.12777915504E+04  0.00000000000E+00 0.  1.
         12    1    3    3    0    0  0.13209331296E+02 -0.25079660659E+02 -0.41990301510E+03  0.42085866738E+03  0.00000000000E+00 0. -1.
         13    1    5    5    0    0  0.21332680698E+01  0.40064831065E+02  0.98005561276E+02  0.10590010180E+03  0.00000000000E+00 0. -1.
        -14    1    5    5    0    0  0.54654172880E+01 -0.41062125919E+02  0.62593272622E+02  0.75059221610E+02  0.00000000000E+00 0.  1.
          5    1    4    4  501    0  0.20504549952E+02  0.74142486522E+01 -0.69769061535E+02  0.73216132098E+02  0.41800000000E+01 0. -1.
         -5    1    4    4    0  501  0.96793066677E+01 -0.12963396826E+02  0.54019432778E+02  0.56544762378E+02  0.41800000000E+01 0. -1.
</event>
<event>
11    1  0.8453735E-009  0.2507927E+03  0.7561462E-02  0.1023478E+00
         22   -1    0    0    0    0  0.00000000000E+00  0.00000000000E+00  0.59101446402E+03  0.59101446402E+03  0.00000000000E+00 0. -1.
         22   -1    0    0    0    0 -0.00000000000E+00 -0.00000000000E+00 -0.27257289651E+03  0.27257289651E+03  0.00000000000E+00 0. -1.
        -24    2    1    2    0    0 -0.63549694246E+02  0.63479977612E+02 -0.14123655163E+03  0.18496172452E+03  0.78707082435E+02 0.  0.
         25    2    1    2    0    0 -0.15894335746E+03  0.50906998610E+02  0.94746241424E+02  0.22907841567E+03  0.12508220047E+03 0.  0.
         24    2    1    2    0    0  0.22249305171E+03 -0.11438697622E+03  0.36493187771E+03  0.44954722034E+03  0.79560603057E+02 0.  0.
        -11    1    5    5    0    0  0.12096731261E+03 -0.17879010305E+02  0.16218155362E+03  0.20311476082E+03  0.00000000000E+00 0.  1.
         12    1    5    5    0    0  0.10152573910E+03 -0.96507965917E+02  0.20275032409E+03  0.24643245952E+03  0.00000000000E+00 0. -1.
         13    1    3    3    0    0 -0.64708635552E+02  0.44824753747E+02 -0.53310369688E+02  0.95070824020E+02  0.00000000000E+00 0. -1.
        -14    1    3    3    0    0  0.11589413060E+01  0.18655223865E+02 -0.87926181938E+02  0.89890900500E+02  0.00000000000E+00 0.  1.
          5    1    4    4  501    0 -0.17681491817E+03  0.60508617770E+02  0.78452017558E+02  0.20272394918E+03  0.41800000000E+01 0.  1.
         -5    1    4    4    0  501  0.17871560709E+02 -0.96016191605E+01  0.16294223866E+02  0.26354466492E+02  0.41800000000E+01 0.  1.
</event>
<event>
11    1  0.8453735E-009  0.1746886E+03  0.7561462E-02  0.1074022E+00
         22   -1    0    0    0    0  0.00000000000E+00  0.00000000000E+00  0.97273071938E+03  0.97273071938E+03  0.00000000000E+00 0. -1.
         22   -1    0    0    0    0 -0.00000000000E+00 -0.00000000000E+00 -0.18220932330E+04  0.18220932330E+04  0.00000000000E+00 0.  1.
         24    2    1    2    0    0 -0.12000818559E+03 -0.19408358056E+02 -0.17709758278E+04  0.17769047569E+04  0.79097934018E+02 0.  0.
         25    2    1    2    0    0  0.14666661313E+03  0.17011615773E+02  0.15849858390E+03  0.25013878300E+03  0.12508844545E+03 0.  0.
        -24    2    1    2    0    0 -0.26658427545E+02  0.23967422839E+01  0.76311473036E+03  0.76778041249E+03  0.80163919483E+02 0.  0.
        -11    1    3    3    0    0 -0.66063714854E+02 -0.48523284371E+02 -0.11469535206E+04  0.11498788206E+04  0.00000000000E+00 0.  1.
         12    1    3    3    0    0 -0.53944470734E+02  0.29114926315E+02 -0.62402230720E+03  0.62702593626E+03  0.00000000000E+00 0. -1.
         13    1    5    5    0    0 -0.49492611688E+02  0.19495830491E+01  0.67287168159E+03  0.67469224049E+03  0.00000000000E+00 0. -1.
        -14    1    5    5    0    0  0.22834184143E+02  0.44715923484E+00  0.90243048761E+02  0.93088172002E+02  0.00000000000E+00 0.  1.
          5    1    4    4  501    0  0.24027005209E+02  0.12107181430E+02  0.11758176004E+03  0.12069309639E+03  0.41800000000E+01 0.  1.
         -5    1    4    4    0  501  0.12263960792E+03  0.49044343421E+01  0.40916823856E+02  0.12944568661E+03  0.41800000000E+01 0.  1.
</event>
<event>
11    1  0.8453735E-009  0.4740468E+03  0.7561462E-02  0.9453461E-01
         22   -1    0    0    0    0  0.00000000000E+00  0.00000000000E+00  0.14864388130E+03  0.14864388130E+03  0.00000000000E+00 0. -1.
         22   -1    0    0    0    0 -0.00000000000E+00 -0.00000000000E+00 -0.25905183414E+04  0.25905183414E+04  0.00000000000E+00 0.  1.
         24    2    1    2    0    0  0.20117741456E+02 -0.12242915845E+03 -0.10076533318E+04  0.10181429526E+04  0.76525895096E+02 0.  0.
         25    2    1    2    0    0  0.33193057179E+03 -0.23424066979E+03 -0.82471863267E+03  0.92782346267E+03  0.12509579905E+03 0.  0.
        -24    2    1    2    0    0 -0.35204831325E+03  0.35666982823E+03 -0.60950249565E+03  0.79319580738E+03  0.80715025849E+02 0.  0.
        -13    1    3    3    0    0  0.33129005727E+02 -0.26830081584E+02 -0.46759217575E+03  0.46953149747E+03  0.00000000000E+00 0.  1.
         14    1    3    3    0    0 -0.13011264271E+02 -0.95599076862E+02 -0.54006115603E+03  0.54861145517E+03  0.00000000000E+00 0. -1.
         13    1    5    5    0    0 -0.10017569541E+03  0.15200584754E+03 -0.19525036821E+03  0.26695253122E+03  0.00000000000E+00 0. -1.
        -14    1    5    5    0    0 -0.25187261784E+03  0.20466398069E+03 -0.41425212745E+03  0.52624327616E+03  0.00000000000E+00 0.  1.
          5    1    4    4  501    0  0.24814036528E+03 -0.16553833921E+03 -0.46805275202E+03  0.55503822725E+03  0.41800000000E+01 0. -1.
         -5    1    4    4    0  501  0.83790206515E+02 -0.68702330578E+02 -0.35666588064E+03  0.37278523542E+03  0.41800000000E+01 0. -1.
</event>
<event>
11    1  0.8453735E-009  0.1966342E+03  0.7561462E-02  0.1056930E+00
         22   -1    0    0    0    0  0.00000000000E+00  0.00000000000E+00  0.14153932523E+04  0.14153932523E+04  0.00000000000E+00 0.  1.
         22   -1    0    0    0    0 -0.00000000000E+00 -0.00000000000E+00 -0.18381453333E+04  0.18381453333E+04  0.00000000000E+00 0.  1.
        -24    2    1    2    0    0 -0.13902253020E+03 -0.55816518794E+02 -0.16700290794E+04  0.16786542792E+04  0.80251576482E+02 0.  0.
         25    2    1    2    0    0  0.17778013054E+03  0.56538248829E+02 -0.84686473105E+02  0.24004418150E+03  0.12508821666E+03 0.  0.
         24    2    1    2    0    0 -0.38757600339E+02 -0.72173003575E+00  0.13319634715E+04  0.13348401249E+04  0.78541690709E+02 0.  0.
        -13    1    5    5    0    0 -0.39347233822E+02  0.41993319847E+01  0.13277368444E+04  0.13283263782E+04  0.00000000000E+00 0.  1.
         14    1    5    5    0    0  0.58963348301E+00 -0.49210620205E+01  0.42266271564E+01  0.65137467078E+01  0.00000000000E+00 0. -1.
         13    1    3    3    0    0 -0.47986451358E+02 -0.30752998786E+02 -0.29940193237E+03  0.30477854838E+03  0.00000000000E+00 0. -1.
        -14    1    3    3    0    0 -0.91036078847E+02 -0.25063520008E+02 -0.13706271470E+04  0.13738757308E+04  0.00000000000E+00 0.  1.
          5    1    4    4  501    0  0.17601358872E+03  0.11712704085E+02 -0.82895037732E+02  0.19495391900E+03  0.41800000000E+01 0.  1.
         -5    1    4    4    0  501  0.17665418200E+01  0.44825544744E+02 -0.17914353733E+01  0.45090262500E+02  0.41800000000E+01 0.  1.
</event>
<event>
11    1  0.8453735E-009  0.1822750E+03  0.7561462E-02  0.1067817E+00
         22   -1    0    0    0    0  0.00000000000E+00  0.00000000000E+00  0.11297331718E+04  0.11297331718E+04  0.00000000000E+00 0. -1.
         22   -1    0    0    0    0 -0.00000000000E+00 -0.00000000000E+00 -0.66213864255E+03  0.66213864255E+03  0.00000000000E+00 0.  1.
         24    2    1    2    0    0 -0.10235301954E+03 -0.80822418309E+02 -0.55518785146E+03  0.57585165521E+03  0.79769508504E+02 0.  0.
         25    2    1    2    0    0  0.12160591772E+03  0.95030744660E+02  0.93529411699E+01  0.19888262154E+03  0.12509187818E+03 0.  0.
        -24    2    1    2    0    0 -0.19252898184E+02 -0.14208326351E+02  0.10134294395E+04  0.10171375376E+04  0.83408577854E+02 0.  0.
        -11    1    3    3    0    0 -0.53671468528E+02 -0.87667166058E+02 -0.34476527196E+03  0.35976277084E+03  0.00000000000E+00 0.  1.
         12    1    3    3    0    0 -0.48681551009E+02  0.68447477484E+01 -0.21042257950E+03  0.21608888436E+03  0.00000000000E+00 0. -1.
         11    1    5    5    0    0 -0.20935723515E+02 -0.44026350931E+02  0.81673674368E+03  0.81819040117E+03  0.00000000000E+00 0. -1.
        -12    1    5    5    0    0  0.16828253309E+01  0.29818024580E+02  0.19669269584E+03  0.19894713642E+03  0.00000000000E+00 0.  1.
          5    1    4    4  501    0  0.14426348956E+03  0.85875359909E+02  0.24666387072E+02  0.16974226024E+03  0.41800000000E+01 0. -1.
         -5    1    4    4    0  501 -0.22657571838E+02  0.91553847516E+01 -0.15313445902E+02  0.29140361304E+02  0.41800000000E+01 0. -1.
</event>
<event>
11    1  0.8453735E-009  0.1550552E+03  0.7561462E-02  0.1091822E+00
         22   -1    0    0    0    0  0.00000000000E+00  0.00000000000E+00  0.18453216823E+03  0.18453216823E+03  0.00000000000E+00 0. -1.
         22   -1    0    0    0    0 -0.00000000000E+00 -0.00000000000E+00 -0.25294273905E+04  0.25294273905E+04  0.00000000000E+00 0.  1.
         24    2    1    2    0    0  0.21966975596E+02  0.47636477349E+02 -0.23741386121E+04  0.23761371818E+04  0.82109532031E+02 0.  0.
         25    2    1    2    0    0  0.65131167838E+02 -0.77567823172E+02 -0.75083131811E+02  0.17760281678E+03  0.12508576110E+03 0.  0.
        -24    2    1    2    0    0 -0.87098143434E+02  0.29931345824E+02  0.10432652156E+03  0.16021956024E+03  0.79399699809E+02 0.  0.
        -13    1    3    3    0    0  0.54803281780E+01  0.53536517745E+02 -0.22619625693E+04  0.22626026733E+04  0.00000000000E+00 0.  1.
         14    1    3    3    0    0  0.16486647418E+02 -0.59000403965E+01 -0.11217604281E+03  0.11353450841E+03  0.00000000000E+00 0. -1.
         13    1    5    5    0    0 -0.98138727401E+02  0.40316979824E+02  0.95059909319E+02  0.14245369436E+03  0.00000000000E+00 0. -1.
        -14    1    5    5    0    0  0.11040583967E+02 -0.10385634000E+02  0.92666122439E+01  0.17765865878E+02  0.00000000000E+00 0.  1.
          5    1    4    4  501    0  0.72408583058E+02 -0.10396891452E+03 -0.79377993906E+02  0.14956896872E+03  0.41800000000E+01 0.  1.
         -5    1    4    4    0  501 -0.72774152195E+01  0.26401091349E+02  0.42948620943E+01  0.28033848061E+02  0.41800000000E+01 0.  1.
</event>
<event>
11    1  0.8453735E-009  0.1496334E+03  0.7561462E-02  0.1097254E+00
         22   -1    0    0    0    0  0.00000000000E+00  0.00000000000E+00  0.56555205744E+03  0.56555205744E+03  0.00000000000E+00 0. -1.
         22   -1    0    0    0    0 -0.00000000000E+00 -0.00000000000E+00 -0.18408522367E+03  0.18408522367E+03  0.00000000000E+00 0.  1.
         24    2    1    2    0    0  0.13353315332E+02  0.97199124779E+01 -0.11508944915E+03  0.14160263503E+03  0.80826587293E+02 0.  0.
         25    2    1    2    0    0 -0.88683566203E+02 -0.36611516644E+02  0.80468583975E+02  0.17699691510E+03  0.12509011504E+03 0.  0.
        -24    2    1    2    0    0  0.75330250872E+02  0.26891604166E+02  0.41608769893E+03  0.43103773099E+03  0.79162789609E+02 0.  0.
        -13    1    3    3    0    0  0.22631471927E+02 -0.32082399290E+02 -0.62167808406E+02  0.73527547680E+02  0.00000000000E+00 0.  1.
         14    1    3    3    0    0 -0.92781565958E+01  0.41802311768E+02 -0.52921640740E+02  0.68075087349E+02  0.00000000000E+00 0. -1.
         11    1    5    5    0    0  0.37410352283E+01  0.20406507312E+02  0.23926153673E+03  0.24015933012E+03  0.00000000000E+00 0. -1.
        -12    1    5    5    0    0  0.71589215643E+02  0.64850968543E+01  0.17682616221E+03  0.19087840087E+03  0.00000000000E+00 0.  1.
          5    1    4    4  501    0  0.13859019669E+02  0.73931984329E+01  0.61651766307E+02  0.63758485694E+02  0.41800000000E+01 0. -1.
         -5    1    4    4    0  501 -0.10254258587E+03 -0.44004715077E+02  0.18816817668E+02  0.11323842940E+03  0.41800000000E+01 0. -1.
</event>
<event>
11    1  0.8453735E-009  0.1367331E+03  0.7561462E-02  0.1111262E+00
         22   -1    0    0    0    0  0.00000000000E+00  0.00000000000E+00  0.16854621078E+03  0.16854621078E+03  0.00000000000E+00 0.  1.
         22   -1    0    0    0    0 -0.00000000000E+00 -0.00000000000E+00 -0.35456647349E+03  0.35456647349E+03  0.00000000000E+00 0. -1.
        -24    2    1    2    0    0  0.45692282379E+00  0.70858617983E+01 -0.24400602267E+03  0.25744430307E+03  0.81781488539E+02 0.  0.
         25    2    1    2    0    0  0.51080190030E+02 -0.25661590072E+02 -0.23753692774E+02  0.13956454951E+03  0.12508526108E+03 0.  0.
         24    2    1    2    0    0 -0.51537112854E+02  0.18575728274E+02  0.81739452740E+02  0.12610383169E+03  0.78865116180E+02 0.  0.
        -11    1    5    5    0    0 -0.70831088883E+02  0.25831004406E+02  0.65183287648E+02  0.99665164073E+02  0.00000000000E+00 0.  1.
         12    1    5    5    0    0  0.19293976029E+02 -0.72552761325E+01  0.16556165092E+02  0.26438667616E+02  0.00000000000E+00 0. -1.
         13    1    3    3    0    0 -0.22809189482E+02 -0.30180684492E+02 -0.12439528597E+03  0.13002045998E+03  0.00000000000E+00 0. -1.
        -14    1    3    3    0    0  0.23266112305E+02  0.37266546291E+02 -0.11961073670E+03  0.12742384309E+03  0.00000000000E+00 0.  1.
          5    1    4    4  501    0  0.27472598671E+02 -0.74753496943E+02  0.58835859031E+00  0.79753667933E+02  0.41800000000E+01 0. -1.
         -5    1    4    4    0  501  0.23607591359E+02  0.49091906871E+02 -0.24342051364E+02  0.59810881574E+02  0.41800000000E+01 0. -1.
</event>
<event>
11    1  0.8453735E-009  0.1498297E+03  0.7561462E-02  0.1097053E+00
         22   -1    0    0    0    0  0.00000000000E+00  0.00000000000E+00  0.36827487954E+03  0.36827487954E+03  0.00000000000E+00 0.  1.
         22   -1    0    0    0    0 -0.00000000000E+00 -0.00000000000E+00 -0.26376222951E+03  0.26376222951E+03  0.00000000000E+00 0.  1.
         24    2    1    2    0    0 -0.19700149225E+02  0.25390301019E+02 -0.12240513799E+03  0.15066842091E+03  0.81763023354E+02 0.  0.
         25    2    1    2    0    0  0.17500253192E+02 -0.10565250861E+03 -0.57793680983E+02  0.17451638546E+03  0.12508855982E+03 0.  0.
        -24    2    1    2    0    0  0.21998960338E+01  0.80262207589E+02  0.28471146901E+03  0.30685230268E+03  0.81552765517E+02 0.  0.
        -11    1    3    3    0    0 -0.11600467368E+02  0.46065868021E+02 -0.11909245421E+03  0.12821718952E+03  0.00000000000E+00 0.  1.
         12    1    3    3    0    0 -0.80996818570E+01 -0.20675567002E+02 -0.33126837820E+01  0.22451231389E+02  0.00000000000E+00 0. -1.
         13    1    5    5    0    0  0.48701473771E+01 -0.16204780938E+02  0.58938391181E+02  0.61319223868E+02  0.00000000000E+00 0. -1.
        -14    1    5    5    0    0 -0.26702513433E+01  0.96466988527E+02  0.22577307783E+03  0.24553307881E+03  0.00000000000E+00 0.  1.
          5    1    4    4  501    0  0.63027210369E+02 -0.24661113150E+02 -0.43129818464E+02  0.80363258952E+02  0.41800000000E+01 0. -1.
         -5    1    4    4    0  501 -0.45526957177E+02 -0.80991395458E+02 -0.14663862518E+02  0.94153126512E+02  0.41800000000E+01 0. -1.
</event>
<event>
11    1  0.8453735E-009  0.1374431E+03  0.7561462E-02  0.1110448E+00
         22   -1    0    0    0    0  0.00000000000E+00  0.00000000000E+00  0.54985745171E+03  0.54985745171E+03  0.00000000000E+00 0. -1.
         22   -1    0    0    0    0 -0.00000000000E+00 -0.00000000000E+00 -0.37956648594E+03  0.37956648594E+03  0.00000000000E+00 0.  1.
         24    2    1    2    0    0 -0.73844105490E+01 -0.31892624277E+01 -0.34274390495E+03  0.35199840086E+03  0.79779627173E+02 0.  0.
         25    2    1    2    0    0  0.40592311722E+02 -0.42622365977E+02  0.15871541348E+03  0.21048220305E+03  0.12509106072E+03 0.  0.
        -24    2    1    2    0    0 -0.33207901173E+02  0.45811628405E+02  0.35431945724E+03  0.36694333374E+03  0.76835293983E+02 0.  0.
        -11    1    3    3    0    0 -0.27489232386E+02  0.14805276933E+01 -0.32039928234E+03  0.32157977235E+03  0.00000000000E+00 0.  1.
         12    1    3    3    0    0  0.20104821837E+02 -0.46697901211E+01 -0.22344622614E+02  0.30418628513E+02  0.00000000000E+00 0. -1.
         13    1    5    5    0    0 -0.31623553451E+02  0.54377894741E+02  0.35246791179E+03  0.35803719557E+03  0.00000000000E+00 0. -1.
        -14    1    5    5    0    0 -0.15843477222E+01 -0.85662663363E+01  0.18515454534E+01  0.89061381763E+01  0.00000000000E+00 0.  1.
          5    1    4    4  501    0  0.71069499132E+02 -0.66480973619E+02  0.96664742194E+02  0.13723023845E+03  0.41800000000E+01 0.  1.
         -5    1    4    4    0  501 -0.30477187410E+02  0.23858607642E+02  0.62050671288E+02  0.73251964604E+02  0.41800000000E+01 0.  1.
</event>
<event>
11    1  0.8453735E-009  0.1508796E+03  0.7561462E-02  0.1095983E+00
         22   -1    0    0    0    0  0.00000000000E+00  0.00000000000E+00  0.40916354564E+03  0.40916354564E+03  0.00000000000E+00 0. -1.
         22   -1    0    0    0    0 -0.00000000000E+00 -0.00000000000E+00 -0.26105614555E+03  0.26105614555E+03  0.00000000000E+00 0. -1.
        -24    2    1    2    0    0  0.84566382165E+02  0.15847233470E+02 -0.16069247749E+03  0.19900343270E+03  0.79860416373E+02 0.  0.
         25    2    1    2    0    0 -0.58614394298E+02 -0.78279040892E+02  0.15164473140E+02  0.15950221577E+03  0.12509092744E+03 0.  0.
         24    2    1    2    0    0 -0.25951987867E+02  0.62431807423E+02  0.29363540444E+03  0.31171404272E+03  0.79828926064E+02 0.  0.
        -11    1    5    5    0    0 -0.36464134250E+02  0.15305842275E+02  0.22089465772E+03  0.22440666591E+03  0.00000000000E+00 0.  1.
         12    1    5    5    0    0  0.10512146383E+02  0.47125965147E+02  0.72740746715E+02  0.87307376809E+02  0.00000000000E+00 0. -1.
         11    1    3    3    0    0  0.91739957362E+02  0.23063286400E+02 -0.10072874880E+03  0.13818254518E+03  0.00000000000E+00 0. -1.
        -12    1    3    3    0    0 -0.71735751972E+01 -0.72160529303E+01 -0.59963728683E+02  0.60820887519E+02  0.00000000000E+00 0.  1.
          5    1    4    4  501    0 -0.30459720183E+02  0.32101580862E+02  0.89480320513E+01  0.45341434969E+02  0.41800000000E+01 0.  1.
         -5    1    4    4    0  501 -0.28154674115E+02 -0.11038062175E+03  0.62164410886E+01  0.11416078080E+03  0.41800000000E+01 0.  1.
</event>
<event>
11    1  0.8453735E-009  0.2719152E+03  0.7561462E-02  0.1012832E+00
         22   -1    0    0    0    0  0.00000000000E+00  0.00000000000E+00  0.91084558157E+03  0.91084558157E+03  0.00000000000E+00 0. -1.
         22   -1    0    0    0    0 -0.00000000000E+00 -0.00000000000E+00 -0.26519859935E+03  0.26519859935E+03  0.00000000000E+00 0.  1.
         24    2    1    2    0    0 -0.46206271194E+01  0.16637318975E+02 -0.15224483994E+03  0.17254649186E+03  0.79345132087E+02 0.  0.
         25    2    1    2    0    0 -0.13512635867E+03  0.18498783571E+03  0.13931274749E+03  0.29586392259E+03  0.12509111442E+03 0.  0.
        -24    2    1    2    0    0  0.13974698579E+03 -0.20162515468E+03  0.65857907467E+03  0.70763376648E+03  0.82687525205E+02 0.  0.
        -11    1    3    3    0    0  0.16781262016E+02 -0.10585022864E+02 -0.12973930569E+03  0.13124763200E+03  0.00000000000E+00 0.  1.
         12    1    3    3    0    0 -0.21401889136E+02  0.27222341838E+02 -0.22505534249E+02  0.41298859858E+02  0.00000000000E+00 0. -1.
         13    1    5    5    0    0  0.93893268321E+02 -0.15270480553E+03  0.56323319667E+03  0.59107219297E+03  0.00000000000E+00 0. -1.
        -14    1    5    5    0    0  0.45853717468E+02 -0.48920349158E+02  0.95345878001E+02  0.11656157351E+03  0.00000000000E+00 0.  1.
          5    1    4    4  501    0 -0.12935624432E+03  0.12618434985E+03  0.15095105514E+03  0.23549781643E+03  0.41800000000E+01 0.  1.
         -5    1    4    4    0  501 -0.57701143492E+01  0.58803485854E+02 -0.11638307650E+02  0.60366106162E+02  0.41800000000E+01 0.  1.
</event>
<event>
11    1  0.8453735E-009  0.1495093E+03  0.7561462E-02  0.1097381E+00
         22   -1    0    0    0    0  0.00000000000E+00  0.00000000000E+00  0.46749757916E+03  0.46749757916E+03  0.00000000000E+00 0. -1.
         22   -1    0    0    0    0 -0.00000000000E+00 -0.00000000000E+00 -0.22408396784E+03  0.22408396784E+03  0.00000000000E+00 0. -1.
        -24    2    1    2    0    0  0.43249393323E+01 -0.28264790959E+02 -0.43007217966E+02  0.95058413576E+02  0.79805248487E+02 0.  0.
         25    2    1    2    0    0  0.71253686085E+02  0.58815199567E+02 -0.10563318093E+03  0.18799716326E+03  0.12509296143E+03 0.  0.
         24    2    1    2    0    0 -0.75578625417E+02 -0.30550408608E+02  0.39205401022E+03  0.40852597016E+03  0.80880561828E+02 0.  0.
        -11    1    5    5    0    0 -0.42061595498E+01 -0.40237241540E+02  0.10369583145E+03  0.11130836826E+03  0.00000000000E+00 0.  1.
         12    1    5    5    0    0 -0.71372465867E+02  0.96868329324E+01  0.28835817877E+03  0.29721760190E+03  0.00000000000E+00 0. -1.
         13    1    3    3    0    0  0.29435846584E+02 -0.44067583552E+02 -0.37402080772E+02  0.64863985618E+02  0.00000000000E+00 0. -1.
        -14    1    3    3    0    0 -0.25110907251E+02  0.15802792593E+02 -0.56051371945E+01  0.30194427957E+02  0.00000000000E+00 0.  1.
          5    1    4    4  501    0  0.46830883400E+02  0.97862701877E+02 -0.65744325298E+02  0.12692528813E+03  0.41800000000E+01 0.  1.
         -5    1    4    4    0  501  0.24422802685E+02 -0.39047502310E+02 -0.39888855632E+02  0.61071875125E+02  0.41800000000E+01 0.  1.
</event>
<event>
11    1  0.8453735E-009  0.1527964E+03  0.7561462E-02  0.1094055E+00
         22   -1    0    0    0    0  0.00000000000E+00  0.00000000000E+00  0.20915962712E+04  0.20915962712E+04  0.00000000000E+00 0.  1.
         22   -1    0    0    0    0 -0.00000000000E+00 -0.00000000000E+00 -0.70561489296E+02  0.70561489296E+02  0.00000000000E+00 0.  1.
        -24    2    1    2    0    0  0.57389379653E+02 -0.62019306101E+02  0.40310837412E+01  0.11398438409E+03  0.76395385686E+02 0.  0.
         25    2    1    2    0    0 -0.89447438259E+02  0.74849892251E+02  0.49544579213E+03  0.52413456535E+03  0.12508860490E+03 0.  0.
         24    2    1    2    0    0  0.32058058606E+02 -0.12830586150E+02  0.15215579061E+04  0.15240388111E+04  0.79771505734E+02 0.  0.
        -11    1    5    5    0    0 -0.62147927972E+01  0.15668801308E+02  0.10369985297E+04  0.10371355194E+04  0.00000000000E+00 0.  1.
         12    1    5    5    0    0  0.38272851403E+02 -0.28499387459E+02  0.48455937634E+03  0.48690329167E+03  0.00000000000E+00 0. -1.
         11    1    3    3    0    0 -0.15687588850E+00  0.90733122517E+01 -0.17774171757E+02  0.19956722850E+02  0.00000000000E+00 0. -1.
        -12    1    3    3    0    0  0.57546255542E+02 -0.71092618352E+02  0.21805255498E+02  0.94027661241E+02  0.00000000000E+00 0.  1.
          5    1    4    4  501    0 -0.48463864066E+02 -0.30836198218E+02  0.16811911863E+03  0.17771079790E+03  0.41800000000E+01 0. -1.
         -5    1    4    4    0  501 -0.40983574193E+02  0.10568609047E+03  0.32732667350E+03  0.34642376745E+03  0.41800000000E+01 0. -1.
</event>
<event>
11    1  0.8453735E-009  0.1572517E+03  0.7561462E-02  0.1089691E+00
         22   -1    0    0    0    0  0.00000000000E+00  0.00000000000E+00  0.23107250859E+03  0.23107250859E+03  0.00000000000E+00 0. -1.
         22   -1    0    0    0    0 -0.00000000000E+00 -0.00000000000E+00 -0.13676080172E+04  0.13676080172E+04  0.00000000000E+00 0. -1.
        -24    2    1    2    0    0  0.59884149367E+02 -0.70564241060E+02 -0.11641248575E+04  0.11709107209E+04  0.85321796677E+02 0.  0.
         25    2    1    2    0    0 -0.11641841098E+03  0.74684316437E+02 -0.14142449532E+03  0.23404633851E+03  0.12508320094E+03 0.  0.
         24    2    1    2    0    0  0.56534261617E+02 -0.41200753773E+01  0.16901384425E+03  0.19372346635E+03  0.75828781531E+02 0.  0.
        -13    1    5    5    0    0 -0.13206652814E+02  0.32801874118E+01  0.76128416702E+02  0.77335057624E+02  0.00000000000E+00 0.  1.
         14    1    5    5    0    0  0.69740914431E+02 -0.74002627891E+01  0.92885427550E+02  0.11638840873E+03  0.00000000000E+00 0. -1.
         13    1    3    3    0    0  0.23683162209E+02 -0.66388988874E+02 -0.41838469387E+03  0.42428073498E+03  0.00000000000E+00 0. -1.
        -14    1    3    3    0    0  0.36200987158E+02 -0.41752521859E+01 -0.74574016365E+03  0.74662998593E+03  0.00000000000E+00 0.  1.
          5    1    4    4  501    0  0.80381660558E+01 -0.24097124609E+02 -0.32017216853E+02  0.41083550272E+02  0.41800000000E+01 0.  1.
         -5    1    4    4    0  501 -0.12445657704E+03  0.98781441047E+02 -0.10940727846E+03  0.19296278824E+03  0.41800000000E+01 0.  1.
</event>
<event>
11    1  0.8453735E-009  0.2595414E+03  0.7561462E-02  0.1018936E+00
         22   -1    0    0    0    0  0.00000000000E+00  0.00000000000E+00  0.13697201275E+03  0.13697201275E+03  0.00000000000E+00 0.  1.
         22   -1    0    0    0    0 -0.00000000000E+00 -0.00000000000E+00 -0.26732228533E+04  0.26732228533E+04  0.00000000000E+00 0. -1.
         24    2    1    2    0    0 -0.32507021904E+02 -0.71126623971E+02 -0.19498745252E+04  0.19531396327E+04  0.81412884789E+02 0.  0.
         25    2    1    2    0    0  0.25345439074E+03  0.66875172053E+02 -0.54645822227E+03  0.61885020016E+03  0.12509022640E+03 0.  0.
        -24    2    1    2    0    0 -0.22094736883E+03  0.42514519173E+01 -0.39918093129E+02  0.23820503319E+03  0.79450418766E+02 0.  0.
        -11    1    3    3    0    0  0.16240441190E+02 -0.30366593573E+02 -0.28812086685E+03  0.29017152832E+03  0.00000000000E+00 0.  1.
         12    1    3    3    0    0 -0.48747463094E+02 -0.40760030397E+02 -0.16617536584E+04  0.16629681044E+04  0.00000000000E+00 0. -1.
         13    1    5    5    0    0 -0.15068746139E+03 -0.16396313667E+02 -0.58794517798E+02  0.16258027385E+03  0.00000000000E+00 0. -1.
        -14    1    5    5    0    0 -0.70259907444E+02  0.20647765584E+02  0.18876424669E+02  0.75624759345E+02  0.00000000000E+00 0.  1.
          5    1    4    4  501    0  0.24513509431E+03  0.91357761178E+02 -0.46847050738E+03  0.53658134861E+03  0.41800000000E+01 0. -1.
         -5    1    4    4    0  501  0.83192964304E+01 -0.24482589125E+02 -0.77987714883E+02  0.82268851554E+02  0.41800000000E+01 0. -1.
</event>
<event>
11    1  0.8453735E-009  0.1464546E+03  0.7561462E-02  0.1100558E+00
         22   -1    0    0    0    0  0.00000000000E+00  0.00000000000E+00  0.75573526534E+02  0.75573526534E+02  0.00000000000E+00 0.  1.
         22   -1    0    0    0    0 -0.00000000000E+00 -0.00000000000E+00 -0.10863847120E+04  0.10863847120E+04  0.00000000000E+00 0.  1.
        -24    2    1    2    0    0  0.12349902629E+01 -0.25667750298E+02 -0.65453301519E+03  0.65931442584E+03  0.74977900366E+02 0.  0.
         25    2    1    2    0    0 -0.74604518595E+02  0.42463588378E+02 -0.36190638124E+03  0.39241829174E+03  0.12508755486E+03 0.  0.
         24    2    1    2    0    0  0.73369528332E+02 -0.16795838080E+02  0.56282109573E+01  0.11022552095E+03  0.80329327438E+02 0.  0.
        -11    1    5    5    0    0  0.74494484243E+02 -0.33552603228E+02  0.24176239294E+02  0.85203849164E+02  0.00000000000E+00 0.  1.
         12    1    5    5    0    0 -0.11249559107E+01  0.16756765148E+02 -0.18548028336E+02  0.25021671791E+02  0.00000000000E+00 0. -1.
         13    1    3    3    0    0 -0.35141532779E+02 -0.12577645679E+02 -0.22821466159E+03  0.23124674324E+03  0.00000000000E+00 0. -1.
        -14    1    3    3    0    0  0.36376523042E+02 -0.13090104619E+02 -0.42631835360E+03  0.42806768260E+03  0.00000000000E+00 0.  1.
          5    1    4    4  501    0 -0.67929953428E+02 -0.19156363185E+02 -0.28456986424E+03  0.29322163095E+03  0.41800000000E+01 0. -1.
         -5    1    4    4    0  501 -0.66745651672E+01  0.61619951562E+02 -0.77336516994E+02  0.99196660788E+02  0.41800000000E+01 0. -1.
</event>
<event>
11    1  0.8453735E-009  0.2914618E+03  0.7561462E-02  0.1003871E+00
         22   -1    0    0    0    0  0.00000000000E+00  0.00000000000E+00  0.80555552425E+03  0.80555552425E+03  0.00000000000E+00 0.  1.
         22   -1    0    0    0    0 -0.00000000000E+00 -0.00000000000E+00 -0.47915759149E+03  0.47915759149E+03  0.00000000000E+00 0. -1.
         24    2    1    2    0    0 -0.21323059734E+03 -0.12658511016E+03 -0.28351373657E+03  0.38506384737E+03  0.80019060049E+02 0.  0.
         25    2    1    2    0    0  0.30527786710E+03  0.13740045697E+03  0.94535384445E+02  0.36966889722E+03  0.12507874696E+03 0.  0.
        -24    2    1    2    0    0 -0.92047269763E+02 -0.10815346813E+02  0.51537628489E+03  0.52998037114E+03  0.81711732162E+02 0.  0.
        -11    1    3    3    0    0 -0.54002978547E+02 -0.11234252046E+02 -0.25758576613E+02  0.60877207394E+02  0.00000000000E+00 0.  1.
         12    1    3    3    0    0 -0.15922761879E+03 -0.11535085811E+03 -0.25775515996E+03  0.32418663998E+03  0.00000000000E+00 0. -1.
         13    1    5    5    0    0 -0.94663788018E+02 -0.20599804752E+01  0.30395311422E+03  0.31835981519E+03  0.00000000000E+00 0. -1.
        -14    1    5    5    0    0  0.26165182552E+01 -0.87553663377E+01  0.21142317067E+03  0.21162055595E+03  0.00000000000E+00 0.  1.
          5    1    4    4  501    0  0.68455941769E+02 -0.11936953594E+01 -0.21257926066E+02  0.71812343596E+02  0.41800000000E+01 0.  1.
         -5    1    4    4    0  501  0.23682192533E+03  0.13859415233E+03  0.11579331051E+03  0.29785655363E+03  0.41800000000E+01 0.  1.
</event>
<event>
11    1  0.8453735E-009  0.1435032E+03  0.7561462E-02  0.1103708E+00
         22   -1    0    0    0    0  0.00000000000E+00  0.00000000000E+00  0.13737376098E+04  0.13737376098E+04  0.00000000000E+00 0.  1.
         22   -1    0    0    0    0 -0.00000000000E+00 -0.00000000000E+00 -0.35287379429E+03  0.35287379429E+03  0.00000000000E+00 0. -1.
        -24    2    1    2    0    0 -0.54814339263E+02 -0.44687754072E+02 -0.32558074971E+03  0.34186033167E+03  0.76577115638E+02 0.  0.
         25    2    1    2    0    0  0.50647271615E+02  0.28082860135E+02  0.25324233435E+03  0.28832866852E+03  0.12509175843E+03 0.  0.
         24    2    1    2    0    0  0.41670676482E+01  0.16604893937E+02  0.10932022308E+04  0.10964224039E+04  0.82206345458E+02 0.  0.
        -11    1    5    5    0    0  0.95175242770E+01  0.22106353754E+02  0.10847076578E+04  0.10849746435E+04  0.00000000000E+00 0.  1.
         12    1    5    5    0    0 -0.53504566288E+01 -0.55014598169E+01  0.84945730261E+01  0.11447760355E+02  0.00000000000E+00 0. -1.
         11    1    3    3    0    0  0.66281442401E+01 -0.41988180155E+02 -0.12206783867E+03  0.12925748260E+03  0.00000000000E+00 0. -1.
        -12    1    3    3    0    0 -0.61442483503E+02 -0.26995739173E+01 -0.20351291103E+03  0.21260284908E+03  0.00000000000E+00 0.  1.
          5    1    4    4  501    0  0.78981496699E+02 -0.19170608770E+02  0.13170382098E+03  0.15481911356E+03  0.41800000000E+01 0.  1.
         -5    1    4    4    0  501 -0.28334225085E+02  0.47253468905E+02  0.12153851337E+03  0.13350955496E+03  0.41800000000E+01 0.  1.
</event>
<event>
11    1  0.8453735E-009  0.1584013E+03  0.7561462E-02  0.1088591E+00
         22   -1    0    0    0    0  0.00000000000E+00  0.00000000000E+00  0.13989876861E+04  0.13989876861E+04  0.00000000000E+00 0. -1.
         22   -1    0    0    0    0 -0.00000000000E+00 -0.00000000000E+00 -0.18434971880E+03  0.18434971880E+03  0.00000000000E+00 0.  1.
         24    2    1    2    0    0 -0.40133569192E+02  0.24931886176E+01 -0.14442705476E+03  0.16969671285E+03  0.79503967448E+02 0.  0.
         25    2    1    2    0    0  0.67215200687E+02  0.89464114894E+02  0.27353763844E+03  0.32092358809E+03  0.12508956267E+03 0.  0.
        -24    2    1    2    0    0 -0.27081631495E+02 -0.91957303512E+02  0.10855273836E+04  0.10927171040E+04  0.80445063792E+02 0.  0.
        -11    1    3    3    0    0 -0.14128036685E+01  0.35963761406E+02 -0.77434772437E+02  0.85390468619E+02  0.00000000000E+00 0.  1.
         12    1    3    3    0    0 -0.38720765523E+02 -0.33470572788E+02 -0.66992282324E+02  0.84306244232E+02  0.00000000000E+00 0. -1.
         13    1    5    5    0    0 -0.35085665942E+02 -0.96224908437E+02  0.10687342372E+04  0.10736308056E+04  0.00000000000E+00 0. -1.
        -14    1    5    5    0    0  0.80040344471E+01  0.42676049256E+01  0.16793146466E+02  0.19086298422E+02  0.00000000000E+00 0.  1.
          5    1    4    4  501    0 -0.30860157719E+02  0.43891255120E+02  0.13349531528E+03  0.14393492700E+03  0.41800000000E+01 0. -1.
         -5    1    4    4    0  501  0.98075358406E+02  0.45572859774E+02  0.14004232317E+03  0.17698866108E+03  0.41800000000E+01 0. -1.
</event>
<event>
11    1  0.8453735E-009  0.1364634E+03  0.7561462E-02  0.1111573E+00
         22   -1    0    0    0    0  0.00000000000E+00  0.00000000000E+00  0.21574696938E+04  0.21574696938E+04  0.00000000000E+00 0.  1.
         22   -1    0    0    0    0 -0.00000000000E+00 -0.00000000000E+00 -0.75546545076E+02  0.75546545076E+02  0.00000000000E+00 0. -1.
         24    2    1    2    0    0 -0.41667034627E+02  0.40405671597E+02 -0.19600586591E+02  0.10130842724E+03  0.80687386639E+02 0.  0.
         25    2    1    2    0    0 -0.11266070099E+02 -0.47318093316E+02  0.31382732894E+03  0.34131975584E+03  0.12508260091E+03 0.  0.
        -24    2    1    2    0    0  0.52933104725E+02  0.69124217184E+01  0.17876964064E+04  0.17903880558E+04  0.82348368639E+02 0.  0.
        -11    1    3    3    0    0 -0.24725213578E+02 -0.18252364297E+02 -0.25546652802E+02  0.39963939474E+02  0.00000000000E+00 0.  1.
         12    1    3    3    0    0 -0.16941821049E+02  0.58658035894E+02  0.59460662114E+01  0.61344487762E+02  0.00000000000E+00 0. -1.
         11    1    5    5    0    0  0.48830955012E+02 -0.17462451253E+02  0.54873157301E+03  0.55117668546E+03  0.00000000000E+00 0. -1.
        -12    1    5    5    0    0  0.41021497129E+01  0.24374872971E+02  0.12389648334E+04  0.12392113704E+04  0.00000000000E+00 0.  1.
          5    1    4    4  501    0 -0.45096186841E+02 -0.67735351993E+02  0.13138163160E+03  0.15459737869E+03  0.41800000000E+01 0. -1.
         -5    1    4    4    0  501  0.33830116742E+02  0.20417258677E+02  0.18244569734E+03  0.18672237715E+03  0.41800000000E+01 0. -1.
</event>
<event>
11    1  0.8453735E-009  0.1568576E+03  0.7561462E-02  0.1090071E+00
         22   -1    0    0    0    0  0.00000000000E+00  0.00000000000E+00  0.12859124340E+04  0.12859124340E+04  0.00000000000E+00 0. -1.
         22   -1    0    0    0    0 -0.00000000000E+00 -0.00000000000E+00 -0.95960798766E+02  0.95960798766E+02  0.00000000000E+00 0.  1.
        -24    2    1    2    0    0  0.22555109761E+01 -0.94259778799E+02 -0.21063671004E+02  0.12494832611E+03  0.79236435641E+02 0.  0.
         25    2    1    2    0    0  0.19301979895E+02  0.96799521606E+02  0.27992437913E+03  0.32209986233E+03  0.12509176421E+03 0.  0.
         24    2    1    2    0    0 -0.21557490872E+02 -0.25397428071E+01  0.93109092714E+03  0.93482504435E+03  0.80600082127E+02 0.  0.
        -11    1    5    5    0    0  0.56384087871E+01 -0.23944040407E+02  0.98847950712E+02  0.10186278066E+03  0.00000000000E+00 0.  1.
         12    1    5    5    0    0 -0.27195899659E+02  0.21404297600E+02  0.83224297643E+03  0.83296226369E+03  0.00000000000E+00 0. -1.
         13    1    3    3    0    0 -0.10401608802E+02  0.31124687599E+01  0.16554730552E+02  0.19797475372E+02  0.00000000000E+00 0. -1.
        -14    1    3    3    0    0  0.12657119778E+02 -0.97372247559E+02 -0.37618401556E+02  0.10515085074E+03  0.00000000000E+00 0.  1.
          5    1    4    4  501    0  0.44816659193E+02  0.32699254318E+02  0.30855446369E+02  0.63618434001E+02  0.41800000000E+01 0.  1.
         -5    1    4    4    0  501 -0.25514679297E+02  0.64100267288E+02  0.24906893276E+03  0.25848142833E+03  0.41800000000E+01 0.  1.
</event>
<event>
11    1  0.8453735E-009  0.2885567E+03  0.7561462E-02  0.1005154E+00
         22   -1    0    0    0    0  0.00000000000E+00  0.00000000000E+00  0.13832789821E+03  0.13832789821E+03  0.00000000000E+00 0.  1.
         22   -1    0    0    0    0 -0.00000000000E+00 -0.00000000000E+00 -0.20134750006E+04  0.20134750006E+04  0.00000000000E+00 0.  1.
        -24    2    1    2    0    0 -0.27204188189E+02  0.40358863019E+01 -0.33084254484E+03  0.34166748950E+03  0.80768358145E+02 0.  0.
         25    2    1    2    0    0  0.44936852189E+02 -0.26290194165E+03 -0.15075221081E+04  0.15360367862E+04  0.12509736407E+03 0.  0.
         24    2    1    2    0    0 -0.17732664001E+02  0.25886605535E+03 -0.36782449410E+02  0.27409862308E+03  0.80318270670E+02 0.  0.
        -11    1    5    5    0    0  0.10911737778E+02  0.16680068243E+03 -0.55002081351E+02  0.17597375553E+03  0.00000000000E+00 0.  1.
         12    1    5    5    0    0 -0.28644401779E+02  0.92065372919E+02  0.18219631942E+02  0.98124867552E+02  0.00000000000E+00 0. -1.
         11    1    3    3    0    0 -0.25502803053E+02 -0.11820385670E+02 -0.32792016343E+02  0.43190633438E+02  0.00000000000E+00 0. -1.
        -12    1    3    3    0    0 -0.17013851357E+01  0.15856271972E+02 -0.29805052849E+03  0.29847685607E+03  0.00000000000E+00 0.  1.
          5    1    4    4  501    0  0.17495876623E+02 -0.18971880980E+03 -0.13063101641E+04  0.13201375117E+04  0.41800000000E+01 0.  1.
         -5    1    4    4    0  501  0.27440975566E+02 -0.73183131848E+02 -0.20121194398E+03  0.21589927450E+03  0.41800000000E+01 0.  1.
</event>
<event>
11    1  0.8453735E-009  0.1910728E+03  0.7561462E-02  0.1061022E+00
         22   -1    0    0    0    0  0.00000000000E+00  0.00000000000E+00  0.31627041951E+03  0.31627041951E+03  0.00000000000E+00 0. -1.
         22   -1    0    0    0    0 -0.00000000000E+00 -0.00000000000E+00 -0.16465342241E+04  0.16465342241E+04  0.00000000000E+00 0.  1.
        -24    2    1    2    0    0  0.14057196587E+03  0.34958726487E+02 -0.14673328056E+04  0.14764092723E+04  0.75737617001E+02 0.  0.
         25    2    1    2    0    0 -0.15299771083E+03  0.47856152630E+02 -0.97737840319E+02  0.22560772738E+03  0.12509056863E+03 0.  0.
         24    2    1    2    0    0  0.12425744962E+02 -0.82814879117E+02  0.23480684140E+03  0.26078764391E+03  0.76571790570E+02 0.  0.
        -13    1    5    5    0    0 -0.28348279990E+02 -0.21160087911E+02  0.46014663505E+02  0.58040706028E+02  0.00000000000E+00 0.  1.
         14    1    5    5    0    0  0.40774024951E+02 -0.61654791206E+02  0.18879217789E+03  0.20274693789E+03  0.00000000000E+00 0. -1.
         13    1    3    3    0    0  0.82837281537E+02  0.11541058877E+02 -0.48951804289E+03  0.49661164462E+03  0.00000000000E+00 0. -1.
        -14    1    3    3    0    0  0.57734684330E+02  0.23417667610E+02 -0.97781476274E+03  0.97979762766E+03  0.00000000000E+00 0.  1.
          5    1    4    4  501    0 -0.52996390654E+02  0.80857341816E+02 -0.34680199533E+02  0.10279453190E+03  0.41800000000E+01 0.  1.
         -5    1    4    4    0  501 -0.10000132017E+03 -0.33001189187E+02 -0.63057640786E+02  0.12281319549E+03  0.41800000000E+01 0.  1.
</event>
<event>
11    1  0.8453735E-009  0.2611048E+03  0.7561462E-02  0.1018144E+00
         22   -1    0    0    0    0  0.00000000000E+00  0.00000000000E+00  0.40959429530E+03  0.40959429530E+03  0.00000000000E+00 0. -1.
         22   -1    0    0    0    0 -0.00000000000E+00 -0.00000000000E+00 -0.16636329728E+04  0.16636329728E+04  0.00000000000E+00 0. -1.
        -24    2    1    2    0    0 -0.61778227250E+02 -0.40322365475E+02 -0.95457350711E+03  0.96088557385E+03  0.81535654997E+02 0.  0.
         25    2    1    2    0    0  0.26322585442E+03 -0.64686169443E+02 -0.63362433626E+03  0.70042759690E+03  0.12508744158E+03 0.  0.
         24    2    1    2    0    0 -0.20144762717E+03  0.10500853492E+03  0.33415916587E+03  0.41191409736E+03  0.80018351479E+02 0.  0.
        -11    1    5    5    0    0 -0.65614160913E+02  0.59806268093E+02  0.18484288760E+03  0.20505828662E+03  0.00000000000E+00 0.  1.
         12    1    5    5    0    0 -0.13583346626E+03  0.45202266824E+02  0.14931627827E+03  0.20685581074E+03  0.00000000000E+00 0. -1.
         13    1    3    3    0    0 -0.23330720705E+02 -0.51885328034E+01 -0.72843166908E+03  0.72882366861E+03  0.00000000000E+00 0. -1.
        -14    1    3    3    0    0 -0.38447506545E+02 -0.35133832672E+02 -0.22614183803E+03  0.23206190525E+03  0.00000000000E+00 0.  1.
          5    1    4    4  501    0  0.19552613187E+03 -0.10257089016E+03 -0.46898714578E+03  0.51837985210E+03  0.41800000000E+01 0. -1.
         -5    1    4    4    0  501  0.67699722556E+02  0.37884720720E+02 -0.16463719048E+03  0.18204774480E+03  0.41800000000E+01 0. -1.
</event>
<event>
11    1  0.8453735E-009  0.1985072E+03  0.7561462E-02  0.1055584E+00
         22   -1    0    0    0    0  0.00000000000E+00  0.00000000000E+00  0.61116132995E+03  0.61116132995E+03  0.00000000000E+00 0.  1.
         22   -1    0    0    0    0 -0.00000000000E+00 -0.00000000000E+00 -0.44712624730E+03  0.44712624730E+03  0.00000000000E+00 0. -1.
        -24    2    1    2    0    0 -0.83396284329E+02 -0.16012671439E+03 -0.26198804780E+03  0.33216027072E+03  0.95379260574E+02 0.  0.
         25    2    1    2    0    0  0.80992049577E+02  0.86586151168E+02 -0.93531099644E+02  0.19609119146E+03  0.12508722996E+03 0.  0.
         24    2    1    2    0    0  0.24042347529E+01  0.73540563227E+02  0.51955423010E+03  0.53003611507E+03  0.74750856031E+02 0.  0.
        -11    1    5    5    0    0  0.19952042638E+02  0.16583951056E+01  0.24072473385E+03  0.24155585642E+03  0.00000000000E+00 0.  1.
         12    1    5    5    0    0 -0.17547807885E+02  0.71882168121E+02  0.27882949625E+03  0.28848025866E+03  0.00000000000E+00 0. -1.
         11    1    3    3    0    0  0.15855583538E+02 -0.50203227608E+02 -0.97618735588E+02  0.11091068988E+03  0.00000000000E+00 0. -1.
        -12    1    3    3    0    0 -0.99251867868E+02 -0.10992348679E+03 -0.16436931222E+03  0.22124958084E+03  0.00000000000E+00 0.  1.
          5    1    4    4  501    0  0.74891657457E+02 -0.21328622731E+01 -0.73081957775E+02  0.10474614270E+03  0.41800000000E+01 0.  1.
         -5    1    4    4    0  501  0.61003921193E+01  0.88719013441E+02 -0.20449141869E+02  0.91345048761E+02  0.41800000000E+01 0.  1.
</event>
<event>
11    1  0.8453735E-009  0.1930505E+03  0.7561462E-02  0.1059550E+00
         22   -1    0    0    0    0  0.00000000000E+00  0.00000000000E+00  0.79362820535E+03  0.79362820535E+03  0.00000000000E+00 0.  1.
         22   -1    0    0    0    0 -0.00000000000E+00 -0.00000000000E+00 -0.26365719931E+03  0.26365719931E+03  0.00000000000E+00 0. -1.
         24    2    1    2    0    0  0.70038138124E+02 -0.53012821379E+02 -0.57677293084E+02  0.13081237765E+03  0.77907047095E+02 0.  0.
         25    2    1    2    0    0 -0.20763633043E+03  0.88733347138E+02 -0.54632202184E+02  0.26385263210E+03  0.12508829419E+03 0.  0.
        -24    2    1    2    0    0  0.13759819231E+03 -0.35720525759E+02  0.64228050131E+03  0.66262039490E+03  0.79575919052E+02 0.  0.
        -13    1    3    3    0    0  0.26565512886E+02 -0.32475756996E+02  0.14236536054E+02  0.44306661195E+02  0.00000000000E+00 0.  1.
         14    1    3    3    0    0  0.43472625237E+02 -0.20537064383E+02 -0.71913829138E+02  0.86505716457E+02  0.00000000000E+00 0. -1.
         11    1    5    5    0    0  0.14311556572E+00 -0.77199518703E+01  0.32551948782E+01  0.83794052677E+01  0.00000000000E+00 0. -1.
        -12    1    5    5    0    0  0.13745507674E+03 -0.28000573888E+02  0.63902530643E+03  0.65424098963E+03  0.00000000000E+00 0.  1.
          5    1    4    4  501    0 -0.43283850870E+02  0.10786628713E+01  0.36187119118E+02  0.56582994352E+02  0.41800000000E+01 0. -1.
         -5    1    4    4    0  501 -0.16435247956E+03  0.87654684267E+02 -0.90819321303E+02  0.20726963775E+03  0.41800000000E+01 0. -1.
</event>
<event>
11    1  0.8453735E-009  0.1299871E+03  0.7561462E-02  0.1119285E+00
         22   -1    0    0    0    0  0.00000000000E+00  0.00000000000E+00  0.14448140783E+04  0.14448140783E+04  0.00000000000E+00 0. -1.
         22   -1    0    0    0    0 -0.00000000000E+00 -0.00000000000E+00 -0.95521407292E+02  0.95521407292E+02  0.00000000000E+00 0. -1.
         24    2    1    2    0    0 -0.86619790653E+01  0.56903017087E+01 -0.57232705156E+02  0.99205161882E+02  0.80365864581E+02 0.  0.
         25    2    1    2    0    0 -0.12456384248E+02 -0.34097389401E+02  0.25600617711E+03  0.28723470288E+03  0.12508724296E+03 0.  0.
        -24    2    1    2    0    0  0.21118363313E+02  0.28407087692E+02  0.11505191991E+04  0.11538956208E+04  0.80794359107E+02 0.  0.
        -13    1    3    3    0    0 -0.40347714770E+02  0.68358077029E+01 -0.96810355391E+01  0.42052215200E+02  0.00000000000E+00 0.  1.
         14    1    3    3    0    0  0.31685735705E+02 -0.11455059941E+01 -0.47551669617E+02  0.57152946682E+02  0.00000000000E+00 0. -1.
         11    1    5    5    0    0  0.34633775053E+02 -0.16393153803E+02  0.37110181994E+03  0.37307478423E+03  0.00000000000E+00 0. -1.
        -12    1    5    5    0    0 -0.13515411740E+02  0.44800241495E+02  0.77941737912E+03  0.78082083659E+03  0.00000000000E+00 0.  1.
          5    1    4    4  501    0  0.22510625956E+02 -0.71251611832E+02  0.18613608886E+03  0.20061813588E+03  0.41800000000E+01 0. -1.
         -5    1    4    4    0  501 -0.34967010204E+02  0.37154222432E+02  0.69870088246E+02  0.86616566999E+02  0.41800000000E+01 0. -1.
</event>
<event>
11    1  0.8453735E-009  0.1306538E+03  0.7561462E-02  0.1118468E+00
         22   -1    0    0    0    0  0.00000000000E+00  0.00000000000E+00  0.29604451627E+03  0.29604451627E+03  0.00000000000E+00 0.  1.
         22   -1    0    0    0    0 -0.00000000000E+00 -0.00000000000E+00 -0.64866111886E+03  0.64866111886E+03  0.00000000000E+00 0.  1.
         24    2    1    2    0    0  0.15963460453E+02  0.38715277247E+02 -0.32200127560E+03  0.33359044891E+03  0.76446460697E+02 0.  0.
         25    2    1    2    0    0  0.56538618637E+01 -0.31527432756E+02 -0.30140119319E+03  0.32789732296E+03  0.12509208599E+03 0.  0.
        -24    2    1    2    0    0 -0.21617322317E+02 -0.71878444906E+01  0.27078586620E+03  0.28321786326E+03  0.79802249341E+02 0.  0.
        -13    1    3    3    0    0  0.20290677654E+02  0.34603438279E+02 -0.32460777947E+03  0.32707693290E+03  0.00000000000E+00 0.  1.
         14    1    3    3    0    0 -0.43272172004E+01  0.41118389681E+01  0.26065038712E+01  0.65135160113E+01  0.00000000000E+00 0. -1.
         11    1    5    5    0    0  0.15245952213E+02 -0.24864643817E+02  0.44083490613E+02  0.52858714661E+02  0.00000000000E+00 0. -1.
        -12    1    5    5    0    0 -0.36863274530E+02  0.17676799326E+02  0.22670237559E+03  0.23035914859E+03  0.00000000000E+00 0.  1.
          5    1    4    4  501    0  0.48868319907E+01 -0.29719248263E+02 -0.31348746354E+03  0.31495869100E+03  0.41800000000E+01 0.  1.
         -5    1    4    4    0  501  0.76702987298E+00 -0.18081844938E+01  0.12086270348E+02  0.12938631956E+02  0.41800000000E+01 0.  1.
</event>
<event>
11    1  0.8453735E-009  0.1677896E+03  0.7561462E-02  0.1079971E+00
         22   -1    0    0    0    0  0.00000000000E+00  0.00000000000E+00  0.17063950919E+04  0.17063950919E+04  0.00000000000E+00 0. -1.
         22   -1    0    0    0    0 -0.00000000000E+00 -0.00000000000E+00 -0.73733251911E+03  0.73733251911E+03  0.00000000000E+00 0.  1.
         24    2    1    2    0    0  0.26593624883E+02 -0.11092022107E+03 -0.62617856394E+03  0.64113226212E+03  0.77074426751E+02 0.  0.
         25    2    1    2    0    0 -0.10472272620E+02  0.93966602399E+02 -0.42657436675E+02  0.16250379344E+03  0.12509370535E+03 0.  0.
        -24    2    1    2    0    0 -0.16121352263E+02  0.16953618668E+02  0.16378985734E+04  0.16400915554E+04  0.81493866579E+02 0.  0.
        -11    1    3    3    0    0  0.25508056562E+01 -0.83367481059E+02 -0.55374734504E+03  0.55999354072E+03  0.00000000000E+00 0.  1.
         12    1    3    3    0    0  0.24042819227E+02 -0.27552740007E+02 -0.72431218902E+02  0.81138721397E+02  0.00000000000E+00 0. -1.
         13    1    5    5    0    0  0.10382354623E+02  0.40361606570E+01  0.14367903669E+04  0.14368335472E+04  0.00000000000E+00 0. -1.
        -14    1    5    5    0    0 -0.26503706887E+02  0.12917458011E+02  0.20110820649E+03  0.20325800825E+03  0.00000000000E+00 0.  1.
          5    1    4    4  501    0 -0.34907691424E+02 -0.13724983190E+02 -0.35420282417E+02  0.51758969181E+02  0.41800000000E+01 0.  1.
         -5    1    4    4    0  501  0.24435418804E+02  0.10769158559E+03 -0.72371542580E+01  0.11074482426E+03  0.41800000000E+01 0.  1.
</event>
<event>
11    1  0.8453735E-009  0.2073511E+03  0.7561462E-02  0.1049444E+00
         22   -1    0    0    0    0  0.00000000000E+00  0.00000000000E+00  0.21884298208E+04  0.21884298208E+04  0.00000000000E+00 0.  1.
         22   -1    0    0    0    0 -0.00000000000E+00 -0.00000000000E+00 -0.81073123235E+02  0.81073123235E+02  0.00000000000E+00 0.  1.
        -24    2    1    2    0    0  0.10883453852E+03 -0.15845823730E+03  0.10763032195E+03  0.23416492101E+03  0.79340747938E+02 0.  0.
         25    2    1    2    0    0  0.17126980389E+02  0.26587775892E+02  0.33950769323E+03  0.36319834074E+03  0.12508923881E+03 0.  0.
         24    2    1    2    0    0 -0.12596151891E+03  0.13187046141E+03  0.16602186824E+04  0.16721396823E+04  0.80429602359E+02 0.  0.
        -13    1    5    5    0    0 -0.49484608050E+02  0.94220517018E+02  0.68691818198E+03  0.69511353101E+03  0.00000000000E+00 0.  1.
         14    1    5    5    0    0 -0.76476910856E+02  0.37649944389E+02  0.97330050042E+03  0.97702615130E+03  0.00000000000E+00 0. -1.
         13    1    3    3    0    0 -0.11132548413E+02 -0.25120354253E+02  0.64195682907E+01  0.28216603074E+02  0.00000000000E+00 0. -1.
        -14    1    3    3    0    0  0.11996708693E+03 -0.13333788305E+03  0.10121075366E+03  0.20594831793E+03  0.00000000000E+00 0.  1.
          5    1    4    4  501    0 -0.63348421573E+01 -0.97537353665E+01 -0.68464420855E+01  0.14128402174E+02  0.41800000000E+01 0.  1.
         -5    1    4    4    0  501  0.23461822546E+02  0.36341511258E+02  0.34635413532E+03  0.34906993857E+03  0.41800000000E+01 0.  1.
</event>
<event>
11    1  0.8453735E-009  0.1600549E+03  0.7561462E-02  0.1087026E+00
         22   -1    0    0    0    0  0.00000000000E+00  0.00000000000E+00  0.69382302516E+03  0.69382302516E+03  0.00000000000E+00 0.  1.
         22   -1    0    0    0    0 -0.00000000000E+00 -0.00000000000E+00 -0.45031861391E+03  0.45031861391E+03  0.00000000000E+00 0. -1.
         24    2    1    2    0    0 -0.28540627905E+02 -0.99101452960E+02 -0.41017175256E+03  0.43060106095E+03  0.80874851903E+02 0.  0.
         25    2    1    2    0    0 -0.23830915662E+02  0.46362873282E+02  0.16789662103E+03  0.21576395891E+03  0.12508949615E+03 0.  0.
        -24    2    1    2    0    0  0.52371543567E+02  0.52738579678E+02  0.48577954278E+03  0.49777661921E+03  0.79219076565E+02 0.  0.
        -11    1    3    3    0    0 -0.34958343098E+02 -0.44131729235E+01 -0.13500828082E+03  0.13953063369E+03  0.00000000000E+00 0.  1.
         12    1    3    3    0    0  0.64177151929E+01 -0.94688280037E+02 -0.27516347174E+03  0.29107042726E+03  0.00000000000E+00 0. -1.
         11    1    5    5    0    0 -0.78856849116E+01  0.47471280124E+02  0.21073416852E+03  0.21615872928E+03  0.00000000000E+00 0. -1.
        -12    1    5    5    0    0  0.60257228479E+02  0.52672995542E+01  0.27504537426E+03  0.28161788994E+03  0.00000000000E+00 0.  1.
          5    1    4    4  501    0 -0.15979845500E+02 -0.37045969324E+01  0.16388244126E+03  0.16475438220E+03  0.41800000000E+01 0. -1.
         -5    1    4    4    0  501 -0.78510701614E+01  0.50067470215E+02  0.40141797739E+01  0.51009576705E+02  0.41800000000E+01 0. -1.
</event>
<event>
11    1  0.8453735E-009  0.2459524E+03  0.7561462E-02  0.1026078E+00
         22   -1    0    0    0    0  0.00000000000E+00  0.00000000000E+00  0.77885505785E+03  0.77885505785E+03  0.00000000000E+00 0. -1.
         22   -1    0    0    0    0 -0.00000000000E+00 -0.00000000000E+00 -0.40542832019E+03  0.40542832019E+03  0.00000000000E+00 0. -1.
        -24    2    1    2    0    0  0.11879065761E+02  0.41669449733E+02 -0.28090530149E+03  0.29548903811E+03  0.80799306899E+02 0.  0.
         25    2    1    2    0    0 -0.75232721179E+02 -0.23551034312E+03  0.10387427731E+03  0.29590955112E+03  0.12509001921E+03 0.  0.
         24    2    1    2    0    0  0.63353655418E+02  0.19384089339E+03  0.55045776184E+03  0.59288478880E+03  0.83190429835E+02 0.  0.
        -11    1    5    5    0    0  0.74491127126E+02  0.12625067842E+03  0.31089545802E+03  0.34372103171E+03  0.00000000000E+00 0.  1.
         12    1    5    5    0    0 -0.11137471708E+02  0.67590214964E+02  0.23956230383E+03  0.24916375709E+03  0.00000000000E+00 0. -1.
         13    1    3    3    0    0 -0.33610870750E+02  0.15609832692E+02 -0.14919151156E+03  0.15372528949E+03  0.00000000000E+00 0. -1.
        -14    1    3    3    0    0  0.45489936511E+02  0.26059617041E+02 -0.13171378993E+03  0.14176374862E+03  0.00000000000E+00 0.  1.
          5    1    4    4  501    0 -0.10465578631E+03 -0.21746538249E+03  0.98632599340E+02  0.26074870708E+03  0.41800000000E+01 0. -1.
         -5    1    4    4    0  501  0.29423065132E+02 -0.18044960630E+02  0.52416779677E+01  0.35160844044E+02  0.41800000000E+01 0. -1.
</event>
<event>
11    1  0.8453735E-009  0.1307301E+03  0.7561462E-02  0.1118375E+00
         22   -1    0    0    0    0  0.00000000000E+00  0.00000000000E+00  0.12537676267E+03  0.12537676267E+03  0.00000000000E+00 0.  1.
         22   -1    0    0    0    0 -0.00000000000E+00 -0.00000000000E+00 -0.11865823338E+04  0.11865823338E+04  0.00000000000E+00 0. -1.
         24    2    1    2    0    0  0.93665351689E+01  0.34004652301E+02 -0.84605855776E+03  0.85070055865E+03  0.81438989265E+02 0.  0.
         25    2    1    2    0    0  0.11003697231E+01 -0.57039982569E+02 -0.30712966814E+03  0.33649773433E+03  0.12508925505E+03 0.  0.
        -24    2    1    2    0    0 -0.10466904892E+02  0.23035330268E+02  0.91982654759E+02  0.12476080350E+03  0.80400664012E+02 0.  0.
        -13    1    3    3    0    0 -0.22351946747E+02 -0.11295805946E+02 -0.12261749343E+03  0.12514892908E+03  0.00000000000E+00 0.  1.
         14    1    3    3    0    0  0.31718481916E+02  0.45300458247E+02 -0.72344106433E+03  0.72555162957E+03  0.00000000000E+00 0. -1.
         13    1    5    5    0    0  0.17032777189E+02 -0.21040130313E+02  0.12525765268E+02  0.29827795391E+02  0.00000000000E+00 0. -1.
        -14    1    5    5    0    0 -0.27499682081E+02  0.44075460581E+02  0.79456889491E+02  0.94933008104E+02  0.00000000000E+00 0.  1.
          5    1    4    4  501    0 -0.26733534718E+02  0.13562336847E+02 -0.21473701089E+03  0.21685957463E+03  0.41800000000E+01 0.  1.
         -5    1    4    4    0  501  0.27833904441E+02 -0.70602319416E+02 -0.92392657250E+02  0.11963815970E+03  0.41800000000E+01 0.  1.
</event>
<event>
11    1  0.8453735E-009  0.1431749E+03  0.7561462E-02  0.1104064E+00
         22   -1    0    0    0    0  0.00000000000E+00  0.00000000000E+00  0.50002127649E+03  0.50002127649E+03  0.00000000000E+00 0. -1.
         22   -1    0    0    0    0 -0.00000000000E+00 -0.00000000000E+00 -0.18088948761E+04  0.18088948761E+04  0.00000000000E+00 0.  1.
        -24    2    1    2    0    0  0.61277325563E+02  0.33309557116E+02 -0.17181194231E+04  0.17213696527E+04  0.79465037083E+02 0.  0.
         25    2    1    2    0    0 -0.37910639258E+02 -0.62963502996E+02 -0.22144945047E+02  0.14679337814E+03  0.12512504943E+03 0.  0.
         24    2    1    2    0    0 -0.23366686305E+02  0.29653945880E+02  0.43139076857E+03  0.44075312169E+03  0.82097262642E+02 0.  0.
        -11    1    5    5    0    0 -0.30617852791E+02  0.25607203523E+02  0.81357076423E+02  0.90620944962E+02  0.00000000000E+00 0.  1.
         12    1    5    5    0    0  0.72511664856E+01  0.40467423569E+01  0.35003369215E+03  0.35013217672E+03  0.00000000000E+00 0. -1.
         11    1    3    3    0    0  0.11957219662E+02  0.13458785043E+02 -0.66473494666E+02  0.68868276369E+02  0.00000000000E+00 0. -1.
        -12    1    3    3    0    0  0.49320105901E+02  0.19850772073E+02 -0.16516459284E+04  0.16525013764E+04  0.00000000000E+00 0.  1.
          5    1    4    4  501    0 -0.19776074332E+02 -0.40413539759E+02  0.50930340307E+02  0.68086116614E+02  0.41800000000E+01 0. -1.
         -5    1    4    4    0  501 -0.18134564927E+02 -0.22549963237E+02 -0.73075285354E+02  0.78707261524E+02  0.41800000000E+01 0. -1.
</event>
<event>
11    1  0.8453735E-009  0.1711960E+03  0.7561462E-02  0.1076996E+00
         22   -1    0    0    0    0  0.00000000000E+00  0.00000000000E+00  0.62625260571E+03  0.62625260571E+03  0.00000000000E+00 0. -1.
         22   -1    0    0    0    0 -0.00000000000E+00 -0.00000000000E+00 -0.69551881627E+03  0.69551881627E+03  0.00000000000E+00 0.  1.
         24    2    1    2    0    0  0.88127812480E+02  0.75560963027E+02 -0.64138345687E+03  0.65695462996E+03  0.82101623654E+02 0.  0.
         25    2    1    2    0    0 -0.11894695056E+03 -0.73719305674E+02  0.16907166566E+03  0.25261732379E+03  0.12508945228E+03 0.  0.
        -24    2    1    2    0    0  0.30819138076E+02 -0.18416573526E+01  0.40304558065E+03  0.41219946823E+03  0.80681166043E+02 0.  0.
        -13    1    3    3    0    0  0.76740786917E+02  0.26091473352E+02 -0.50433361754E+03  0.51080555120E+03  0.00000000000E+00 0.  1.
         14    1    3    3    0    0  0.11387025564E+02  0.49469489675E+02 -0.13704983934E+03  0.14614907876E+03  0.00000000000E+00 0. -1.
         13    1    5    5    0    0  0.49769154083E+02 -0.87828017769E+01  0.14867975679E+03  0.15703431594E+03  0.00000000000E+00 0. -1.
        -14    1    5    5    0    0 -0.18950016007E+02  0.69411444243E+01  0.25436582387E+03  0.25516515229E+03  0.00000000000E+00 0.  1.
          5    1    4    4  501    0 -0.11889547179E+03 -0.47207910147E+02  0.61973210346E+02  0.14220714185E+03  0.41800000000E+01 0.  1.
         -5    1    4    4    0  501 -0.51478761803E-01 -0.26511395527E+02  0.10709845532E+03  0.11041018193E+03  0.41800000000E+01 0.  1.
</event>
<event>
11    1  0.8453735E-009  0.1573303E+03  0.7561462E-02  0.1089615E+00
         22   -1    0    0    0    0  0.00000000000E+00  0.00000000000E+00  0.23375739385E+03  0.23375739385E+03  0.00000000000E+00 0.  1.
         22   -1    0    0    0    0 -0.00000000000E+00 -0.00000000000E+00 -0.22010492454E+03  0.22010492454E+03  0.00000000000E+00 0. -1.
        -24    2    1    2    0    0  0.23376668128E+02 -0.53472400469E+02 -0.46797025673E+02  0.10967384600E+03  0.80203644933E+02 0.  0.
         25    2    1    2    0    0 -0.23509004352E+02  0.13846828974E+03 -0.37285269407E+02  0.19173989319E+03  0.12509138571E+03 0.  0.
         24    2    1    2    0    0  0.13233622346E+00 -0.84995889268E+02  0.97734764388E+02  0.15244857920E+03  0.80400039951E+02 0.  0.
        -11    1    5    5    0    0  0.44088342247E+01 -0.98615392214E+02  0.96620211661E+02  0.13813000652E+03  0.00000000000E+00 0.  1.
         12    1    5    5    0    0 -0.42764980013E+01  0.13619502946E+02  0.11145527269E+01  0.14318572674E+02  0.00000000000E+00 0. -1.
         13    1    3    3    0    0  0.49823250234E+02 -0.51308630376E+02 -0.41260972771E+02  0.82567546221E+02  0.00000000000E+00 0. -1.
        -14    1    3    3    0    0 -0.26446582106E+02 -0.21637700925E+01 -0.55360529026E+01  0.27106299782E+02  0.00000000000E+00 0.  1.
          5    1    4    4  501    0  0.41644800776E+02  0.16903658224E+02 -0.28691322387E+02  0.53485394954E+02  0.41800000000E+01 0.  1.
         -5    1    4    4    0  501 -0.65153805127E+02  0.12156463151E+03 -0.85939470199E+01  0.13825449824E+03  0.41800000000E+01 0.  1.
</event>
<event>
11    1  0.8453735E-009  0.1458885E+03  0.7561462E-02  0.1101155E+00
         22   -1    0    0    0    0  0.00000000000E+00  0.00000000000E+00  0.42117101237E+03  0.42117101237E+03  0.00000000000E+00 0.  1.
         22   -1    0    0    0    0 -0.00000000000E+00 -0.00000000000E+00 -0.57484918505E+03  0.57484918505E+03  0.00000000000E+00 0.  1.
        -24    2    1    2    0    0  0.22091987302E+02 -0.14979186475E+01 -0.50314431251E+03  0.51008117916E+03  0.80859819818E+02 0.  0.
         25    2    1    2    0    0  0.28758525629E+02  0.59146254730E+02  0.25735422510E+02  0.14364884004E+03  0.12508934818E+03 0.  0.
         24    2    1    2    0    0 -0.50850512931E+02 -0.57648336083E+02  0.32373071732E+03  0.34229017823E+03  0.80323617033E+02 0.  0.
        -13    1    5    5    0    0 -0.67156000977E+02 -0.26835615096E+02  0.17160601614E+03  0.18622218847E+03  0.00000000000E+00 0.  1.
         14    1    5    5    0    0  0.16305488046E+02 -0.30812720987E+02  0.15212470119E+03  0.15606798975E+03  0.00000000000E+00 0. -1.
         13    1    3    3    0    0 -0.14761736918E+02  0.27737855422E+02 -0.29597106711E+03  0.29763428913E+03  0.00000000000E+00 0. -1.
        -14    1    3    3    0    0  0.36853724220E+02 -0.29235774069E+02 -0.20717324540E+03  0.21244689003E+03  0.00000000000E+00 0.  1.
          5    1    4    4  501    0 -0.72854069578E+01  0.86367815619E+02 -0.79633622163E+01  0.87139912021E+02  0.41800000000E+01 0.  1.
         -5    1    4    4    0  501  0.36043932587E+02 -0.27221560888E+02  0.33698784726E+02  0.56508928016E+02  0.41800000000E+01 0.  1.
</event>
<event>
11    1  0.8453735E-009  0.1478901E+03  0.7561462E-02  0.1099054E+00
         22   -1    0    0    0    0  0.00000000000E+00  0.00000000000E+00  0.50783993674E+03  0.50783993674E+03  0.00000000000E+00 0. -1.
         22   -1    0    0    0    0 -0.00000000000E+00 -0.00000000000E+00 -0.15010461872E+03  0.15010461872E+03  0.00000000000E+00 0.  1.
         24    2    1    2    0    0 -0.91689219588E+01 -0.23137670521E+02 -0.82410972336E+02  0.11818923563E+03  0.80979664918E+02 0.  0.
         25    2    1    2    0    0 -0.36349551048E+02  0.84485337925E+02  0.10748105847E+03  0.18883636921E+03  0.12509170324E+03 0.  0.
        -24    2    1    2    0    0  0.45518473006E+02 -0.61347667404E+02  0.33266523187E+03  0.35091895062E+03  0.81501446172E+02 0.  0.
        -11    1    3    3    0    0 -0.32336038533E+02 -0.28796715128E+02 -0.83773563953E+02  0.94302068946E+02  0.00000000000E+00 0.  1.
         12    1    3    3    0    0  0.23167116574E+02  0.56590446068E+01  0.13625916170E+01  0.23887166683E+02  0.00000000000E+00 0. -1.
         11    1    5    5    0    0  0.59910635424E+01  0.46495293545E+01  0.17816072623E+03  0.17832205510E+03  0.00000000000E+00 0. -1.
        -12    1    5    5    0    0  0.39527409464E+02 -0.65997196758E+02  0.15450450565E+03  0.17259689552E+03  0.00000000000E+00 0.  1.
          5    1    4    4  501    0 -0.65528073992E+02  0.36618742570E+02  0.93724289364E+01  0.75763946655E+02  0.41800000000E+01 0.  1.
         -5    1    4    4    0  501  0.29178522945E+02  0.47866595354E+02  0.98108629539E+02  0.11307242255E+03  0.41800000000E+01 0.  1.
</event>
<event>
11    1  0.8453735E-009  0.1400653E+03  0.7561462E-02  0.1107486E+00
         22   -1    0    0    0    0  0.00000000000E+00  0.00000000000E+00  0.81732702855E+03  0.81732702855E+03  0.00000000000E+00 0. -1.
         22   -1    0    0    0    0 -0.00000000000E+00 -0.00000000000E+00 -0.19985927449E+03  0.19985927449E+03  0.00000000000E+00 0. -1.
         24    2    1    2    0    0  0.23368145430E+02  0.56154626127E+02 -0.15915237146E+03  0.18930329480E+03  0.82503623100E+02 0.  0.
         25    2    1    2    0    0 -0.42617587331E+02 -0.11028527854E+03  0.35048382779E+03  0.39045991207E+03  0.12506369569E+03 0.  0.
        -24    2    1    2    0    0  0.19249441901E+02  0.54130652409E+02  0.42613629772E+03  0.43742309617E+03  0.80287933588E+02 0.  0.
        -11    1    3    3    0    0 -0.30477089579E+02  0.11648943449E+02 -0.49161640880E+02  0.59003540629E+02  0.00000000000E+00 0.  1.
         12    1    3    3    0    0  0.53845235009E+02  0.44505682678E+02 -0.10999073058E+03  0.13029975417E+03  0.00000000000E+00 0. -1.
         11    1    5    5    0    0 -0.35849930625E+01 -0.31653748934E+01  0.26257880556E+03  0.26262235416E+03  0.00000000000E+00 0. -1.
        -12    1    5    5    0    0  0.22834434964E+02  0.57296027303E+02  0.16355749216E+03  0.17480074201E+03  0.00000000000E+00 0.  1.
          5    1    4    4  501    0 -0.69903896976E+02 -0.10193255690E+03  0.18530975941E+03  0.22278684948E+03  0.41800000000E+01 0. -1.
         -5    1    4    4    0  501  0.27286309645E+02 -0.83527216348E+01  0.16517406838E+03  0.16767306259E+03  0.41800000000E+01 0. -1.
</event>
<event>
11    1  0.8453735E-009  0.2328951E+03  0.7561462E-02  0.1033427E+00
         22   -1    0    0    0    0  0.00000000000E+00  0.00000000000E+00  0.35854597174E+03  0.35854597174E+03  0.00000000000E+00 0. -1.
         22   -1    0    0    0    0 -0.00000000000E+00 -0.00000000000E+00 -0.37020890276E+03  0.37020890276E+03  0.00000000000E+00 0. -1.
        -24    2    1    2    0    0 -0.15657383237E+03  0.12221350187E+03 -0.98511083067E+02  0.23633390895E+03  0.81839953620E+02 0.  0.
         25    2    1    2    0    0  0.15001868045E+02 -0.24855762995E+03  0.51123524714E+02  0.28331455838E+03  0.12509025846E+03 0.  0.
         24    2    1    2    0    0  0.14157196433E+03  0.12634412808E+03  0.35724627337E+02  0.20910640716E+03  0.80273163227E+02 0.  0.
        -13    1    5    5    0    0  0.20762506137E+02  0.32727691114E+02  0.40682787853E+02  0.56189613402E+02  0.00000000000E+00 0.  1.
         14    1    5    5    0    0  0.12080945819E+03  0.93616436964E+02 -0.49581605163E+01  0.15291679376E+03  0.00000000000E+00 0. -1.
         13    1    3    3    0    0 -0.16168056162E+03  0.98797584344E+02 -0.78434225078E+02  0.20506948661E+03  0.00000000000E+00 0. -1.
        -14    1    3    3    0    0  0.51067292426E+01  0.23415917529E+02 -0.20076857989E+02  0.31264422336E+02  0.00000000000E+00 0.  1.
          5    1    4    4  501    0 -0.17714588986E+02 -0.13288180764E+03 -0.31011695516E+02  0.13766110244E+03  0.41800000000E+01 0.  1.
         -5    1    4    4    0  501  0.32716457031E+02 -0.11567582231E+03  0.82135220230E+02  0.14565345595E+03  0.41800000000E+01 0.  1.
</event>
<event>
11    1  0.8453735E-009  0.1327298E+03  0.7561462E-02  0.1115960E+00
         22   -1    0    0    0    0  0.00000000000E+00  0.00000000000E+00  0.12780398516E+04  0.12780398516E+04  0.00000000000E+00 0.  1.
         22   -1    0    0    0    0 -0.00000000000E+00 -0.00000000000E+00 -0.10057423198E+03  0.10057423198E+03  0.00000000000E+00 0. -1.
         24    2    1    2    0    0  0.97113209016E+01 -0.78707579468E+01 -0.28406261474E+02  0.86352104162E+02  0.80582328199E+02 0.  0.
         25    2    1    2    0    0 -0.41106583971E+02  0.38489847131E+02  0.72358526012E+02  0.15509528483E+03  0.12509025346E+03 0.  0.
        -24    2    1    2    0    0  0.31395263070E+02 -0.30619089184E+02  0.11335133551E+04  0.11371666946E+04  0.79827150493E+02 0.  0.
        -11    1    3    3    0    0 -0.12358765481E+02  0.32359652779E+02 -0.55254638521E+01  0.35077299824E+02  0.00000000000E+00 0.  1.
         12    1    3    3    0    0  0.22070086383E+02 -0.40230410726E+02 -0.22880797622E+02  0.51274804338E+02  0.00000000000E+00 0. -1.
         11    1    5    5    0    0  0.20512377650E+02  0.23887975209E+02  0.26249349007E+03  0.26437516019E+03  0.00000000000E+00 0. -1.
        -12    1    5    5    0    0  0.10882885420E+02 -0.54507064393E+02  0.87101986499E+03  0.87279153437E+03  0.00000000000E+00 0.  1.
          5    1    4    4  501    0 -0.42015681543E+01  0.38884399716E+02  0.10087219811E+03  0.10826967473E+03  0.41800000000E+01 0. -1.
         -5    1    4    4    0  501 -0.36905015817E+02 -0.39455258557E+00 -0.28513672094E+02  0.46825610092E+02  0.41800000000E+01 0. -1.
</event>
<event>
11    1  0.8453735E-009  0.1295504E+03  0.7561462E-02  0.1119823E+00
         22   -1    0    0    0    0  0.00000000000E+00  0.00000000000E+00  0.71283540282E+03  0.71283540282E+03  0.00000000000E+00 0.  1.
         22   -1    0    0    0    0 -0.00000000000E+00 -0.00000000000E+00 -0.66001109708E+03  0.66001109708E+03  0.00000000000E+00 0. -1.
         24    2    1    2    0    0  0.56247551218E+00  0.32597223866E+02 -0.58654322794E+03  0.59293351142E+03  0.80463006023E+02 0.  0.
         25    2    1    2    0    0  0.82106166286E+00 -0.57507322615E+02  0.26934612854E+01  0.13770851378E+03  0.12509441929E+03 0.  0.
        -24    2    1    2    0    0 -0.13835371750E+01  0.24910098749E+02  0.63667407240E+03  0.64220447471E+03  0.80313670566E+02 0.  0.
        -11    1    3    3    0    0  0.35567952815E+01 -0.18719264520E+02 -0.43845892003E+02  0.47807153255E+02  0.00000000000E+00 0.  1.
         12    1    3    3    0    0 -0.29943197694E+01  0.51316488385E+02 -0.54269733594E+03  0.54512635816E+03  0.00000000000E+00 0. -1.
         13    1    5    5    0    0 -0.79054988640E+01  0.31376870002E+02  0.93279966418E+02  0.98732755549E+02  0.00000000000E+00 0. -1.
        -14    1    5    5    0    0  0.65219616890E+01 -0.64667712522E+01  0.54339410598E+03  0.54347171916E+03  0.00000000000E+00 0.  1.
          5    1    4    4  501    0 -0.59028791274E+02 -0.16091978779E+02 -0.14036603009E+02  0.62911434607E+02  0.41800000000E+01 0. -1.
         -5    1    4    4    0  501  0.59849852937E+02 -0.41415343836E+02  0.16730064295E+02  0.74797079174E+02  0.41800000000E+01 0. -1.
</event>
<event>
11    1  0.8453735E-009  0.1359522E+03  0.7561462E-02  0.1112164E+00
         22   -1    0    0    0    0  0.00000000000E+00  0.00000000000E+00  0.74720023539E+03  0.74720023539E+03  0.00000000000E+00 0.  1.
         22   -1    0    0    0    0 -0.00000000000E+00 -0.00000000000E+00 -0.19495642685E+04  0.19495642685E+04  0.00000000000E+00 0.  1.
        -24    2    1    2    0    0 -0.26178282070E+02  0.13405157507E+02 -0.19180878377E+04  0.19199559951E+04  0.79404466580E+02 0.  0.
         25    2    1    2    0    0  0.42485565778E+02 -0.61056504425E+02  0.17350699604E+03  0.22646203584E+03  0.12508979164E+03 0.  0.
         24    2    1    2    0    0 -0.16307283708E+02  0.47651346917E+02  0.54221680857E+03  0.55034647292E+03  0.79659239236E+02 0.  0.
        -11    1    5    5    0    0  0.45870619639E+01  0.12707671042E+02  0.44156977902E+03  0.44177640926E+03  0.00000000000E+00 0.  1.
         12    1    5    5    0    0 -0.20894345672E+02  0.34943675875E+02  0.10064702955E+03  0.10857006366E+03  0.00000000000E+00 0. -1.
         11    1    3    3    0    0 -0.35808634429E+02  0.41544302816E+02 -0.12013424204E+04  0.12025937795E+04  0.00000000000E+00 0. -1.
        -12    1    3    3    0    0  0.96303523585E+01 -0.28139145309E+02 -0.71674541726E+03  0.71736221558E+03  0.00000000000E+00 0.  1.
          5    1    4    4  501    0 -0.35820367828E+01  0.35804789512E+02  0.28737542490E+02  0.46239946884E+02  0.41800000000E+01 0.  1.
         -5    1    4    4    0  501  0.46067602561E+02 -0.96861293936E+02  0.14476945355E+03  0.18022208896E+03  0.41800000000E+01 0.  1.
</event>
<event>
11    1  0.8453735E-009  0.1370535E+03  0.7561462E-02  0.1110894E+00
         22   -1    0    0    0    0  0.00000000000E+00  0.00000000000E+00  0.98145318659E+03  0.98145318659E+03  0.00000000000E+00 0.  1.
         22   -1    0    0    0    0 -0.00000000000E+00 -0.00000000000E+00 -0.26540581922E+02  0.26540581922E+02  0.00000000000E+00 0.  1.
        -24    2    1    2    0    0 -0.19835926410E+02  0.49063842323E+02  0.27120591797E+03  0.28802036280E+03  0.81254875809E+02 0.  0.
         25    2    1    2    0    0  0.34495340030E+02 -0.50098784010E+02  0.35228248129E+03  0.37874667644E+03  0.12508509762E+03 0.  0.
         24    2    1    2    0    0 -0.14659413620E+02  0.10349416866E+01  0.33142420541E+03  0.34122672928E+03  0.79860549281E+02 0.  0.
        -11    1    5    5    0    0 -0.31082630833E+02  0.39999413272E+01  0.48081875735E+02  0.57393346691E+02  0.00000000000E+00 0.  1.
         12    1    5    5    0    0  0.16423217213E+02 -0.29649996406E+01  0.28334232967E+03  0.28383338258E+03  0.00000000000E+00 0. -1.
         13    1    3    3    0    0 -0.99571867632E+01 -0.22380370592E+02  0.79888865969E+02  0.83559903434E+02  0.00000000000E+00 0. -1.
        -14    1    3    3    0    0 -0.98787396470E+01  0.71444212915E+02  0.19131705200E+03  0.20446045936E+03  0.00000000000E+00 0.  1.
          5    1    4    4  501    0  0.10166140839E+02 -0.88322827251E+02  0.27521252758E+03  0.28924674583E+03  0.41800000000E+01 0.  1.
         -5    1    4    4    0  501  0.24329199192E+02  0.38224043241E+02  0.77069953707E+02  0.89499930611E+02  0.41800000000E+01 0.  1.
</event>
<event>
11    1  0.8453735E-009  0.5520211E+03  0.7561462E-02  0.9284246E-01
         22   -1    0    0    0    0  0.00000000000E+00  0.00000000000E+00  0.19061006342E+04  0.19061006342E+04  0.00000000000E+00 0. -1.
         22   -1    0    0    0    0 -0.00000000000E+00 -0.00000000000E+00 -0.61572924308E+03  0.61572924308E+03  0.00000000000E+00 0.  1.
        -24    2    1    2    0    0 -0.36112698055E+03 -0.15446544571E+03  0.22603933896E+03  0.46083865987E+03  0.83703152119E+02 0.  0.
         25    2    1    2    0    0  0.72673891769E+03 -0.21501420447E+03 -0.10840371809E+03  0.77574601386E+03  0.12509975747E+03 0.  0.
         24    2    1    2    0    0 -0.36561193715E+03  0.36947965017E+03  0.11727357703E+04  0.12852452036E+04  0.79741745436E+02 0.  0.
        -11    1    5    5    0    0 -0.44022349014E+02  0.16404036040E+02  0.13353524375E+03  0.14155818922E+03  0.00000000000E+00 0.  1.
         12    1    5    5    0    0 -0.32158958813E+03  0.35307561413E+03  0.10392005265E+04  0.11436870144E+04  0.00000000000E+00 0. -1.
         13    1    3    3    0    0 -0.33025557186E+03 -0.11844557181E+03  0.17838764891E+03  0.39359909745E+03  0.00000000000E+00 0. -1.
        -14    1    3    3    0    0 -0.30871408682E+02 -0.36019873899E+02  0.47651690049E+02  0.67239562419E+02  0.00000000000E+00 0.  1.
          5    1    4    4  501    0  0.31824434123E+03 -0.69700392540E+02  0.11047262332E+02  0.32600171756E+03  0.41800000000E+01 0. -1.
         -5    1    4    4    0  501  0.40849457646E+03 -0.14531381192E+03 -0.11945098042E+03  0.44974429630E+03  0.41800000000E+01 0. -1.
</event>
<event>
11    1  0.8453735E-009  0.4162217E+03  0.7561462E-02  0.9603071E-01
         22   -1    0    0    0    0  0.00000000000E+00  0.00000000000E+00  0.16682187900E+03  0.16682187900E+03  0.00000000000E+00 0. -1.
         22   -1    0    0    0    0 -0.00000000000E+00 -0.00000000000E+00 -0.25961898195E+03  0.25961898195E+03  0.00000000000E+00 0. -1.
         24    2    1    2    0    0  0.74769928403E+01 -0.54125699322E+02 -0.25396832802E+02  0.90729966522E+02  0.67833848186E+02 0.  0.
         25    2    1    2    0    0 -0.73268124943E+02  0.13419194570E+03 -0.58207620086E+02  0.20594696977E+03  0.12510128255E+03 0.  0.
        -24    2    1    2    0    0  0.65791132103E+02 -0.80066246377E+02 -0.91926500590E+01  0.12976392466E+03  0.77557040018E+02 0.  0.
        -13    1    3    3    0    0  0.34017657827E+02 -0.30141365655E+02 -0.30298735450E+02  0.54623404667E+02  0.00000000000E+00 0.  1.
         14    1    3    3    0    0 -0.26540664987E+02 -0.23984333667E+02  0.49019026484E+01  0.36106561855E+02  0.00000000000E+00 0. -1.
         13    1    5    5    0    0  0.38057802555E+02 -0.11367768608E+01 -0.23709977339E+02  0.44853668996E+02  0.00000000000E+00 0. -1.
        -14    1    5    5    0    0  0.27733329548E+02 -0.78929469516E+02  0.14517327280E+02  0.84910255666E+02  0.00000000000E+00 0.  1.
          5    1    4    4  501    0 -0.52456514736E+02  0.63518780977E+02 -0.93046477799E+02  0.12434404250E+03  0.41800000000E+01 0. -1.
         -5    1    4    4    0  501 -0.20811610207E+02  0.70673164722E+02  0.34838857713E+02  0.81602927264E+02  0.41800000000E+01 0. -1.
</event>
<event>
11    1  0.8453735E-009  0.3959884E+03  0.7561462E-02  0.9661669E-01
         22   -1    0    0    0    0  0.00000000000E+00  0.00000000000E+00  0.11236973197E+04  0.11236973197E+04  0.00000000000E+00 0. -1.
         22   -1    0    0    0    0 -0.00000000000E+00 -0.00000000000E+00 -0.34071195739E+03  0.34071195739E+03  0.00000000000E+00 0. -1.
         24    2    1    2    0    0 -0.11556076548E+03  0.62417999410E+02  0.29600926231E+02  0.15686237164E+03  0.80494047187E+02 0.  0.
         25    2    1    2    0    0  0.38036682730E+03 -0.29977481442E+03  0.34279471991E+02  0.50136458531E+03  0.12508997774E+03 0.  0.
        -24    2    1    2    0    0 -0.26480606182E+03  0.23735681501E+03  0.71910496410E+03  0.80618232016E+03  0.79733781590E+02 0.  0.
        -13    1    3    3    0    0  0.73110116925E+01  0.47634544149E+01 -0.12060681302E+02  0.14886283062E+02  0.00000000000E+00 0.  1.
         14    1    3    3    0    0 -0.12287177717E+03  0.57654544995E+02  0.41661607534E+02  0.14197608857E+03  0.00000000000E+00 0. -1.
         13    1    5    5    0    0 -0.15625724145E+02  0.32906294408E+02  0.37887515647E+02  0.52559026899E+02  0.00000000000E+00 0. -1.
        -14    1    5    5    0    0 -0.24918033768E+03  0.20445052061E+03  0.68121744846E+03  0.75362329326E+03  0.00000000000E+00 0.  1.
          5    1    4    4  501    0  0.19056513876E+03 -0.22682972909E+03  0.31633958663E+02  0.29796808193E+03  0.41800000000E+01 0. -1.
         -5    1    4    4    0  501  0.18980168854E+03 -0.72945085338E+02  0.26455133275E+01  0.20339650338E+03  0.41800000000E+01 0. -1.
</event>
<event>
11    1  0.8453735E-009  0.1362440E+03  0.7561462E-02  0.1111827E+00
         22   -1    0    0    0    0  0.00000000000E+00  0.00000000000E+00  0.61837895906E+03  0.61837895906E+03  0.00000000000E+00 0.  1.
         22   -1    0    0    0    0 -0.00000000000E+00 -0.00000000000E+00 -0.16380522053E+04  0.16380522053E+04  0.00000000000E+00 0. -1.
         24    2    1    2    0    0  0.48521551793E+02  0.27539445600E+02 -0.15694389335E+04  0.15737379899E+04  0.10198006013E+03 0.  0.
         25    2    1    2    0    0 -0.10467014668E+02  0.20824796210E+02  0.36792235887E+01  0.12729737819E+03  0.12509138769E+03 0.  0.
        -24    2    1    2    0    0 -0.38054537125E+02 -0.48364241810E+02  0.54608646374E+03  0.55539579624E+03  0.80416521470E+02 0.  0.
        -13    1    3    3    0    0  0.38965252429E+02 -0.34349224240E+02 -0.58101573649E+03  0.58333304909E+03  0.00000000000E+00 0.  1.
         14    1    3    3    0    0  0.95562993639E+01  0.61888669840E+02 -0.98842319705E+03  0.99040494081E+03  0.00000000000E+00 0. -1.
         11    1    5    5    0    0 -0.17462058299E+02 -0.52870127520E+02  0.17353943277E+03  0.18225286991E+03  0.00000000000E+00 0. -1.
        -12    1    5    5    0    0 -0.20592478826E+02  0.45058857105E+01  0.37254703096E+03  0.37314292633E+03  0.00000000000E+00 0.  1.
          5    1    4    4  501    0  0.30808233556E+02  0.52892591732E+02 -0.26461502929E+02  0.66816592642E+02  0.41800000000E+01 0.  1.
         -5    1    4    4    0  501 -0.41275248224E+02 -0.32067795523E+02  0.30140726518E+02  0.60480785549E+02  0.41800000000E+01 0.  1.
</event>
<event>
11    1  0.8453735E-009  0.3106250E+03  0.7561462E-02  0.9957921E-01
         22   -1    0    0    0    0  0.00000000000E+00  0.00000000000E+00  0.37915879208E+03  0.37915879208E+03  0.00000000000E+00 0.  1.
         22   -1    0    0    0    0 -0.00000000000E+00 -0.00000000000E+00 -0.17520551099E+04  0.17520551099E+04  0.00000000000E+00 0.  1.
        -24    2    1    2    0    0  0.28345622847E+03  0.63492377200E+01 -0.15942425195E+04  0.16212763296E+04  0.80870140591E+02 0.  0.
         25    2    1    2    0    0 -0.29531600223E+03 -0.18790409488E+02  0.59090091635E+02  0.32665651428E+03  0.12509284044E+03 0.  0.
         24    2    1    2    0    0  0.11859773755E+02  0.12441171768E+02  0.16225611006E+03  0.18328105809E+03  0.83483315785E+02 0.  0.
        -13    1    5    5    0    0  0.43719593895E+02 -0.79524039319E+01  0.11110614664E+03  0.11966294096E+03  0.00000000000E+00 0.  1.
         14    1    5    5    0    0 -0.31859820139E+02  0.20393575700E+02  0.51149963424E+02  0.63618117131E+02  0.00000000000E+00 0. -1.
         11    1    3    3    0    0  0.14697739112E+02  0.39211672204E+01 -0.25627550341E+02  0.29802188239E+02  0.00000000000E+00 0. -1.
        -12    1    3    3    0    0  0.26875848936E+03  0.24280704996E+01 -0.15686149691E+04  0.15914741413E+04  0.00000000000E+00 0.  1.
          5    1    4    4  501    0 -0.73789668261E+02  0.45167795906E+02 -0.66073004175E+01  0.86868715588E+02  0.41800000000E+01 0. -1.
         -5    1    4    4    0  501 -0.22152633397E+03 -0.63958205394E+02  0.65697392053E+02  0.23978779869E+03  0.41800000000E+01 0. -1.
</event>
<event>
11    1  0.8453735E-009  0.1290219E+03  0.7561462E-02  0.1120477E+00
         22   -1    0    0    0    0  0.00000000000E+00  0.00000000000E+00  0.91449210156E+03  0.91449210156E+03  0.00000000000E+00 0.  1.
         22   -1    0    0    0    0 -0.00000000000E+00 -0.00000000000E+00 -0.24927837290E+03  0.24927837290E+03  0.00000000000E+00 0. -1.
         24    2    1    2    0    0  0.49937538974E+01  0.51878261839E+01 -0.11161726262E+03  0.13795567304E+03  0.80755825126E+02 0.  0.
         25    2    1    2    0    0 -0.34368778408E+02  0.64890147084E+01 -0.87991431356E+02  0.15687690180E+03  0.12507817590E+03 0.  0.
        -24    2    1    2    0    0  0.29375024510E+02 -0.11676840892E+02  0.86482242263E+03  0.86893789960E+03  0.78332687924E+02 0.  0.
        -13    1    3    3    0    0 -0.11641234375E+02 -0.28828690402E+02 -0.15689712494E+02  0.34824973887E+02  0.00000000000E+00 0.  1.
         14    1    3    3    0    0  0.16634988272E+02  0.34016516586E+02 -0.95927550126E+02  0.10313069916E+03  0.00000000000E+00 0. -1.
         13    1    5    5    0    0  0.13770154036E+02 -0.42763389166E+02  0.33863980838E+03  0.34160685651E+03  0.00000000000E+00 0. -1.
        -14    1    5    5    0    0  0.15604870474E+02  0.31086548273E+02  0.52618261425E+03  0.52733104309E+03  0.00000000000E+00 0.  1.
          5    1    4    4  501    0  0.32713790426E+01 -0.49941798888E+02 -0.70748989844E+02  0.86762763677E+02  0.41800000000E+01 0. -1.
         -5    1    4    4    0  501 -0.37640157450E+02  0.56430813596E+02 -0.17242441512E+02  0.70114138127E+02  0.41800000000E+01 0. -1.
</event>
<event>
11    1  0.8453735E-009  0.1299200E+03  0.7561462E-02  0.1119367E+00
         22   -1    0    0    0    0  0.00000000000E+00  0.00000000000E+00  0.12532135556E+03  0.12532135556E+03  0.00000000000E+00 0. -1.
         22   -1    0    0    0    0 -0.00000000000E+00 -0.00000000000E+00 -0.18597275763E+04  0.18597275763E+04  0.00000000000E+00 0.  1.
        -24    2    1    2    0    0  0.17312795007E+02 -0.11901723511E+02 -0.10494681464E+04  0.10528783683E+04  0.82024900229E+02 0.  0.
         25    2    1    2    0    0 -0.25396286054E+02  0.45707345398E+02 -0.78528903359E+03  0.79690679040E+03  0.12508970195E+03 0.  0.
         24    2    1    2    0    0  0.80834910477E+01 -0.33805621887E+02  0.10035095922E+03  0.13526377319E+03  0.83772372666E+02 0.  0.
        -11    1    5    5    0    0  0.39433064636E+02  0.36792244946E+01  0.59993371327E+02  0.71886771263E+02  0.00000000000E+00 0.  1.
         12    1    5    5    0    0 -0.31349573588E+02 -0.37484846382E+02  0.40357587890E+02  0.63377001923E+02  0.00000000000E+00 0. -1.
         11    1    3    3    0    0 -0.21911348138E+02  0.11396535514E+02 -0.13289424582E+03  0.13516977758E+03  0.00000000000E+00 0. -1.
        -12    1    3    3    0    0  0.39224143144E+02 -0.23298259024E+02 -0.91657390058E+03  0.91770859073E+03  0.00000000000E+00 0.  1.
          5    1    4    4  501    0  0.41764055843E+02 -0.13724293873E+02 -0.32033221990E+03  0.32336171095E+03  0.41800000000E+01 0.  1.
         -5    1    4    4    0  501 -0.67160341897E+02  0.59431639271E+02 -0.46495681369E+03  0.47354507945E+03  0.41800000000E+01 0.  1.
</event>
<event>
11    1  0.8453735E-009  0.1576023E+03  0.7561462E-02  0.1089354E+00
         22   -1    0    0    0    0  0.00000000000E+00  0.00000000000E+00  0.60923617396E+03  0.60923617396E+03  0.00000000000E+00 0. -1.
         22   -1    0    0    0    0 -0.00000000000E+00 -0.00000000000E+00 -0.23037611917E+04  0.23037611917E+04  0.00000000000E+00 0.  1.
        -24    2    1    2    0    0  0.18608554338E+02  0.92655967661E+02 -0.19319531749E+04  0.19359389349E+04  0.80530013633E+02 0.  0.
         25    2    1    2    0    0 -0.96930907669E+02 -0.91850154453E+02 -0.34148243194E+03  0.38741377372E+03  0.12508848473E+03 0.  0.
         24    2    1    2    0    0  0.78322353331E+02 -0.80581320897E+00  0.57891058907E+03  0.58964465704E+03  0.80051927383E+02 0.  0.
        -13    1    5    5    0    0  0.61983545319E+02 -0.23595433472E+02  0.22358756756E+03  0.23321686203E+03  0.00000000000E+00 0.  1.
         14    1    5    5    0    0  0.16338808012E+02  0.22789620263E+02  0.35532302151E+03  0.35642779501E+03  0.00000000000E+00 0. -1.
         13    1    3    3    0    0  0.44249138039E+02  0.22894532136E+02 -0.79141572109E+03  0.79298233865E+03  0.00000000000E+00 0. -1.
        -14    1    3    3    0    0 -0.25640583701E+02  0.69761435525E+02 -0.11405374538E+04  0.11429565962E+04  0.00000000000E+00 0.  1.
          5    1    4    4  501    0 -0.69122131534E+02 -0.88479057554E+02 -0.34105771025E+03  0.35908807668E+03  0.41800000000E+01 0.  1.
         -5    1    4    4    0  501 -0.27808776135E+02 -0.33710968980E+01 -0.42472169048E+00  0.28325697042E+02  0.41800000000E+01 0.  1.
</event>
<event>
11    1  0.8453735E-009  0.1810878E+03  0.7561462E-02  0.1068766E+00
         22   -1    0    0    0    0  0.00000000000E+00  0.00000000000E+00  0.64112114832E+03  0.64112114832E+03  0.00000000000E+00 0.  1.
         22   -1    0    0    0    0 -0.00000000000E+00 -0.00000000000E+00 -0.74298261075E+03  0.74298261075E+03  0.00000000000E+00 0. -1.
        -24    2    1    2    0    0  0.95685024544E+02 -0.71917306844E+02 -0.47239878267E+03  0.49379740670E+03  0.79671488283E+02 0.  0.
         25    2    1    2    0    0 -0.14229408480E+03  0.11119897561E+03 -0.20821656356E+03  0.30267865729E+03  0.12508962185E+03 0.  0.
         24    2    1    2    0    0  0.46609060253E+02 -0.39281668762E+02  0.57875388380E+03  0.58762769508E+03  0.81454257152E+02 0.  0.
        -11    1    5    5    0    0  0.26219015467E+02 -0.62442636019E+02  0.45865431894E+03  0.46362733293E+03  0.00000000000E+00 0.  1.
         12    1    5    5    0    0  0.20390044787E+02  0.23160967258E+02  0.12009956487E+03  0.12400036215E+03  0.00000000000E+00 0. -1.
         13    1    3    3    0    0 -0.11039842482E+02 -0.34697847424E+01 -0.94286267292E+02  0.94993777312E+02  0.00000000000E+00 0. -1.
        -14    1    3    3    0    0  0.10672486703E+03 -0.68447522101E+02 -0.37811251538E+03  0.39880362939E+03  0.00000000000E+00 0.  1.
          5    1    4    4  501    0 -0.83084903967E+02  0.26599344448E+02 -0.22574572615E+02  0.90209257402E+02  0.41800000000E+01 0. -1.
         -5    1    4    4    0  501 -0.59209180830E+02  0.84599631158E+02 -0.18564199095E+03  0.21246939989E+03  0.41800000000E+01 0. -1.
</event>
<event>
11    1  0.8453735E-009  0.2128283E+03  0.7561462E-02  0.1045805E+00
         22   -1    0    0    0    0  0.00000000000E+00  0.00000000000E+00  0.14273973066E+04  0.14273973066E+04  0.00000000000E+00 0.  1.
         22   -1    0    0    0    0 -0.00000000000E+00 -0.00000000000E+00 -0.30260669189E+03  0.30260669189E+03  0.00000000000E+00 0. -1.
        -24    2    1    2    0    0 -0.33966942690E+02 -0.39136963148E+02 -0.23551621560E+03  0.25383868079E+03  0.79251075543E+02 0.  0.
         25    2    1    2    0    0  0.20160349706E+03  0.29490201168E+02  0.23402126708E+03  0.33455487685E+03  0.12508944874E+03 0.  0.
         24    2    1    2    0    0 -0.16763655437E+03  0.96467619805E+01  0.11262855632E+04  0.11416104408E+04  0.80994779571E+02 0.  0.
        -11    1    5    5    0    0 -0.17676837727E+03  0.11232602504E+02  0.10653418313E+04  0.10799659477E+04  0.00000000000E+00 0.  1.
         12    1    5    5    0    0  0.91318228935E+01 -0.15858405237E+01  0.60943731889E+02  0.61644493152E+02  0.00000000000E+00 0. -1.
         11    1    3    3    0    0 -0.34027190422E+02 -0.62341468255E+02 -0.18774518538E+03  0.20073007494E+03  0.00000000000E+00 0. -1.
        -12    1    3    3    0    0  0.60247732186E-01  0.23204505107E+02 -0.47771030222E+02  0.53108605852E+02  0.00000000000E+00 0.  1.
          5    1    4    4  501    0  0.21577994582E+03  0.12012894308E+02  0.21338992195E+03  0.30374006294E+03  0.41800000000E+01 0.  1.
         -5    1    4    4    0  501 -0.14176448755E+02  0.17477306860E+02  0.20631345134E+02  0.30814813911E+02  0.41800000000E+01 0.  1.
</event>
<event>
11    1  0.8453735E-009  0.2531319E+03  0.7561462E-02  0.1022244E+00
         22   -1    0    0    0    0  0.00000000000E+00  0.00000000000E+00  0.18977137568E+04  0.18977137568E+04  0.00000000000E+00 0.  1.
         22   -1    0    0    0    0 -0.00000000000E+00 -0.00000000000E+00 -0.31435885438E+03  0.31435885438E+03  0.00000000000E+00 0.  1.
        -24    2    1    2    0    0 -0.41739546753E+02  0.21275292359E+03 -0.22339973374E+03  0.32101626169E+03  0.78345408115E+02 0.  0.
         25    2    1    2    0    0 -0.50516914133E+02 -0.27379332521E+03  0.56880754241E+03  0.64552246693E+03  0.12506994631E+03 0.  0.
         24    2    1    2    0    0  0.92256460886E+02  0.61040401617E+02  0.12379470938E+04  0.12455338826E+04  0.81267831577E+02 0.  0.
        -13    1    5    5    0    0  0.73583168075E+02  0.43184561652E+02  0.11654815620E+04  0.11686002997E+04  0.00000000000E+00 0.  1.
         14    1    5    5    0    0  0.18673292810E+02  0.17855839965E+02  0.72465531743E+02  0.76933582888E+02  0.00000000000E+00 0. -1.
         11    1    3    3    0    0  0.20105464364E+02  0.29464057934E+02 -0.22763249063E+02  0.42314606404E+02  0.00000000000E+00 0. -1.
        -12    1    3    3    0    0 -0.61845011117E+02  0.18328886566E+03 -0.20063648468E+03  0.27870165529E+03  0.00000000000E+00 0.  1.
          5    1    4    4  501    0 -0.89196622214E+02 -0.22641976399E+03  0.46895678421E+03  0.52835583161E+03  0.41800000000E+01 0.  1.
         -5    1    4    4    0  501  0.38679708081E+02 -0.47373561226E+02  0.99850758201E+02  0.11716663533E+03  0.41800000000E+01 0.  1.
</event>
<event>
11    1  0.8453735E-009  0.1738785E+03  0.7561462E-02  0.1074705E+00
         22   -1    0    0    0    0  0.00000000000E+00  0.00000000000E+00  0.16736817387E+04  0.16736817387E+04  0.00000000000E+00 0.  1.
         22   -1    0    0    0    0 -0.00000000000E+00 -0.00000000000E+00 -0.63619307024E+03  0.63619307024E+03  0.00000000000E+00 0. -1.
         24    2    1    2    0    0 -0.24667696774E+02 -0.76407837754E+02 -0.59176125907E+03  0.60057139431E+03  0.63702111305E+02 0.  0.
         25    2    1    2    0    0  0.66576317973E+02  0.18179900825E+03  0.32903323696E+03  0.40173848345E+03  0.12509057737E+03 0.  0.
        -24    2    1    2    0    0 -0.41908621198E+02 -0.10539117050E+03  0.13002166906E+04  0.13075649312E+04  0.79366085135E+02 0.  0.
        -13    1    3    3    0    0 -0.10151698466E+02 -0.31937739431E+02 -0.80811714675E+02  0.87484909615E+02  0.00000000000E+00 0.  1.
         14    1    3    3    0    0 -0.14515998309E+02 -0.44470098323E+02 -0.51094954440E+03  0.51308648469E+03  0.00000000000E+00 0. -1.
         11    1    5    5    0    0 -0.39938622442E+02 -0.75914855886E+02  0.53967431797E+03  0.54644901719E+03  0.00000000000E+00 0. -1.
        -12    1    5    5    0    0 -0.19699987562E+01 -0.29476314613E+02  0.76054237258E+03  0.76111591398E+03  0.00000000000E+00 0.  1.
          5    1    4    4  501    0  0.19825929752E+02  0.16185969627E+03  0.30383819042E+03  0.34485757513E+03  0.41800000000E+01 0. -1.
         -5    1    4    4    0  501  0.46750388220E+02  0.19939311982E+02  0.25195046535E+02  0.56880908317E+02  0.41800000000E+01 0. -1.
</event>
<event>
11    1  0.8453735E-009  0.1359461E+03  0.7561462E-02  0.1112172E+00
         22   -1    0    0    0    0  0.00000000000E+00  0.00000000000E+00  0.13752534979E+03  0.13752534979E+03  0.00000000000E+00 0.  1.
         22   -1    0    0    0    0 -0.00000000000E+00 -0.00000000000E+00 -0.11569513166E+04  0.11569513166E+04  0.00000000000E+00 0.  1.
         24    2    1    2    0    0 -0.36235043981E+02  0.39790343788E+02 -0.10368732690E+04  0.10413751480E+04  0.80372713199E+02 0.  0.
         25    2    1    2    0    0  0.50599061177E+02 -0.84881124167E+01 -0.47926896248E+02  0.14344772934E+03  0.12509176881E+03 0.  0.
        -24    2    1    2    0    0 -0.14364017195E+02 -0.31302231371E+02  0.65374198406E+02  0.10965378908E+03  0.81018596408E+02 0.  0.
        -13    1    3    3    0    0  0.39034672681E-01  0.33141023439E+02 -0.86289691833E+03  0.86353310337E+03  0.00000000000E+00 0.  1.
         14    1    3    3    0    0 -0.36274078654E+02  0.66493203493E+01 -0.17397635067E+03  0.17784204462E+03  0.00000000000E+00 0. -1.
         11    1    5    5    0    0  0.26464821628E+02 -0.87828615880E+01 -0.17329107667E+01  0.27937938743E+02  0.00000000000E+00 0. -1.
        -12    1    5    5    0    0 -0.40828838823E+02 -0.22519369783E+02  0.67107109173E+02  0.81715850339E+02  0.00000000000E+00 0.  1.
          5    1    4    4  501    0 -0.34695764573E+02 -0.29055259482E+02 -0.27987903054E+02  0.53374144492E+02  0.41800000000E+01 0.  1.
         -5    1    4    4    0  501  0.85294825750E+02  0.20567147065E+02 -0.19938993195E+02  0.90073584850E+02  0.41800000000E+01 0.  1.
</event>
<event>
11    1  0.8453735E-009  0.1411570E+03  0.7561462E-02  0.1106273E+00
         22   -1    0    0    0    0  0.00000000000E+00  0.00000000000E+00  0.21278972862E+03  0.21278972862E+03  0.00000000000E+00 0. -1.
         22   -1    0    0    0    0 -0.00000000000E+00 -0.00000000000E+00 -0.23675287005E+04  0.23675287005E+04  0.00000000000E+00 0. -1.
        -24    2    1    2    0    0  0.32986378181E+02  0.27881686525E+02 -0.22870220182E+04  0.22888037323E+04  0.79292646469E+02 0.  0.
         25    2    1    2    0    0  0.32934914220E+02  0.13189337872E+02  0.17862245731E+02  0.13125290636E+03  0.12509835489E+03 0.  0.
         24    2    1    2    0    0 -0.65921292401E+02 -0.41071024397E+02  0.11442080053E+03  0.16026179049E+03  0.80989357699E+02 0.  0.
        -11    1    5    5    0    0 -0.11855887984E+02 -0.12312498351E+02 -0.11251269197E+02  0.20463400355E+02  0.00000000000E+00 0.  1.
         12    1    5    5    0    0 -0.54065404417E+02 -0.28758526046E+02  0.12567206973E+03  0.13979839013E+03  0.00000000000E+00 0. -1.
         11    1    3    3    0    0  0.36671921457E+02  0.39536087433E+02 -0.83952633123E+03  0.84125643704E+03  0.00000000000E+00 0. -1.
        -12    1    3    3    0    0 -0.36855432762E+01 -0.11654400908E+02 -0.14474956869E+04  0.14475472952E+04  0.00000000000E+00 0.  1.
          5    1    4    4  501    0 -0.58967958705E+01 -0.49964502499E+02  0.25584905448E+02  0.56597557353E+02  0.41800000000E+01 0. -1.
         -5    1    4    4    0  501  0.38831710090E+02  0.63153840371E+02 -0.77226597178E+01  0.74655349007E+02  0.41800000000E+01 0. -1.
</event>
<event>
11    1  0.8453735E-009  0.1796500E+03  0.7561462E-02  0.1069926E+00
         22   -1    0    0    0    0  0.00000000000E+00  0.00000000000E+00  0.10607859945E+04  0.10607859945E+04  0.00000000000E+00 0.  1.
         22   -1    0    0    0    0 -0.00000000000E+00 -0.00000000000E+00 -0.14142461268E+03  0.14142461268E+03  0.00000000000E+00 0. -1.
         24    2    1    2    0    0 -0.28750291788E+02  0.12258826515E+03 -0.69372614315E+02  0.16329233022E+03  0.77442646259E+02 0.  0.
         25    2    1    2    0    0  0.68612732286E+02 -0.16470380120E+03  0.71737305459E+03  0.74973826996E+03  0.12509326451E+03 0.  0.
        -24    2    1    2    0    0 -0.39862440498E+02  0.42115536051E+02  0.27136094156E+03  0.28918000703E+03  0.81397686216E+02 0.  0.
        -11    1    3    3    0    0  0.50681141479E+01 -0.95769648401E+01 -0.15686353516E+01  0.10948271710E+02  0.00000000000E+00 0.  1.
         12    1    3    3    0    0 -0.33818405936E+02  0.13216522999E+03 -0.67803978964E+02  0.15234405851E+03  0.00000000000E+00 0. -1.
         11    1    5    5    0    0 -0.21434579149E+02 -0.76403371536E+01  0.14696794327E+02  0.27088958980E+02  0.00000000000E+00 0. -1.
        -12    1    5    5    0    0 -0.18427861349E+02  0.49755873204E+02  0.25666414724E+03  0.26209104805E+03  0.00000000000E+00 0.  1.
          5    1    4    4  501    0  0.62929326436E+02 -0.33696629682E+02  0.39959702101E+03  0.40594434911E+03  0.41800000000E+01 0.  1.
         -5    1    4    4    0  501  0.56834058496E+01 -0.13100717152E+03  0.31777603359E+03  0.34379392085E+03  0.41800000000E+01 0.  1.
</event>
<event>
11    1  0.8453735E-009  0.2025698E+03  0.7561462E-02  0.1052721E+00
         22   -1    0    0    0    0  0.00000000000E+00  0.00000000000E+00  0.81680877822E+03  0.81680877822E+03  0.00000000000E+00 0. -1.
         22   -1    0    0    0    0 -0.00000000000E+00 -0.00000000000E+00 -0.72283576311E+03  0.72283576311E+03  0.00000000000E+00 0. -1.
        -24    2    1    2    0    0 -0.76832583244E+01 -0.74498726784E+02 -0.66993258436E+03  0.67889153361E+03  0.80467099340E+02 0.  0.
         25    2    1    2    0    0 -0.13476561424E+03  0.11858681706E+03  0.42680897335E+03  0.47962344069E+03  0.12509253043E+03 0.  0.
         24    2    1    2    0    0  0.14244887256E+03 -0.44088090272E+02  0.33709662612E+03  0.38112956703E+03  0.96902892237E+02 0.  0.
        -13    1    5    5    0    0  0.13390877834E+02  0.25914813947E+02  0.78729477332E+02  0.83959655740E+02  0.00000000000E+00 0.  1.
         14    1    5    5    0    0  0.12905799473E+03 -0.70002904219E+02  0.25836714879E+03  0.29716991129E+03  0.00000000000E+00 0. -1.
         13    1    3    3    0    0  0.35126377085E+02 -0.48321332901E+02 -0.36842993895E+03  0.37324178959E+03  0.00000000000E+00 0. -1.
        -14    1    3    3    0    0 -0.42809635410E+02 -0.26177393884E+02 -0.30150264541E+03  0.30564974403E+03  0.00000000000E+00 0.  1.
          5    1    4    4  501    0 -0.12871407330E+03  0.37788131203E+02  0.30553337112E+03  0.33371150534E+03  0.41800000000E+01 0.  1.
         -5    1    4    4    0  501 -0.60515409411E+01  0.80798685854E+02  0.12127560223E+03  0.14591193535E+03  0.41800000000E+01 0.  1.
</event>
<event>
11    1  0.8453735E-009  0.1403021E+03  0.7561462E-02  0.1107222E+00
         22   -1    0    0    0    0  0.00000000000E+00  0.00000000000E+00  0.84670185765E+03  0.84670185765E+03  0.00000000000E+00 0. -1.
         22   -1    0    0    0    0 -0.00000000000E+00 -0.00000000000E+00 -0.23757997456E+03  0.23757997456E+03  0.00000000000E+00 0.  1.
        -24    2    1    2    0    0 -0.72439050445E+00 -0.25543146757E+02 -0.15288658856E+03  0.17493822555E+03  0.81093136019E+02 0.  0.
         25    2    1    2    0    0  0.18155092669E+01 -0.39156536804E+02 -0.91662709049E+01  0.13140854085E+03  0.12509058173E+03 0.  0.
         24    2    1    2    0    0 -0.10911187625E+01  0.64699683562E+02  0.77117474255E+03  0.77793506581E+03  0.79279527558E+02 0.  0.
        -13    1    5    5    0    0  0.26764760623E+02 -0.46163854663E+01  0.24029234178E+03  0.24182239959E+03  0.00000000000E+00 0.  1.
         14    1    5    5    0    0 -0.27855879386E+02  0.69316069028E+02  0.53088240077E+03  0.53611266622E+03  0.00000000000E+00 0. -1.
         11    1    3    3    0    0 -0.23452666442E+02  0.65157800289E+01 -0.92771919783E+01  0.26048977785E+02  0.00000000000E+00 0. -1.
        -12    1    3    3    0    0  0.22728275937E+02 -0.32058926786E+02 -0.14360939658E+03  0.14888924776E+03  0.00000000000E+00 0.  1.
          5    1    4    4  501    0 -0.54031477830E+02 -0.27724348799E+02 -0.33275115423E+02  0.69373956347E+02  0.41800000000E+01 0.  1.
         -5    1    4    4    0  501  0.55846987097E+02 -0.11432188006E+02  0.24108844518E+02  0.62034584503E+02  0.41800000000E+01 0.  1.
</event>
<event>
11    1  0.8453735E-009  0.1527805E+03  0.7561462E-02  0.1094071E+00
         22   -1    0    0    0    0  0.00000000000E+00  0.00000000000E+00  0.72438911188E+03  0.72438911188E+03  0.00000000000E+00 0. -1.
         22   -1    0    0    0    0 -0.00000000000E+00 -0.00000000000E+00 -0.68175221739E+03  0.68175221739E+03  0.00000000000E+00 0. -1.
         24    2    1    2    0    0 -0.87065232393E+02  0.72751915309E+01 -0.64513391624E+03  0.65653546850E+03  0.84898577172E+02 0.  0.
         25    2    1    2    0    0  0.10178756923E+03 -0.12400997007E+02  0.21427457152E+03  0.26846916461E+03  0.12509039279E+03 0.  0.
        -24    2    1    2    0    0 -0.14722336836E+02  0.51258054761E+01  0.47349623921E+03  0.48113669616E+03  0.83969106004E+02 0.  0.
        -13    1    3    3    0    0  0.12749337921E+02  0.95255143375E+01 -0.37252378748E+02  0.40509514477E+02  0.00000000000E+00 0.  1.
         14    1    3    3    0    0 -0.99814570314E+02 -0.22503228065E+01 -0.60788153750E+03  0.61602595402E+03  0.00000000000E+00 0. -1.
         13    1    5    5    0    0  0.19068242986E+02  0.31940777630E+02  0.30269527510E+03  0.30497252455E+03  0.00000000000E+00 0. -1.
        -14    1    5    5    0    0 -0.33790579823E+02 -0.26814972154E+02  0.17080096411E+03  0.17616417161E+03  0.00000000000E+00 0.  1.
          5    1    4    4  501    0  0.74271151920E+02 -0.66516702562E+02  0.14794270317E+03  0.17845221083E+03  0.41800000000E+01 0. -1.
         -5    1    4    4    0  501  0.27516417309E+02  0.54115705555E+02  0.66331868346E+02  0.90016953778E+02  0.41800000000E+01 0. -1.
</event>
<event>
11    1  0.8453735E-009  0.1320986E+03  0.7561462E-02  0.1116717E+00
         22   -1    0    0    0    0  0.00000000000E+00  0.00000000000E+00  0.14946375150E+04  0.14946375150E+04  0.00000000000E+00 0. -1.
         22   -1    0    0    0    0 -0.00000000000E+00 -0.00000000000E+00 -0.72158542686E+02  0.72158542686E+02  0.00000000000E+00 0. -1.
        -24    2    1    2    0    0  0.28810193539E+02  0.17147282155E+02 -0.33041468871E+02  0.93767112834E+02  0.81095476120E+02 0.  0.
         25    2    1    2    0    0  0.23310304455E+02 -0.20865000797E-01  0.74214559046E+03  0.75297404344E+03  0.12508581823E+03 0.  0.
         24    2    1    2    0    0 -0.52120497994E+02 -0.17126417154E+02  0.71337485073E+03  0.72005490142E+03  0.81027914498E+02 0.  0.
        -11    1    5    5    0    0 -0.32544690943E+02 -0.12304493171E+02  0.92097698920E+02  0.98450716641E+02  0.00000000000E+00 0.  1.
         12    1    5    5    0    0 -0.19575807052E+02 -0.48219239828E+01  0.62127715181E+03  0.62160418478E+03  0.00000000000E+00 0. -1.
         11    1    3    3    0    0  0.40042858557E+02  0.37399696633E+02 -0.41894994178E+02  0.68973606306E+02  0.00000000000E+00 0. -1.
        -12    1    3    3    0    0 -0.11232665018E+02 -0.20252414479E+02  0.88535253068E+01  0.24793506528E+02  0.00000000000E+00 0.  1.
          5    1    4    4  501    0  0.60386668522E+02 -0.23963594544E+02  0.23366925357E+03  0.24256874502E+03  0.41800000000E+01 0.  1.
         -5    1    4    4    0  501 -0.37076364067E+02  0.23942729544E+02  0.50847633690E+03  0.51040529842E+03  0.41800000000E+01 0.  1.
</event>
<event>
11    1  0.8453735E-009  0.2375909E+03  0.7561462E-02  0.1030725E+00
         22   -1    0    0    0    0  0.00000000000E+00  0.00000000000E+00  0.99895890576E+03  0.99895890576E+03  0.00000000000E+00 0.  1.
         22   -1    0    0    0    0 -0.00000000000E+00 -0.00000000000E+00 -0.42562805482E+03  0.42562805482E+03  0.00000000000E+00 0.  1.
        -24    2    1    2    0    0 -0.11569934848E+03 -0.55754529863E+02 -0.25482234293E+03  0.29619209494E+03  0.79375209016E+02 0.  0.
         25    2    1    2    0    0  0.30642448548E+03  0.65018815961E+02  0.72713026887E+02  0.34504685285E+03  0.12508690838E+03 0.  0.
         24    2    1    2    0    0 -0.19072513700E+03 -0.92642860983E+01  0.75544016698E+03  0.78334801280E+03  0.80513094538E+02 0.  0.
        -11    1    5    5    0    0 -0.15641710261E+03  0.19190743407E+02  0.50652421136E+03  0.53047278094E+03  0.00000000000E+00 0.  1.
         12    1    5    5    0    0 -0.34308034388E+02 -0.28455029505E+02  0.24891595562E+03  0.25287523186E+03  0.00000000000E+00 0. -1.
         13    1    3    3    0    0  0.11848106164E+02 -0.27949173616E+00 -0.21912537991E+02  0.24912146767E+02  0.00000000000E+00 0. -1.
        -14    1    3    3    0    0 -0.12754745465E+03 -0.55475038126E+02 -0.23290980494E+03  0.27127994817E+03  0.00000000000E+00 0.  1.
          5    1    4    4  501    0  0.26831293165E+03  0.95289742453E+02  0.43326395099E+02  0.28803925639E+03  0.41800000000E+01 0.  1.
         -5    1    4    4    0  501  0.38111553832E+02 -0.30270926492E+02  0.29386631788E+02  0.57007596458E+02  0.41800000000E+01 0.  1.
</event>
<event>
11    1  0.8453735E-009  0.2213463E+03  0.7561462E-02  0.1040377E+00
         22   -1    0    0    0    0  0.00000000000E+00  0.00000000000E+00  0.22442309474E+04  0.22442309474E+04  0.00000000000E+00 0.  1.
         22   -1    0    0    0    0 -0.00000000000E+00 -0.00000000000E+00 -0.63881266615E+03  0.63881266615E+03  0.00000000000E+00 0. -1.
         24    2    1    2    0    0 -0.12571513462E+03 -0.99000127731E+02 -0.49342747268E+03  0.52489747152E+03  0.80258111391E+02 0.  0.
         25    2    1    2    0    0  0.26586599036E+03 -0.15958865199E+02  0.48359984793E+02  0.29820362236E+03  0.12508917640E+03 0.  0.
        -24    2    1    2    0    0 -0.14015085574E+03  0.11495899293E+03  0.20504857691E+04  0.20599425197E+04  0.77546518297E+02 0.  0.
        -13    1    3    3    0    0 -0.23260306602E+02  0.12173207029E+02 -0.51146012428E+02  0.57490376759E+02  0.00000000000E+00 0.  1.
         14    1    3    3    0    0 -0.10245482802E+03 -0.11117333476E+03 -0.44228146025E+03  0.46740709476E+03  0.00000000000E+00 0. -1.
         11    1    5    5    0    0 -0.60270916435E+02  0.78853665026E+02  0.75520120164E+03  0.76169504319E+03  0.00000000000E+00 0. -1.
        -12    1    5    5    0    0 -0.79879939307E+02  0.36105327904E+02  0.12952845675E+04  0.12982474765E+04  0.00000000000E+00 0.  1.
          5    1    4    4  501    0  0.10735022609E+03 -0.67409325886E+02  0.10594531263E+02  0.12727059657E+03  0.41800000000E+01 0.  1.
         -5    1    4    4    0  501  0.15851576427E+03  0.51450460687E+02  0.37765453530E+02  0.17093302580E+03  0.41800000000E+01 0.  1.
</event>
<event>
11    1  0.8453735E-009  0.1824574E+03  0.7561462E-02  0.1067672E+00
         22   -1    0    0    0    0  0.00000000000E+00  0.00000000000E+00  0.23992463994E+04  0.23992463994E+04  0.00000000000E+00 0. -1.
         22   -1    0    0    0    0 -0.00000000000E+00 -0.00000000000E+00 -0.17475786884E+04  0.17475786884E+04  0.00000000000E+00 0.  1.
         24    2    1    2    0    0  0.34045041286E+02 -0.12590489888E+03 -0.12667936294E+04  0.12755360408E+04  0.72214842120E+02 0.  0.
         25    2    1    2    0    0  0.23177142105E+02  0.15306522596E+03 -0.45426537199E+03  0.49595568857E+03  0.12509545764E+03 0.  0.
        -24    2    1    2    0    0 -0.57222183391E+02 -0.27160327079E+02  0.23727267125E+04  0.23753333584E+04  0.91457365576E+02 0.  0.
        -13    1    3    3    0    0  0.21106815324E+02 -0.12177717407E+03 -0.12320328335E+04  0.12382164918E+04  0.00000000000E+00 0.  1.
         14    1    3    3    0    0  0.12938225961E+02 -0.41277248083E+01 -0.34760795959E+02  0.37319549016E+02  0.00000000000E+00 0. -1.
         11    1    5    5    0    0 -0.47034681459E+02 -0.60202970547E+02  0.17084689900E+04  0.17101762917E+04  0.00000000000E+00 0. -1.
        -12    1    5    5    0    0 -0.10187501932E+02  0.33042643469E+02  0.66425772248E+03  0.66515706669E+03  0.00000000000E+00 0.  1.
          5    1    4    4  501    0  0.64235315041E+02  0.41452163754E+02 -0.22461446227E+03  0.23730483905E+03  0.41800000000E+01 0.  1.
         -5    1    4    4    0  501 -0.41058172936E+02  0.11161306220E+03 -0.22965090973E+03  0.25865084952E+03  0.41800000000E+01 0.  1.
</event>
<event>
11    1  0.8453735E-009  0.1414164E+03  0.7561462E-02  0.1105987E+00
         22   -1    0    0    0    0  0.00000000000E+00  0.00000000000E+00  0.17650137552E+03  0.17650137552E+03  0.00000000000E+00 0. -1.
         22   -1    0    0    0    0 -0.00000000000E+00 -0.00000000000E+00 -0.52523492846E+03  0.52523492846E+03  0.00000000000E+00 0. -1.
        -24    2    1    2    0    0  0.55455526969E+02  0.40595522151E+02 -0.44242459712E+03  0.45500686066E+03  0.81045710698E+02 0.  0.
         25    2    1    2    0    0 -0.19939378822E+02 -0.28928599022E+02  0.19156217133E+02  0.13132185132E+03  0.12507607809E+03 0.  0.
         24    2    1    2    0    0 -0.35516148147E+02 -0.11666923129E+02  0.74534827045E+02  0.11540759199E+03  0.79786953646E+02 0.  0.
        -11    1    5    5    0    0 -0.70235166712E+01 -0.11278743655E+02 -0.15823798951E+02  0.20662343964E+02  0.00000000000E+00 0.  1.
         12    1    5    5    0    0 -0.28492631476E+02 -0.38817947360E+00  0.90358625996E+02  0.94745248027E+02  0.00000000000E+00 0. -1.
         11    1    3    3    0    0  0.60390571460E+02  0.56874359771E+02 -0.41085383021E+03  0.41914506286E+03  0.00000000000E+00 0. -1.
        -12    1    3    3    0    0 -0.49350444915E+01 -0.16278837620E+02 -0.31570766910E+02  0.35861797803E+02  0.00000000000E+00 0.  1.
          5    1    4    4  501    0 -0.49423005696E+02 -0.15971215769E+02  0.59786921145E+02  0.79307386574E+02  0.41800000000E+01 0. -1.
         -5    1    4    4    0  501  0.29483626875E+02 -0.12957383253E+02 -0.40630704012E+02  0.52014464748E+02  0.41800000000E+01 0. -1.
</event>
<event>
11    1  0.8453735E-009  0.1659289E+03  0.7561462E-02  0.1081630E+00
         22   -1    0    0    0    0  0.00000000000E+00  0.00000000000E+00  0.16574322207E+03  0.16574322207E+03  0.00000000000E+00 0.  1.
         22   -1    0    0    0    0 -0.00000000000E+00 -0.00000000000E+00 -0.64240052368E+03  0.64240052368E+03  0.00000000000E+00 0. -1.
         24    2    1    2    0    0  0.75712865425E+01  0.35545770256E+00 -0.48985999675E+03  0.49446470429E+03  0.66896013655E+02 0.  0.
         25    2    1    2    0    0 -0.63569651186E+01 -0.10927775268E+03 -0.36056940068E+02  0.17007290125E+03  0.12507058238E+03 0.  0.
        -24    2    1    2    0    0 -0.12143214239E+01  0.10892229498E+03  0.49259635210E+02  0.14360614021E+03  0.79565513421E+02 0.  0.
        -11    1    3    3    0    0  0.12370729795E+02  0.32087871107E+02 -0.29210984492E+03  0.29412723085E+03  0.00000000000E+00 0.  1.
         12    1    3    3    0    0 -0.47994432523E+01 -0.31732413404E+02 -0.19775015183E+03  0.20033747344E+03  0.00000000000E+00 0. -1.
         11    1    5    5    0    0 -0.18417084353E+02 -0.21935870382E+01  0.20299763407E+02  0.27496931003E+02  0.00000000000E+00 0. -1.
        -12    1    5    5    0    0  0.17202762929E+02  0.11111588201E+03  0.28959871803E+02  0.11610920921E+03  0.00000000000E+00 0.  1.
          5    1    4    4  501    0  0.24654002299E+02 -0.11060181674E+03  0.10590345208E+02  0.11388682763E+03  0.41800000000E+01 0. -1.
         -5    1    4    4    0  501 -0.31010967417E+02  0.13240640607E+01 -0.46647285276E+02  0.56186073625E+02  0.41800000000E+01 0. -1.
</event>
<event>
11    1  0.8453735E-009  0.1880954E+03  0.7561462E-02  0.1063276E+00
         22   -1    0    0    0    0  0.00000000000E+00  0.00000000000E+00  0.13305466669E+03  0.13305466669E+03  0.00000000000E+00 0. -1.
         22   -1    0    0    0    0 -0.00000000000E+00 -0.00000000000E+00 -0.25276516515E+04  0.25276516515E+04  0.00000000000E+00 0. -1.
        -24    2    1    2    0    0 -0.33200209899E+02 -0.43753430448E+02 -0.22614176383E+04  0.22634415833E+04  0.78367398487E+02 0.  0.
         25    2    1    2    0    0 -0.11637769362E+03  0.14127889456E+02 -0.14510904356E+03  0.22460355340E+03  0.12508699711E+03 0.  0.
         24    2    1    2    0    0  0.14957790351E+03  0.29625540992E+02  0.11929697057E+02  0.17266118158E+03  0.80114568302E+02 0.  0.
        -13    1    5    5    0    0  0.12713141175E+01 -0.93419251563E+01 -0.14265327065E+02  0.17099338042E+02  0.00000000000E+00 0.  1.
         14    1    5    5    0    0  0.14830658940E+03  0.38967466148E+02  0.26195024122E+02  0.15556184354E+03  0.00000000000E+00 0. -1.
         11    1    3    3    0    0 -0.50347402193E+02 -0.13999273762E+02 -0.17953888635E+04  0.17961492176E+04  0.00000000000E+00 0. -1.
        -12    1    3    3    0    0  0.17147192294E+02 -0.29754156687E+02 -0.46602877481E+03  0.46729236565E+03  0.00000000000E+00 0.  1.
          5    1    4    4  501    0  0.12295655166E+02  0.38185385534E+02 -0.37970973862E+02  0.55394711484E+02  0.41800000000E+01 0. -1.
         -5    1    4    4    0  501 -0.12867334878E+03 -0.24057496078E+02 -0.10713806970E+03  0.16920884192E+03  0.41800000000E+01 0. -1.
</event>
<event>
11    1  0.8453735E-009  0.1415290E+03  0.7561462E-02  0.1105863E+00
         22   -1    0    0    0    0  0.00000000000E+00  0.00000000000E+00  0.52304293559E+03  0.52304293559E+03  0.00000000000E+00 0.  1.
         22   -1    0    0    0    0 -0.00000000000E+00 -0.00000000000E+00 -0.15170948289E+03  0.15170948289E+03  0.00000000000E+00 0.  1.
        -24    2    1    2    0    0  0.49196796676E+02 -0.19187871946E+02 -0.39756219460E+02  0.10569872927E+03  0.82481301821E+02 0.  0.
         25    2    1    2    0    0 -0.96635628575E+02  0.59172698965E+02  0.25885480421E+02  0.17075690457E+03  0.12509200354E+03 0.  0.
         24    2    1    2    0    0  0.47438831899E+02 -0.39984827019E+02  0.38520419174E+03  0.39829678464E+03  0.80055169434E+02 0.  0.
        -11    1    5    5    0    0  0.46780673388E+02 -0.13099271187E+02  0.35305738149E+03  0.35638397401E+03  0.00000000000E+00 0.  1.
         12    1    5    5    0    0  0.65815851069E+00 -0.26885555832E+02  0.32146810248E+02  0.41912810621E+02  0.00000000000E+00 0. -1.
         11    1    3    3    0    0  0.73418685032E+01 -0.24417824874E+02 -0.55180465149E+02  0.60786650992E+02  0.00000000000E+00 0. -1.
        -12    1    3    3    0    0  0.41854928173E+02  0.52299529283E+01  0.15424245689E+02  0.44912078276E+02  0.00000000000E+00 0.  1.
          5    1    4    4  501    0  0.75369509652E+01  0.63424032668E+02  0.39195293347E+01  0.64126817010E+02  0.41800000000E+01 0.  1.
         -5    1    4    4    0  501 -0.10417257954E+03 -0.42513337025E+01  0.21965951086E+02  0.10663008756E+03  0.41800000000E+01 0.  1.
</event>
<event>
11    1  0.8453735E-009  0.3569939E+03  0.7561462E-02  0.9785933E-01
         22   -1    0    0    0    0  0.00000000000E+00  0.00000000000E+00  0.33718011305E+03  0.33718011305E+03  0.00000000000E+00 0.  1.
         22   -1    0    0    0    0 -0.00000000000E+00 -0.00000000000E+00 -0.82059828254E+03  0.82059828254E+03  0.00000000000E+00 0. -1.
         24    2    1    2    0    0  0.11488442656E+03  0.90835260641E+02 -0.18136957156E+03  0.24228628687E+03  0.66017022609E+02 0.  0.
         25    2    1    2    0    0 -0.24546341681E+03  0.22465991858E+03 -0.41516422344E+03  0.54656565660E+03  0.12509323141E+03 0.  0.
        -24    2    1    2    0    0  0.13057899025E+03 -0.31549517922E+03  0.11311562551E+03  0.36892645212E+03  0.81996960477E+02 0.  0.
        -11    1    3    3    0    0  0.11618552638E+03  0.67113382852E+02 -0.13585689577E+03  0.19094601024E+03  0.00000000000E+00 0.  1.
         12    1    3    3    0    0 -0.13010998223E+01  0.23721877789E+02 -0.45512675787E+02  0.51340276625E+02  0.00000000000E+00 0. -1.
         11    1    5    5    0    0 -0.10903793310E+02 -0.21136093027E+02  0.16765190566E+01  0.23841934761E+02  0.00000000000E+00 0. -1.
        -12    1    5    5    0    0  0.14148278356E+03 -0.29435908620E+03  0.11143910646E+03  0.34508451735E+03  0.00000000000E+00 0.  1.
          5    1    4    4  501    0 -0.41166479199E+02  0.74284185529E+01 -0.95504658864E+01  0.43110836346E+02  0.41800000000E+01 0. -1.
         -5    1    4    4    0  501 -0.20429693761E+03  0.21723150003E+03 -0.40561375756E+03  0.50345482026E+03  0.41800000000E+01 0. -1.
</event>
<event>
11    1  0.8453735E-009  0.1543700E+03  0.7561462E-02  0.1092495E+00
         22   -1    0    0    0    0  0.00000000000E+00  0.00000000000E+00  0.33586871215E+03  0.33586871215E+03  0.00000000000E+00 0.  1.
         22   -1    0    0    0    0 -0.00000000000E+00 -0.00000000000E+00 -0.17018921133E+04  0.17018921133E+04  0.00000000000E+00 0. -1.
         24    2    1    2    0    0 -0.18651340172E+02 -0.21964670548E+02 -0.11509229953E+04  0.11538730622E+04  0.77259195233E+02 0.  0.
         25    2    1    2    0    0 -0.13087298844E+02  0.10636581147E+03 -0.52547662092E+03  0.55068781346E+03  0.12508567274E+03 0.  0.
        -24    2    1    2    0    0  0.31738639016E+02 -0.84401140922E+02  0.31037621509E+03  0.33319994981E+03  0.80980972227E+02 0.  0.
        -13    1    3    3    0    0  0.24821746796E+02 -0.51235846325E+01 -0.17377903622E+03  0.17561754942E+03  0.00000000000E+00 0.  1.
         14    1    3    3    0    0 -0.43473086968E+02 -0.16841085915E+02 -0.97714395912E+03  0.97825551279E+03  0.00000000000E+00 0. -1.
         11    1    5    5    0    0  0.11936601539E+02 -0.46281161385E+02  0.49493480316E+02  0.68804309089E+02  0.00000000000E+00 0. -1.
        -12    1    5    5    0    0  0.19802037477E+02 -0.38119979537E+02  0.26088273477E+03  0.26439564072E+03  0.00000000000E+00 0.  1.
          5    1    4    4  501    0 -0.44727876852E+02  0.10334452953E+03 -0.26115754433E+03  0.28443173190E+03  0.41800000000E+01 0.  1.
         -5    1    4    4    0  501  0.31640578008E+02  0.30212819415E+01 -0.26431907659E+03  0.26625608156E+03  0.41800000000E+01 0.  1.
</event>
<event>
11    1  0.8453735E-009  0.1328696E+03  0.7561462E-02  0.1115793E+00
         22   -1    0    0    0    0  0.00000000000E+00  0.00000000000E+00  0.55892126807E+03  0.55892126807E+03  0.00000000000E+00 0.  1.
         22   -1    0    0    0    0 -0.00000000000E+00 -0.00000000000E+00 -0.23170150391E+03  0.23170150391E+03  0.00000000000E+00 0. -1.
         24    2    1    2    0    0 -0.37432491936E+02 -0.25697825097E+02 -0.13235998526E+03  0.16153396950E+03  0.80699987213E+02 0.  0.
         25    2    1    2    0    0  0.37823635598E+02  0.20025768756E+02 -0.27743174100E+02  0.13508767614E+03  0.12508931894E+03 0.  0.
        -24    2    1    2    0    0 -0.39114366149E+00  0.56720563413E+01  0.48732292352E+03  0.49400112634E+03  0.80753673712E+02 0.  0.
        -11    1    3    3    0    0 -0.23795170141E+02 -0.32232978860E+02 -0.14346920101E+02  0.42555953339E+02  0.00000000000E+00 0.  1.
         12    1    3    3    0    0 -0.13637321795E+02  0.65351537622E+01 -0.11801306516E+03  0.11897801616E+03  0.00000000000E+00 0. -1.
         11    1    5    5    0    0 -0.12722502792E+02  0.12962220067E+02  0.22313269763E+02  0.28770874750E+02  0.00000000000E+00 0. -1.
        -12    1    5    5    0    0  0.12331359130E+02 -0.72901637255E+01  0.46500965376E+03  0.46523025159E+03  0.00000000000E+00 0.  1.
          5    1    4    4  501    0 -0.39608764905E+02  0.30371250288E+02  0.48830462883E+01  0.50324781593E+02  0.41800000000E+01 0.  1.
         -5    1    4    4    0  501  0.77432400503E+02 -0.10345481531E+02 -0.32626220388E+02  0.84762894551E+02  0.41800000000E+01 0.  1.
</event>
<event>
11    1  0.8453735E-009  0.1333882E+03  0.7561462E-02  0.1115175E+00
         22   -1    0    0    0    0  0.00000000000E+00  0.00000000000E+00  0.17869706755E+03  0.17869706755E+03  0.00000000000E+00 0. -1.
         22   -1    0    0    0    0 -0.00000000000E+00 -0.00000000000E+00 -0.43284989983E+03  0.43284989983E+03  0.00000000000E+00 0. -1.
         24    2    1    2    0    0 -0.12736362456E+02  0.27827110534E+02 -0.29947417368E+03  0.31180982589E+03  0.81265145136E+02 0.  0.
         25    2    1    2    0    0  0.40179258363E+02  0.11856046957E+02 -0.71049488379E+02  0.14983389364E+03  0.12508887733E+03 0.  0.
        -24    2    1    2    0    0 -0.27442895907E+02 -0.39683157492E+02  0.11637082978E+03  0.14990324784E+03  0.81246219401E+02 0.  0.
        -11    1    3    3    0    0 -0.11175444310E+02  0.26551399693E+02 -0.27493241050E+02  0.39821422433E+02  0.00000000000E+00 0.  1.
         12    1    3    3    0    0 -0.15609181464E+01  0.12757108419E+01 -0.27198093262E+03  0.27198840346E+03  0.00000000000E+00 0. -1.
         13    1    5    5    0    0 -0.81103101079E+01 -0.10714712271E+02  0.11422226996E+03  0.11501003932E+03  0.00000000000E+00 0. -1.
        -14    1    5    5    0    0 -0.19332585799E+02 -0.28968445220E+02  0.21485598199E+01  0.34893208529E+02  0.00000000000E+00 0.  1.
          5    1    4    4  501    0  0.18922069359E+00  0.53910156887E+02 -0.73913621205E+02  0.91580765556E+02  0.41800000000E+01 0. -1.
         -5    1    4    4    0  501  0.39990037669E+02 -0.42054109930E+02  0.28641328267E+01  0.58253128085E+02  0.41800000000E+01 0. -1.
</event>
<event>
11    1  0.8453735E-009  0.1467576E+03  0.7561462E-02  0.1100239E+00
         22   -1    0    0    0    0  0.00000000000E+00  0.00000000000E+00  0.17910231565E+03  0.17910231565E+03  0.00000000000E+00 0. -1.
         22   -1    0    0    0    0 -0.00000000000E+00 -0.00000000000E+00 -0.66358321360E+03  0.66358321360E+03  0.00000000000E+00 0.  1.
         24    2    1    2    0    0 -0.72307035204E+00  0.76533795004E+02 -0.50889342222E+03  0.52355301468E+03  0.96318738551E+02 0.  0.
         25    2    1    2    0    0  0.26715298733E+01 -0.77969367287E+02 -0.95374986840E+02  0.17557923026E+03  0.12508124830E+03 0.  0.
        -24    2    1    2    0    0 -0.19484595212E+01  0.14355722828E+01  0.11978751111E+03  0.14355328432E+03  0.79073638214E+02 0.  0.
        -13    1    3    3    0    0  0.41738230274E+02  0.67874060091E+02 -0.33273765556E+03  0.34214516704E+03  0.00000000000E+00 0.  1.
         14    1    3    3    0    0 -0.42461300626E+02  0.86597349134E+01 -0.17615576665E+03  0.18140784764E+03  0.00000000000E+00 0. -1.
         13    1    5    5    0    0  0.12085499108E+01 -0.30088822847E+02  0.10377276330E+03  0.10805361750E+03  0.00000000000E+00 0. -1.
        -14    1    5    5    0    0 -0.31570094320E+01  0.31524395130E+02  0.16014747809E+02  0.35499666819E+02  0.00000000000E+00 0.  1.
          5    1    4    4  501    0  0.53450213633E+01  0.30529637747E+02 -0.47528199710E+02  0.56894904887E+02  0.41800000000E+01 0.  1.
         -5    1    4    4    0  501 -0.26734914901E+01 -0.10849900503E+03 -0.47846787130E+02  0.11868432537E+03  0.41800000000E+01 0.  1.
</event>
<event>
11    1  0.8453735E-009  0.1585216E+03  0.7561462E-02  0.1088476E+00
         22   -1    0    0    0    0  0.00000000000E+00  0.00000000000E+00  0.16317322071E+04  0.16317322071E+04  0.00000000000E+00 0.  1.
         22   -1    0    0    0    0 -0.00000000000E+00 -0.00000000000E+00 -0.37777536582E+03  0.37777536582E+03  0.00000000000E+00 0. -1.
         24    2    1    2    0    0  0.57306197482E+02  0.78042574696E+02 -0.34764981650E+03  0.36978276413E+03  0.80648955382E+02 0.  0.
         25    2    1    2    0    0  0.49427295947E+02 -0.45201236152E+02  0.31163523021E+03  0.34242232628E+03  0.12510125297E+03 0.  0.
        -24    2    1    2    0    0 -0.10673349343E+03 -0.32841338544E+02  0.12899714275E+04  0.12973024825E+04  0.80603070794E+02 0.  0.
        -11    1    3    3    0    0  0.18911259076E+02 -0.15141526392E+02 -0.87533286438E+02  0.90823883290E+02  0.00000000000E+00 0.  1.
         12    1    3    3    0    0  0.38394938406E+02  0.93184101088E+02 -0.26011653006E+03  0.27895888084E+03  0.00000000000E+00 0. -1.
         11    1    5    5    0    0 -0.29907154219E+02 -0.50636856580E+02  0.53337116919E+03  0.53660351587E+03  0.00000000000E+00 0. -1.
        -12    1    5    5    0    0 -0.76826339209E+02  0.17795518035E+02  0.75660025833E+03  0.76069896659E+03  0.00000000000E+00 0.  1.
          5    1    4    4  501    0  0.67071489565E+02 -0.52451307142E+01  0.71315842803E+02  0.98130107222E+02  0.41800000000E+01 0. -1.
         -5    1    4    4    0  501 -0.17644193618E+02 -0.39956105438E+02  0.24031938741E+03  0.24429221906E+03  0.41800000000E+01 0. -1.
</event>
<event>
11    1  0.8453735E-009  0.4449182E+03  0.7561462E-02  0.9525796E-01
         22   -1    0    0    0    0  0.00000000000E+00  0.00000000000E+00  0.25272373975E+04  0.25272373975E+04  0.00000000000E+00 0. -1.
         22   -1    0    0    0    0 -0.00000000000E+00 -0.00000000000E+00 -0.54670743799E+03  0.54670743799E+03  0.00000000000E+00 0. -1.
         24    2    1    2    0    0  0.54145973193E+02 -0.87787325780E+01 -0.45026652290E+03  0.46018910801E+03  0.77622296624E+02 0.  0.
         25    2    1    2    0    0 -0.23657743590E+03  0.38424995572E+03  0.78595073570E+03  0.91486751374E+03  0.12508835717E+03 0.  0.
        -24    2    1    2    0    0  0.18243146271E+03 -0.37547122314E+03  0.16448457467E+04  0.16988882138E+04  0.80272998597E+02 0.  0.
        -11    1    3    3    0    0 -0.77527322016E+01  0.14492110178E+02 -0.25717125228E+02  0.30520429945E+02  0.00000000000E+00 0.  1.
         12    1    3    3    0    0  0.61898705395E+02 -0.23270842756E+02 -0.42454939767E+03  0.42966867807E+03  0.00000000000E+00 0. -1.
         11    1    5    5    0    0  0.16542340508E+03 -0.25954485421E+03  0.12109205632E+04  0.12494226845E+04  0.00000000000E+00 0. -1.
        -12    1    5    5    0    0  0.17008057624E+02 -0.11592636894E+03  0.43392518354E+03  0.44946552921E+03  0.00000000000E+00 0.  1.
          5    1    4    4  501    0  0.92474682245E+01  0.56834417470E+02  0.78038325238E+02  0.97072752530E+02  0.41800000000E+01 0. -1.
         -5    1    4    4    0  501 -0.24582490412E+03  0.32741553825E+03  0.70791241046E+03  0.81779476121E+03  0.41800000000E+01 0. -1.
</event>
<event>
11    1  0.8453735E-009  0.1974432E+04  0.7561462E-02  0.8077542E-01
         22   -1    0    0    0    0  0.00000000000E+00  0.00000000000E+00  0.90954607307E+03  0.90954607307E+03  0.00000000000E+00 0. -1.
         22   -1    0    0    0    0 -0.00000000000E+00 -0.00000000000E+00 -0.10715189457E+04  0.10715189457E+04  0.00000000000E+00 0. -1.
         24    2    1    2    0    0  0.73054315611E+03 -0.83237525137E+01 -0.22829027946E+03  0.76966945532E+03  0.80697155780E+02 0.  0.
         25    2    1    2    0    0 -0.91751804824E+03  0.17757165887E+03  0.34436652276E+02  0.94350764425E+03  0.12509887633E+03 0.  0.
        -24    2    1    2    0    0  0.18697489212E+03 -0.16924790635E+03  0.31880754595E+02  0.26788791916E+03  0.84516806769E+02 0.  0.
        -13    1    3    3    0    0  0.27029480348E+03  0.16156627620E+02 -0.49264856552E+02  0.27522235283E+03  0.00000000000E+00 0.  1.
         14    1    3    3    0    0  0.46024835263E+03 -0.24480380134E+02 -0.17902542291E+03  0.49444710249E+03  0.00000000000E+00 0. -1.
         11    1    5    5    0    0  0.66540961074E+02 -0.19178876601E+02  0.29976953882E+02  0.75459569124E+02  0.00000000000E+00 0. -1.
        -12    1    5    5    0    0  0.12043393105E+03 -0.15006902975E+03  0.19038007129E+01  0.19242835003E+03  0.00000000000E+00 0.  1.
          5    1    4    4  501    0 -0.50251248792E+03  0.15686898959E+03  0.39609306442E+02  0.52793280820E+03  0.41800000000E+01 0.  1.
         -5    1    4    4    0  501 -0.41500556031E+03  0.20702669276E+02 -0.51726541659E+01  0.41557483605E+03  0.41800000000E+01 0.  1.
</event>
<event>
11    1  0.8453735E-009  0.1688781E+03  0.7561462E-02  0.1079012E+00
         22   -1    0    0    0    0  0.00000000000E+00  0.00000000000E+00  0.11519825320E+03  0.11519825320E+03  0.00000000000E+00 0. -1.
         22   -1    0    0    0    0 -0.00000000000E+00 -0.00000000000E+00 -0.43610383717E+03  0.43610383717E+03  0.00000000000E+00 0. -1.
         24    2    1    2    0    0 -0.27055165091E+02  0.80042260481E+02 -0.14845925320E+03  0.18788981131E+03  0.78253983367E+02 0.  0.
         25    2    1    2    0    0 -0.63838494977E+02 -0.12480243282E+03 -0.80927622333E+02  0.20456461809E+03  0.12508557966E+03 0.  0.
        -24    2    1    2    0    0  0.90893660068E+02  0.44760172342E+02 -0.91518708443E+02  0.15884766097E+03  0.81189746468E+02 0.  0.
        -11    1    3    3    0    0  0.10122286979E+02  0.89913266711E+01  0.52493531258E+01  0.14521031548E+02  0.00000000000E+00 0.  1.
         12    1    3    3    0    0 -0.37177452070E+02  0.71050933810E+02 -0.15370860633E+03  0.17336877976E+03  0.00000000000E+00 0. -1.
         11    1    5    5    0    0  0.10519388021E+03  0.36268486727E+02 -0.87963381471E+02  0.14184044572E+03  0.00000000000E+00 0. -1.
        -12    1    5    5    0    0 -0.14300220139E+02  0.84916856150E+01 -0.35553269715E+01  0.17007215248E+02  0.00000000000E+00 0.  1.
          5    1    4    4  501    0 -0.10122602870E+03 -0.81560777019E+02 -0.49235015898E+02  0.13906986886E+03  0.41800000000E+01 0.  1.
         -5    1    4    4    0  501  0.37387533720E+02 -0.43241655804E+02 -0.31692606435E+02  0.65494749232E+02  0.41800000000E+01 0.  1.
</event>
<event>
11    1  0.8453735E-009  0.1290076E+03  0.7561462E-02  0.1120494E+00
         22   -1    0    0    0    0  0.00000000000E+00  0.00000000000E+00  0.58823856109E+03  0.58823856109E+03  0.00000000000E+00 0. -1.
         22   -1    0    0    0    0 -0.00000000000E+00 -0.00000000000E+00 -0.44264440283E+03  0.44264440283E+03  0.00000000000E+00 0.  1.
        -24    2    1    2    0    0  0.14604189631E+02 -0.14016303835E+02 -0.40672072082E+03  0.41507201690E+03  0.80332405319E+02 0.  0.
         25    2    1    2    0    0  0.51006332354E+01 -0.14003820567E+02  0.11709887467E+03  0.17199047550E+03  0.12508578562E+03 0.  0.
         24    2    1    2    0    0 -0.19704822866E+02  0.28020124402E+02  0.43521600440E+03  0.44382047152E+03  0.79938933172E+02 0.  0.
        -13    1    5    5    0    0 -0.26070540467E+00 -0.27573103511E+02  0.11753595573E+03  0.12072715061E+03  0.00000000000E+00 0.  1.
         14    1    5    5    0    0 -0.19444117462E+02  0.55593227913E+02  0.31768004867E+03  0.32309332091E+03  0.00000000000E+00 0. -1.
         11    1    3    3    0    0 -0.18160131232E+01  0.13042839560E+02 -0.86736410941E+01  0.15768500794E+02  0.00000000000E+00 0. -1.
        -12    1    3    3    0    0  0.16420202754E+02 -0.27059143395E+02 -0.39804707972E+03  0.39930351611E+03  0.00000000000E+00 0.  1.
          5    1    4    4  501    0  0.17601952545E+02 -0.48025337506E+02  0.21224503858E+01  0.51363790471E+02  0.41800000000E+01 0.  1.
         -5    1    4    4    0  501 -0.12501319310E+02  0.34021516939E+02  0.11497642429E+03  0.12062668503E+03  0.41800000000E+01 0.  1.
</event>
<event>
11    1  0.8453735E-009  0.1521688E+03  0.7561462E-02  0.1094683E+00
         22   -1    0    0    0    0  0.00000000000E+00  0.00000000000E+00  0.13190760198E+04  0.13190760198E+04  0.00000000000E+00 0.  1.
         22   -1    0    0    0    0 -0.00000000000E+00 -0.00000000000E+00 -0.77757564377E+03  0.77757564377E+03  0.00000000000E+00 0. -1.
         24    2    1    2    0    0 -0.12945086212E+02  0.70376056325E+02 -0.71226718290E+03  0.72013870206E+03  0.78452825381E+02 0.  0.
         25    2    1    2    0    0 -0.53436163897E+02 -0.97778067775E+01  0.22506561543E+02  0.13821952949E+03  0.12508822447E+03 0.  0.
        -24    2    1    2    0    0  0.66381250109E+02 -0.60598249547E+02  0.12312609974E+04  0.12382934321E+04  0.96376147849E+02 0.  0.
        -13    1    3    3    0    0  0.24731004605E+02  0.15690115786E+02 -0.97742468345E+02  0.10203623102E+03  0.00000000000E+00 0.  1.
         14    1    3    3    0    0 -0.37676090817E+02  0.54685940539E+02 -0.61452471456E+03  0.61810247105E+03  0.00000000000E+00 0. -1.
         11    1    5    5    0    0 -0.24868016582E+02 -0.96324262242E+01  0.20607636719E+03  0.20779478097E+03  0.00000000000E+00 0. -1.
        -12    1    5    5    0    0  0.91249266690E+02 -0.50965823323E+02  0.10251846302E+04  0.10304986511E+04  0.00000000000E+00 0.  1.
          5    1    4    4  501    0 -0.48164771152E+02 -0.22524724004E+02  0.70332691648E+02  0.88268727679E+02  0.41800000000E+01 0. -1.
         -5    1    4    4    0  501 -0.52713927445E+01  0.12746917226E+02 -0.47826130105E+02  0.49950801806E+02  0.41800000000E+01 0. -1.
</event>
<event>
11    1  0.8453735E-009  0.1422032E+03  0.7561462E-02  0.1105123E+00
         22   -1    0    0    0    0  0.00000000000E+00  0.00000000000E+00  0.16849072310E+04  0.16849072310E+04  0.00000000000E+00 0.  1.
         22   -1    0    0    0    0 -0.00000000000E+00 -0.00000000000E+00 -0.19356728312E+04  0.19356728312E+04  0.00000000000E+00 0.  1.
         24    2    1    2    0    0  0.55408574844E+02  0.38784517529E+02 -0.18913521910E+04  0.18941522047E+04  0.77621615801E+02 0.  0.
         25    2    1    2    0    0 -0.58137985503E+02 -0.34432336642E+02  0.79208450452E+02  0.16274943800E+03  0.12509112591E+03 0.  0.
        -24    2    1    2    0    0  0.27294106587E+01 -0.43521808874E+01  0.15613781403E+04  0.15636784195E+04  0.84629259298E+02 0.  0.
        -13    1    3    3    0    0  0.58381785386E+02  0.57519909385E+02 -0.13649390627E+04  0.13673973883E+04  0.00000000000E+00 0.  1.
         14    1    3    3    0    0 -0.29732105420E+01 -0.18735391855E+02 -0.52641312834E+03  0.52675481637E+03  0.00000000000E+00 0. -1.
         13    1    5    5    0    0  0.13251642725E+02 -0.11559317918E+02  0.67721093414E+02  0.69966923320E+02  0.00000000000E+00 0. -1.
        -14    1    5    5    0    0 -0.10522232066E+02  0.72071370309E+01  0.14936570469E+04  0.14937114962E+04  0.00000000000E+00 0.  1.
          5    1    4    4  501    0 -0.85422329866E+02  0.13547792482E+02  0.52800550659E+02  0.10141936536E+03  0.41800000000E+01 0.  1.
         -5    1    4    4    0  501  0.27284344363E+02 -0.47980129124E+02  0.26407899793E+02  0.61330072636E+02  0.41800000000E+01 0.  1.
</event>
<event>
11    1  0.8675440E-009  0.1998662E+03  0.7561462E-02  0.1054618E+00
         22   -1    0    0    0    0  0.00000000000E+00  0.00000000000E+00  0.32613485446E+03  0.32613485446E+03  0.00000000000E+00 0.  1.
         22   -1    0    0    0    0 -0.00000000000E+00 -0.00000000000E+00 -0.97110027504E+03  0.97110027504E+03  0.00000000000E+00 0.  1.
         24    2    1    2    0    0 -0.46738346418E+02 -0.35076197726E+02 -0.46335143869E+03  0.47401476991E+03  0.81121105066E+02 0.  0.
         25    2    1    2    0    0 -0.98081119662E+01  0.17945401343E+03 -0.45149678253E+03  0.50179269746E+03  0.12508646846E+03 0.  0.
        -24    2    1    2    0    0  0.56546458384E+02 -0.14437781570E+03  0.26988280064E+03  0.32142766214E+03  0.80228176382E+02 0.  0.
        -11    1    3    3    0    0 -0.26186128506E+02 -0.61136890210E+02 -0.32534354787E+03  0.33207206568E+03  0.00000000000E+00 0.  1.
         12    1    3    3    0    0 -0.20552217912E+02  0.26060692483E+02 -0.13800789082E+03  0.14194270422E+03  0.00000000000E+00 0. -1.
         13    1    5    5    0    0  0.36372512278E+02 -0.53314760672E+02  0.47072021178E+02  0.79882404400E+02  0.00000000000E+00 0. -1.
        -14    1    5    5    0    0  0.20173946106E+02 -0.91063055031E+02  0.22281077946E+03  0.24154525774E+03  0.00000000000E+00 0.  1.
          5    1    4    4  501    0 -0.53478471263E+02  0.38857108115E+02 -0.92602487826E+02  0.11385304076E+03  0.41800000000E+01 0. -1.
         -5    1    4    4    0  501  0.43670359296E+02  0.14059690531E+03 -0.35889429471E+03  0.38793965670E+03  0.41800000000E+01 0. -1.
</event>
<event>
11    1  0.8453735E-009  0.1413289E+03  0.7561462E-02  0.1106083E+00
         22   -1    0    0    0    0  0.00000000000E+00  0.00000000000E+00  0.50071203647E+03  0.50071203647E+03  0.00000000000E+00 0. -1.
         22   -1    0    0    0    0 -0.00000000000E+00 -0.00000000000E+00 -0.29741605783E+03  0.29741605783E+03  0.00000000000E+00 0.  1.
        -24    2    1    2    0    0  0.65744315153E+02  0.13424813188E+02 -0.22681074498E+03  0.25441402138E+03  0.93706134542E+02 0.  0.
         25    2    1    2    0    0 -0.36199511222E+02 -0.76318404208E+02  0.66582645140E+02  0.16498061079E+03  0.12510175805E+03 0.  0.
         24    2    1    2    0    0 -0.29544803931E+02  0.62893591020E+02  0.36352407848E+03  0.37873346214E+03  0.80378980295E+02 0.  0.
        -13    1    5    5    0    0 -0.34864246211E+02 -0.64327286384E+01  0.96532592452E+02  0.10283694408E+03  0.00000000000E+00 0.  1.
         14    1    5    5    0    0  0.53194422801E+01  0.69326319659E+02  0.26699148603E+03  0.27589651806E+03  0.00000000000E+00 0. -1.
         11    1    3    3    0    0 -0.10487892099E+02  0.34582515426E+02 -0.71786420128E+02  0.80369374569E+02  0.00000000000E+00 0. -1.
        -12    1    3    3    0    0  0.76232207252E+02 -0.21157702238E+02 -0.15502432486E+03  0.17404464681E+03  0.00000000000E+00 0.  1.
          5    1    4    4  501    0 -0.74584818279E+02 -0.12038933284E+02  0.28265463668E+02  0.80772766876E+02  0.41800000000E+01 0. -1.
         -5    1    4    4    0  501  0.38385307057E+02 -0.64279470924E+02  0.38317181472E+02  0.84207843911E+02  0.41800000000E+01 0. -1.
</event>
<event>
11    1  0.8453735E-009  0.1406714E+03  0.7561462E-02  0.1106811E+00
         22   -1    0    0    0    0  0.00000000000E+00  0.00000000000E+00  0.14617869033E+04  0.14617869033E+04  0.00000000000E+00 0.  1.
         22   -1    0    0    0    0 -0.00000000000E+00 -0.00000000000E+00 -0.19534224440E+03  0.19534224440E+03  0.00000000000E+00 0. -1.
         24    2    1    2    0    0 -0.77074288816E+01 -0.55032041624E+00 -0.13173356828E+03  0.15501011875E+03  0.81330784995E+02 0.  0.
         25    2    1    2    0    0 -0.26283479148E+02 -0.54285168793E+02  0.46278040547E+02  0.14637962248E+03  0.12509051129E+03 0.  0.
        -24    2    1    2    0    0  0.33990908030E+02  0.54835489209E+02  0.13519001866E+04  0.13557394065E+04  0.78948786887E+02 0.  0.
        -11    1    3    3    0    0 -0.75568575494E+01 -0.35578784277E+02 -0.29153623894E+02  0.46614265765E+02  0.00000000000E+00 0.  1.
         12    1    3    3    0    0 -0.15057133218E+00  0.35028463861E+02 -0.10257994439E+03  0.10839585298E+03  0.00000000000E+00 0. -1.
         11    1    5    5    0    0  0.12557810852E+02  0.30464652966E+02  0.15806319446E+03  0.16146134874E+03  0.00000000000E+00 0. -1.
        -12    1    5    5    0    0  0.21433097178E+02  0.24370836243E+02  0.11938369922E+04  0.11942780577E+04  0.00000000000E+00 0.  1.
          5    1    4    4  501    0 -0.22568372278E+02 -0.93446053221E+02  0.46387716659E+02  0.10682129444E+03  0.41800000000E+01 0.  1.
         -5    1    4    4    0  501 -0.37151068703E+01  0.39160884429E+02 -0.10967611176E+00  0.39558328038E+02  0.41800000000E+01 0.  1.
</event>
<event>
11    1  0.8453735E-009  0.1563434E+03  0.7561462E-02  0.1090568E+00
         22   -1    0    0    0    0  0.00000000000E+00  0.00000000000E+00  0.55951664132E+03  0.55951664132E+03  0.00000000000E+00 0. -1.
         22   -1    0    0    0    0 -0.00000000000E+00 -0.00000000000E+00 -0.32012623537E+03  0.32012623537E+03  0.00000000000E+00 0. -1.
         24    2    1    2    0    0  0.54752066056E+02 -0.71360489015E+02 -0.25160052714E+03  0.28050234000E+03  0.85373469869E+02 0.  0.
         25    2    1    2    0    0 -0.13940822882E+03  0.10602218153E+03  0.24966472503E+03  0.32964603371E+03  0.12513462903E+03 0.  0.
        -24    2    1    2    0    0  0.84656162762E+02 -0.34661692510E+02  0.24132620805E+03  0.26949450298E+03  0.77594133923E+02 0.  0.
        -13    1    3    3    0    0  0.59169103396E+01  0.49777244536E+01  0.44269697589E+01  0.89098613878E+01  0.00000000000E+00 0.  1.
         14    1    3    3    0    0  0.48835155716E+02 -0.76338213469E+02 -0.25602749690E+03  0.27159247861E+03  0.00000000000E+00 0. -1.
         11    1    5    5    0    0  0.81866520842E+02  0.27551950664E+01  0.17677100368E+03  0.19482737507E+03  0.00000000000E+00 0. -1.
        -12    1    5    5    0    0  0.27896419202E+01 -0.37416887577E+02  0.64555204374E+02  0.74667127906E+02  0.00000000000E+00 0.  1.
          5    1    4    4  501    0 -0.40521855798E+02  0.32151258122E+02  0.89190895615E+00  0.51903680965E+02  0.41800000000E+01 0. -1.
         -5    1    4    4    0  501 -0.98886373021E+02  0.73870923403E+02  0.24877281607E+03  0.27774235275E+03  0.41800000000E+01 0. -1.
</event>
<event>
11    1  0.8453735E-009  0.1343436E+03  0.7561462E-02  0.1114044E+00
         22   -1    0    0    0    0  0.00000000000E+00  0.00000000000E+00  0.28188680690E+03  0.28188680690E+03  0.00000000000E+00 0.  1.
         22   -1    0    0    0    0 -0.00000000000E+00 -0.00000000000E+00 -0.11221989010E+04  0.11221989010E+04  0.00000000000E+00 0.  1.
        -24    2    1    2    0    0  0.50665642788E+02 -0.69316327582E+00 -0.10183766383E+04  0.10228873342E+04  0.81486399077E+02 0.  0.
         25    2    1    2    0    0 -0.15727664548E+02  0.23521096641E+02 -0.49038893685E+02  0.13730474574E+03  0.12508868330E+03 0.  0.
         24    2    1    2    0    0 -0.34937978240E+02 -0.22827933365E+02  0.22710343790E+03  0.24389362793E+03  0.78526131776E+02 0.  0.
        -11    1    5    5    0    0  0.15473847028E+02  0.13490660120E+01  0.13683158689E+03  0.13771035942E+03  0.00000000000E+00 0.  1.
         12    1    5    5    0    0 -0.50411825268E+02 -0.24176999377E+02  0.90271851015E+02  0.10618326851E+03  0.00000000000E+00 0. -1.
         11    1    3    3    0    0  0.19461906884E+02 -0.34077398110E+02 -0.24148265084E+03  0.24465057845E+03  0.00000000000E+00 0. -1.
        -12    1    3    3    0    0  0.31203735904E+02  0.33384234834E+02 -0.77689398747E+03  0.77823675578E+03  0.00000000000E+00 0.  1.
          5    1    4    4  501    0 -0.67857709018E+02  0.29023561797E+02 -0.39658403162E+02  0.83888599666E+02  0.41800000000E+01 0. -1.
         -5    1    4    4    0  501  0.52130044470E+02 -0.55024651562E+01 -0.93804905232E+01  0.53416146077E+02  0.41800000000E+01 0. -1.
</event>
<event>
11    1  0.8453735E-009  0.1332419E+03  0.7561462E-02  0.1115349E+00
         22   -1    0    0    0    0  0.00000000000E+00  0.00000000000E+00  0.11578686701E+04  0.11578686701E+04  0.00000000000E+00 0. -1.
         22   -1    0    0    0    0 -0.00000000000E+00 -0.00000000000E+00 -0.39018665833E+03  0.39018665833E+03  0.00000000000E+00 0. -1.
         24    2    1    2    0    0  0.95796628688E+01 -0.44992728502E+02 -0.37396037861E+03  0.38496887178E+03  0.78984504243E+02 0.  0.
         25    2    1    2    0    0 -0.67196357996E+01  0.34686102949E+02  0.50939020398E+03  0.52571309520E+03  0.12509036456E+03 0.  0.
        -24    2    1    2    0    0 -0.28600270692E+01  0.10306625553E+02  0.63225218640E+03  0.63737336144E+03  0.79922264670E+02 0.  0.
        -11    1    3    3    0    0 -0.12207742146E+01  0.14688192932E+02 -0.20362850888E+03  0.20416121799E+03  0.00000000000E+00 0.  1.
         12    1    3    3    0    0  0.10800437083E+02 -0.59680921433E+02 -0.17033186973E+03  0.18080765379E+03  0.00000000000E+00 0. -1.
         11    1    5    5    0    0 -0.21878598644E+02 -0.21218605427E+02  0.47040284742E+03  0.47138916105E+03  0.00000000000E+00 0. -1.
        -12    1    5    5    0    0  0.19018571575E+02  0.31525230980E+02  0.16184933897E+03  0.16598420039E+03  0.00000000000E+00 0.  1.
          5    1    4    4  501    0 -0.25531868368E+02 -0.28469356988E+02  0.36404900413E+03  0.36607585334E+03  0.41800000000E+01 0.  1.
         -5    1    4    4    0  501  0.18812232569E+02  0.63155459936E+02  0.14534119985E+03  0.15963724186E+03  0.41800000000E+01 0.  1.
</event>
<event>
11    1  0.8453735E-009  0.1444559E+03  0.7561462E-02  0.1102682E+00
         22   -1    0    0    0    0  0.00000000000E+00  0.00000000000E+00  0.14032940243E+04  0.14032940243E+04  0.00000000000E+00 0.  1.
         22   -1    0    0    0    0 -0.00000000000E+00 -0.00000000000E+00 -0.95431133491E+03  0.95431133491E+03  0.00000000000E+00 0. -1.
         24    2    1    2    0    0  0.29417204421E+02 -0.64025592645E+01 -0.90521373933E+03  0.90925704264E+03  0.80187848413E+02 0.  0.
         25    2    1    2    0    0 -0.14104641197E+02  0.76992857271E+02  0.76345497674E+02  0.16614284060E+03  0.12509183624E+03 0.  0.
        -24    2    1    2    0    0 -0.15312563224E+02 -0.70590298007E+02  0.12778509311E+04  0.12822054760E+04  0.77009193296E+02 0.  0.
        -13    1    3    3    0    0 -0.34355659030E+01 -0.97465043280E+01 -0.13843968371E+02  0.17275789995E+02  0.00000000000E+00 0.  1.
         14    1    3    3    0    0  0.32852770324E+02  0.33439450635E+01 -0.89136977096E+03  0.89198125264E+03  0.00000000000E+00 0. -1.
         13    1    5    5    0    0 -0.29601796622E+02  0.29973467822E+01  0.44174406550E+03  0.44274492640E+03  0.00000000000E+00 0. -1.
        -14    1    5    5    0    0  0.14289233398E+02 -0.73587644789E+02  0.83610686559E+03  0.83946054961E+03  0.00000000000E+00 0.  1.
          5    1    4    4  501    0 -0.47127611319E+02  0.87357523898E+02  0.22284689753E+02  0.10181565954E+03  0.41800000000E+01 0.  1.
         -5    1    4    4    0  501  0.33022970122E+02 -0.10364666627E+02  0.54060807921E+02  0.64327181060E+02  0.41800000000E+01 0.  1.
</event>
<event>
11    1  0.8453735E-009  0.2144645E+03  0.7561462E-02  0.1044742E+00
         22   -1    0    0    0    0  0.00000000000E+00  0.00000000000E+00  0.18483036410E+04  0.18483036410E+04  0.00000000000E+00 0. -1.
         22   -1    0    0    0    0 -0.00000000000E+00 -0.00000000000E+00 -0.17748522373E+03  0.17748522373E+03  0.00000000000E+00 0.  1.
         24    2    1    2    0    0 -0.22008360817E+02 -0.17265359988E+03 -0.67553505898E+02  0.20306340364E+03  0.79860104175E+02 0.  0.
         25    2    1    2    0    0  0.64853746131E+02  0.16699748261E+03  0.25146147326E+03  0.33312897412E+03  0.12509145965E+03 0.  0.
        -24    2    1    2    0    0 -0.42845385314E+02  0.56561172695E+01  0.14869104499E+04  0.14895964869E+04  0.78277003552E+02 0.  0.
        -11    1    3    3    0    0 -0.28172828082E+02 -0.11915922037E+03 -0.81932739612E+02  0.14732821136E+03  0.00000000000E+00 0.  1.
         12    1    3    3    0    0  0.61644672644E+01 -0.53494379514E+02  0.14379233715E+02  0.55735192280E+02  0.00000000000E+00 0. -1.
         11    1    5    5    0    0  0.31652722808E+01  0.40759826065E+01  0.10919117545E+04  0.10919239498E+04  0.00000000000E+00 0. -1.
        -12    1    5    5    0    0 -0.46010657595E+02  0.15801346630E+01  0.39499869538E+03  0.39767253713E+03  0.00000000000E+00 0.  1.
          5    1    4    4  501    0  0.90966005140E+02  0.10234277050E+03  0.21338000473E+03  0.25356923233E+03  0.41800000000E+01 0. -1.
         -5    1    4    4    0  501 -0.26112259009E+02  0.64654712112E+02  0.38081468532E+02  0.79559741794E+02  0.41800000000E+01 0. -1.
</event>
<event>
11    1  0.8453735E-009  0.1542797E+03  0.7561462E-02  0.1092584E+00
         22   -1    0    0    0    0  0.00000000000E+00  0.00000000000E+00  0.14252742326E+03  0.14252742326E+03  0.00000000000E+00 0.  1.
         22   -1    0    0    0    0 -0.00000000000E+00 -0.00000000000E+00 -0.77733573272E+03  0.77733573272E+03  0.00000000000E+00 0. -1.
        -24    2    1    2    0    0  0.99929310600E+02 -0.97166644050E+01 -0.57084622249E+03  0.58505359605E+03  0.79636799490E+02 0.  0.
         25    2    1    2    0    0 -0.48935964517E+02  0.33491045345E+02 -0.15537776574E+03  0.20809463804E+03  0.12507897326E+03 0.  0.
         24    2    1    2    0    0 -0.50993346083E+02 -0.23774380940E+02  0.91415678783E+02  0.12671492189E+03  0.67337230188E+02 0.  0.
        -11    1    5    5    0    0 -0.19129767873E+02 -0.28596168233E+02  0.87783123664E+02  0.94284493193E+02  0.00000000000E+00 0.  1.
         12    1    5    5    0    0 -0.31863578210E+02  0.48217872929E+01  0.36325551196E+01  0.32430428701E+02  0.00000000000E+00 0. -1.
         13    1    3    3    0    0  0.77394501098E+02 -0.37667735666E+02 -0.47431218196E+03  0.48205893111E+03  0.00000000000E+00 0. -1.
        -14    1    3    3    0    0  0.22534809502E+02  0.27951071261E+02 -0.96534040536E+02  0.10299466494E+03  0.00000000000E+00 0.  1.
          5    1    4    4  501    0 -0.41862197158E+02  0.78790492019E+02 -0.12212808109E+03  0.15130474472E+03  0.41800000000E+01 0. -1.
         -5    1    4    4    0  501 -0.70737673591E+01 -0.45299446674E+02 -0.33249684653E+02  0.56789893319E+02  0.41800000000E+01 0. -1.
</event>
<event>
11    1  0.8453735E-009  0.1672782E+03  0.7561462E-02  0.1080425E+00
         22   -1    0    0    0    0  0.00000000000E+00  0.00000000000E+00  0.10349149180E+03  0.10349149180E+03  0.00000000000E+00 0. -1.
         22   -1    0    0    0    0 -0.00000000000E+00 -0.00000000000E+00 -0.72275752847E+03  0.72275752847E+03  0.00000000000E+00 0. -1.
         24    2    1    2    0    0  0.88163483622E-01  0.46530813314E+02 -0.46358940565E+03  0.47217067903E+03  0.76582561635E+02 0.  0.
         25    2    1    2    0    0 -0.10893404306E+03 -0.91404618961E+01 -0.12967998511E+03  0.21074668588E+03  0.12508834194E+03 0.  0.
        -24    2    1    2    0    0  0.10884587957E+03 -0.37390351417E+02 -0.25996645914E+02  0.14333165536E+03  0.81379812914E+02 0.  0.
        -11    1    3    3    0    0  0.22794355518E+02  0.47208042877E+02 -0.17486372798E+03  0.18255274667E+03  0.00000000000E+00 0.  1.
         12    1    3    3    0    0 -0.22706192034E+02 -0.67722956313E+00 -0.28872567767E+03  0.28961793236E+03  0.00000000000E+00 0. -1.
         11    1    5    5    0    0  0.74973157462E+00 -0.31224088991E+02  0.26172933219E+01  0.31342559804E+02  0.00000000000E+00 0. -1.
        -12    1    5    5    0    0  0.10809614800E+03 -0.61662624264E+01 -0.28613939236E+02  0.11198909555E+03  0.00000000000E+00 0.  1.
          5    1    4    4  501    0 -0.28631901498E+02 -0.74391763208E+01 -0.12679371702E+03  0.13026605929E+03  0.41800000000E+01 0. -1.
         -5    1    4    4    0  501 -0.80302141559E+02 -0.17012855752E+01 -0.28862680879E+01  0.80480626583E+02  0.41800000000E+01 0. -1.
</event>
<event>
11    1  0.8453735E-009  0.1278453E+03  0.7561462E-02  0.1121945E+00
         22   -1    0    0    0    0  0.00000000000E+00  0.00000000000E+00  0.11070823799E+04  0.11070823799E+04  0.00000000000E+00 0. -1.
         22   -1    0    0    0    0 -0.00000000000E+00 -0.00000000000E+00 -0.83304033618E+02  0.83304033618E+02  0.00000000000E+00 0.  1.
         24    2    1    2    0    0  0.20325281206E+01  0.11978950093E+02 -0.35909736424E+02  0.90776717038E+02  0.82481978457E+02 0.  0.
         25    2    1    2    0    0  0.29466357189E+01 -0.36625512143E+02  0.22075840002E+03  0.25638548410E+03  0.12509650065E+03 0.  0.
        -24    2    1    2    0    0 -0.49791638395E+01  0.24646562050E+02  0.83892968264E+03  0.84322421233E+03  0.81189991733E+02 0.  0.
        -13    1    3    3    0    0  0.20395181935E+01  0.55130401057E+01 -0.62823114671E+02  0.63097519624E+02  0.00000000000E+00 0.  1.
         14    1    3    3    0    0 -0.69900728847E-02  0.64659099869E+01  0.26913378247E+02  0.27679197414E+02  0.00000000000E+00 0. -1.
         13    1    5    5    0    0  0.27806333418E+02 -0.12272318831E+02  0.47342275665E+03  0.47439741621E+03  0.00000000000E+00 0. -1.
        -14    1    5    5    0    0 -0.32785497258E+02  0.36918880881E+02  0.36550692599E+03  0.36882679612E+03  0.00000000000E+00 0.  1.
          5    1    4    4  501    0  0.14896066057E+02  0.44645578364E+02  0.95268357693E+02  0.10634214982E+03  0.41800000000E+01 0. -1.
         -5    1    4    4    0  501 -0.11949430338E+02 -0.81271090507E+02  0.12549004233E+03  0.15004333428E+03  0.41800000000E+01 0. -1.
</event>
<event>
11    1  0.8453735E-009  0.1272434E+03  0.7561462E-02  0.1122703E+00
         22   -1    0    0    0    0  0.00000000000E+00  0.00000000000E+00  0.72300912925E+03  0.72300912925E+03  0.00000000000E+00 0. -1.
         22   -1    0    0    0    0 -0.00000000000E+00 -0.00000000000E+00 -0.10913359535E+04  0.10913359535E+04  0.00000000000E+00 0. -1.
        -24    2    1    2    0    0 -0.11098041476E+02  0.21401704268E+02 -0.98707219001E+03  0.99078940020E+03  0.82285647596E+02 0.  0.
         25    2    1    2    0    0 -0.93005282742E+01 -0.11731834612E+02 -0.59954097572E+02  0.13952055700E+03  0.12508939300E+03 0.  0.
         24    2    1    2    0    0  0.20398569750E+02 -0.96698696562E+01  0.67869946329E+03  0.68403512558E+03  0.82228240492E+02 0.  0.
        -13    1    5    5    0    0 -0.12108291647E+01 -0.29247746994E+02  0.90566619444E+02  0.95179879014E+02  0.00000000000E+00 0.  1.
         14    1    5    5    0    0  0.21609398915E+02  0.19577877338E+02  0.58813284384E+03  0.58885524657E+03  0.00000000000E+00 0. -1.
         11    1    3    3    0    0  0.35271615477E+02  0.30819597602E+01 -0.46248078682E+03  0.46383409050E+03  0.00000000000E+00 0. -1.
        -12    1    3    3    0    0 -0.46369656953E+02  0.18319744508E+02 -0.52459140318E+03  0.52695530970E+03  0.00000000000E+00 0.  1.
          5    1    4    4  501    0 -0.23074262546E+02 -0.17416232284E+02  0.33699563257E+02  0.44596857544E+02  0.41800000000E+01 0. -1.
         -5    1    4    4    0  501  0.13773734272E+02  0.56843976720E+01 -0.93653660829E+02  0.94923699461E+02  0.41800000000E+01 0. -1.
</event>
<event>
11    1  0.8453735E-009  0.2686185E+03  0.7561462E-02  0.1014423E+00
         22   -1    0    0    0    0  0.00000000000E+00  0.00000000000E+00  0.12195703096E+04  0.12195703096E+04  0.00000000000E+00 0.  1.
         22   -1    0    0    0    0 -0.00000000000E+00 -0.00000000000E+00 -0.69164512765E+03  0.69164512765E+03  0.00000000000E+00 0. -1.
         24    2    1    2    0    0 -0.10879982784E+03  0.93588125013E+01 -0.62149015450E+03  0.63614194981E+03  0.80632364856E+02 0.  0.
         25    2    1    2    0    0  0.10187185575E+03 -0.24193741469E+03  0.46994089490E+03  0.55263360300E+03  0.12509143393E+03 0.  0.
        -24    2    1    2    0    0  0.69279720897E+01  0.23257860219E+03  0.67947444152E+03  0.72243988442E+03  0.78058099662E+02 0.  0.
        -13    1    3    3    0    0  0.42150688040E+01 -0.16872120978E+02 -0.12920752151E+03  0.13037261555E+03  0.00000000000E+00 0.  1.
         14    1    3    3    0    0 -0.11301489665E+03  0.26230933480E+02 -0.49228263299E+03  0.50576933427E+03  0.00000000000E+00 0. -1.
         13    1    5    5    0    0  0.16468018162E+01 -0.51368222854E+01  0.52935944919E+01  0.75578463902E+01  0.00000000000E+00 0. -1.
        -14    1    5    5    0    0  0.52811702735E+01  0.23771542447E+03  0.67418084703E+03  0.71488203803E+03  0.00000000000E+00 0.  1.
          5    1    4    4  501    0  0.86632950958E+02 -0.62081136224E+02  0.21780725022E+03  0.24252176463E+03  0.41800000000E+01 0.  1.
         -5    1    4    4    0  501  0.15238904794E+02 -0.17985627846E+03  0.25213364468E+03  0.31011183838E+03  0.41800000000E+01 0.  1.
</event>
<event>
11    1  0.8453735E-009  0.4908552E+03  0.7561462E-02  0.9414191E-01
         22   -1    0    0    0    0  0.00000000000E+00  0.00000000000E+00  0.19758681319E+03  0.19758681319E+03  0.00000000000E+00 0.  1.
         22   -1    0    0    0    0 -0.00000000000E+00 -0.00000000000E+00 -0.26498858902E+04  0.26498858902E+04  0.00000000000E+00 0.  1.
         24    2    1    2    0    0 -0.17289281016E+03  0.48265775249E+03 -0.15553226299E+04  0.16395783747E+04  0.79613652043E+02 0.  0.
         25    2    1    2    0    0  0.37663215131E+03 -0.26828633494E+03 -0.67926631788E+03  0.83119166272E+03  0.12509002618E+03 0.  0.
        -24    2    1    2    0    0 -0.20373934115E+03 -0.21437141755E+03 -0.21771012922E+03  0.37670266605E+03  0.83918856325E+02 0.  0.
        -13    1    3    3    0    0 -0.15582099567E+03  0.46296286214E+03 -0.14173382819E+04  0.14991539614E+04  0.00000000000E+00 0.  1.
         14    1    3    3    0    0 -0.17071814494E+02  0.19694890347E+02 -0.13798434801E+03  0.14042441330E+03  0.00000000000E+00 0. -1.
         11    1    5    5    0    0 -0.24221665323E+01 -0.53584559854E+01 -0.31172955222E+02  0.31722753326E+02  0.00000000000E+00 0. -1.
        -12    1    5    5    0    0 -0.20131717461E+03 -0.20901296157E+03 -0.18653717400E+03  0.34497991272E+03  0.00000000000E+00 0.  1.
          5    1    4    4  501    0  0.28336119266E+02 -0.79183249925E+01 -0.11507283422E+03  0.11884807571E+03  0.41800000000E+01 0.  1.
         -5    1    4    4    0  501  0.34829603204E+03 -0.26036800994E+03 -0.56419348366E+03  0.71234358701E+03  0.41800000000E+01 0.  1.
</event>
<event>
11    1  0.8453735E-009  0.1385941E+03  0.7561462E-02  0.1109138E+00
         22   -1    0    0    0    0  0.00000000000E+00  0.00000000000E+00  0.69636283504E+02  0.69636283504E+02  0.00000000000E+00 0. -1.
         22   -1    0    0    0    0 -0.00000000000E+00 -0.00000000000E+00 -0.74367609785E+03  0.74367609785E+03  0.00000000000E+00 0.  1.
         24    2    1    2    0    0 -0.66179624332E+01 -0.32195507438E+02 -0.40237388136E+03  0.41178464168E+03  0.81126460501E+02 0.  0.
         25    2    1    2    0    0 -0.50846227320E+02  0.75308815157E+01 -0.26600036088E+03  0.29840818415E+03  0.12509676004E+03 0.  0.
        -24    2    1    2    0    0  0.57464189753E+02  0.24664625922E+02 -0.56655721125E+01  0.10311955553E+03  0.81798943453E+02 0.  0.
        -11    1    3    3    0    0  0.29884210841E+02 -0.26635726921E+02 -0.30551893008E+03  0.30813040201E+03  0.00000000000E+00 0.  1.
         12    1    3    3    0    0 -0.36502173274E+02 -0.55597805170E+01 -0.96854951286E+02  0.10365423967E+03  0.00000000000E+00 0. -1.
         13    1    5    5    0    0  0.43580891383E+02  0.43830164280E+02  0.22997731630E+02  0.65949018603E+02  0.00000000000E+00 0. -1.
        -14    1    5    5    0    0  0.13883298370E+02 -0.19165538358E+02 -0.28663303742E+02  0.37170536929E+02  0.00000000000E+00 0.  1.
          5    1    4    4  501    0 -0.90851032049E+02  0.15311758892E+02 -0.20659203302E+03  0.22624345403E+03  0.41800000000E+01 0.  1.
         -5    1    4    4    0  501  0.40004804729E+02 -0.77808773760E+01 -0.59408327853E+02  0.72164730114E+02  0.41800000000E+01 0.  1.
</event>
<event>
11    1  0.8453735E-009  0.1328104E+03  0.7561462E-02  0.1115863E+00
         22   -1    0    0    0    0  0.00000000000E+00  0.00000000000E+00  0.57013307333E+03  0.57013307333E+03  0.00000000000E+00 0. -1.
         22   -1    0    0    0    0 -0.00000000000E+00 -0.00000000000E+00 -0.17381875788E+04  0.17381875788E+04  0.00000000000E+00 0. -1.
         24    2    1    2    0    0 -0.17814705001E+02 -0.61068941288E+01 -0.16769521134E+04  0.16789891579E+04  0.80508036384E+02 0.  0.
         25    2    1    2    0    0  0.58478941966E+02  0.20885396687E+02  0.31332901985E+02  0.14312807529E+03  0.12509160141E+03 0.  0.
        -24    2    1    2    0    0 -0.40664236965E+02 -0.14778502558E+02  0.47756470595E+03  0.48620341891E+03  0.80335122379E+02 0.  0.
        -11    1    3    3    0    0  0.15980652149E+02 -0.43989204055E+01 -0.81006622442E+02  0.82684972173E+02  0.00000000000E+00 0.  1.
         12    1    3    3    0    0 -0.33795357149E+02 -0.17079737233E+01 -0.15959454909E+04  0.15963041857E+04  0.00000000000E+00 0. -1.
         11    1    5    5    0    0 -0.44055854782E+02  0.17632250878E+02  0.38806451171E+03  0.39095508675E+03  0.00000000000E+00 0. -1.
        -12    1    5    5    0    0  0.33916178175E+01 -0.32410753436E+02  0.89500194245E+02  0.95248332162E+02  0.00000000000E+00 0.  1.
          5    1    4    4  501    0  0.35853144228E+01 -0.14808260290E+02  0.66731923010E+02  0.68576679717E+02  0.41800000000E+01 0.  1.
         -5    1    4    4    0  501  0.54893627543E+02  0.35693656976E+02 -0.35399021025E+02  0.74551395578E+02  0.41800000000E+01 0.  1.
</event>
<event>
11    1  0.8453735E-009  0.1629797E+03  0.7561462E-02  0.1084308E+00
         22   -1    0    0    0    0  0.00000000000E+00  0.00000000000E+00  0.56434173237E+03  0.56434173237E+03  0.00000000000E+00 0. -1.
         22   -1    0    0    0    0 -0.00000000000E+00 -0.00000000000E+00 -0.43448703013E+03  0.43448703013E+03  0.00000000000E+00 0. -1.
        -24    2    1    2    0    0 -0.34432194065E+02  0.72456896580E+02 -0.37980920082E+03  0.39686199062E+03  0.82515651371E+02 0.  0.
         25    2    1    2    0    0 -0.71600813486E+02 -0.22374160402E+00  0.14587169954E+03  0.20506741546E+03  0.12508943043E+03 0.  0.
         24    2    1    2    0    0  0.10603300755E+03 -0.72233154976E+02  0.36379220353E+03  0.39689935642E+03  0.93400773067E+02 0.  0.
        -13    1    5    5    0    0  0.45943572886E+02 -0.64137378290E+02  0.10638114004E+03  0.13244380748E+03  0.00000000000E+00 0.  1.
         14    1    5    5    0    0  0.60089434665E+02 -0.80957766863E+01  0.25741106349E+03  0.26445554894E+03  0.00000000000E+00 0. -1.
         11    1    3    3    0    0 -0.15024731423E+02  0.88165377414E+02 -0.27781749466E+03  0.29185859019E+03  0.00000000000E+00 0. -1.
        -12    1    3    3    0    0 -0.19407462642E+02 -0.15708480833E+02 -0.10199170616E+03  0.10500340043E+03  0.00000000000E+00 0.  1.
          5    1    4    4  501    0 -0.25815357260E+02  0.46988504794E+02  0.10903079744E+02  0.54869862412E+02  0.41800000000E+01 0. -1.
         -5    1    4    4    0  501 -0.45785456226E+02 -0.47212246398E+02  0.13496861980E+03  0.15019755305E+03  0.41800000000E+01 0. -1.
</event>
<event>
11    1  0.8453735E-009  0.1313297E+03  0.7561462E-02  0.1117646E+00
         22   -1    0    0    0    0  0.00000000000E+00  0.00000000000E+00  0.57176459907E+03  0.57176459907E+03  0.00000000000E+00 0. -1.
         22   -1    0    0    0    0 -0.00000000000E+00 -0.00000000000E+00 -0.13156489556E+04  0.13156489556E+04  0.00000000000E+00 0. -1.
        -24    2    1    2    0    0 -0.25757089062E+01 -0.13107849587E+02 -0.12632780145E+04  0.12657031451E+04  0.77166441200E+02 0.  0.
         25    2    1    2    0    0 -0.37633321169E+02  0.10576027818E+02  0.44970817795E+02  0.13855268940E+03  0.12508538708E+03 0.  0.
         24    2    1    2    0    0  0.40209030075E+02  0.25318217688E+01  0.47442284014E+03  0.48315772018E+03  0.82104659413E+02 0.  0.
        -13    1    5    5    0    0  0.19284107118E+02  0.23691339816E+02  0.56949526975E+02  0.64625111159E+02  0.00000000000E+00 0.  1.
         14    1    5    5    0    0  0.20924922957E+02 -0.21159518048E+02  0.41747331317E+03  0.41853260902E+03  0.00000000000E+00 0. -1.
         13    1    3    3    0    0 -0.45282348294E+01 -0.26005810500E+01 -0.12408296821E+04  0.12408406699E+04  0.00000000000E+00 0. -1.
        -14    1    3    3    0    0  0.19525259231E+01 -0.10507268537E+02 -0.22448332363E+02  0.24862475248E+02  0.00000000000E+00 0.  1.
          5    1    4    4  501    0 -0.24172159923E+02 -0.53947248901E+02  0.11153184283E+01  0.59273225950E+02  0.41800000000E+01 0. -1.
         -5    1    4    4    0  501 -0.13461161245E+02  0.64523276719E+02  0.43855499367E+02  0.79279463453E+02  0.41800000000E+01 0. -1.
</event>
<event>
11    1  0.9722488E-009  0.1469350E+03  0.7561462E-02  0.1100052E+00
         22   -1    0    0    0    0  0.00000000000E+00  0.00000000000E+00  0.56552992181E+03  0.56552992181E+03  0.00000000000E+00 0. -1.
         22   -1    0    0    0    0 -0.00000000000E+00 -0.00000000000E+00 -0.65930167203E+03  0.65930167203E+03  0.00000000000E+00 0.  1.
        -24    2    1    2    0    0 -0.23541065529E+02 -0.38207872704E+02 -0.25121324499E+03  0.26725379372E+03  0.79388113070E+02 0.  0.
         25    2    1    2    0    0  0.10014048957E+03  0.42422903456E+02 -0.37683038941E+03  0.41167472917E+03  0.12508844814E+03 0.  0.
         24    2    1    2    0    0 -0.76599424045E+02 -0.42150307521E+01  0.53427188419E+03  0.54590307095E+03  0.81721957849E+02 0.  0.
        -11    1    5    5    0    0 -0.57182566938E+01  0.15992319639E+02  0.19406670185E+02  0.25788982041E+02  0.00000000000E+00 0.  1.
         12    1    5    5    0    0 -0.70881167352E+02 -0.20207350391E+02  0.51486521400E+03  0.52011408891E+03  0.00000000000E+00 0. -1.
         11    1    3    3    0    0  0.13953981366E+02 -0.16403362430E+01 -0.40781922961E+01  0.14629967579E+02  0.00000000000E+00 0. -1.
        -12    1    3    3    0    0 -0.37495046895E+02 -0.36567536461E+02 -0.24713505269E+03  0.25262382614E+03  0.00000000000E+00 0.  1.
          5    1    4    4  501    0  0.86781828407E+02 -0.27980962136E+02 -0.24693749760E+03  0.26326720286E+03  0.41800000000E+01 0.  1.
         -5    1    4    4    0  501  0.13358661167E+02  0.70403865592E+02 -0.12989289182E+03  0.14840752630E+03  0.41800000000E+01 0.  1.
</event>
<event>
11    1  0.8453735E-009  0.1894086E+03  0.7561462E-02  0.1062277E+00
         22   -1    0    0    0    0  0.00000000000E+00  0.00000000000E+00  0.10750752181E+04  0.10750752181E+04  0.00000000000E+00 0.  1.
         22   -1    0    0    0    0 -0.00000000000E+00 -0.00000000000E+00 -0.78732272766E+03  0.78732272766E+03  0.00000000000E+00 0.  1.
         24    2    1    2    0    0 -0.12119682320E+03 -0.76667575379E+02 -0.74754849772E+03  0.76507764226E+03  0.77126228765E+02 0.  0.
         25    2    1    2    0    0  0.83697565190E+02  0.72220538984E+02  0.21443219527E+03  0.27175284093E+03  0.12508937411E+03 0.  0.
        -24    2    1    2    0    0  0.37499258007E+02  0.44470363952E+01  0.82086879288E+03  0.82556746256E+03  0.79436072567E+02 0.  0.
        -11    1    3    3    0    0 -0.12113891808E+02 -0.19258387352E+02 -0.30006793356E+03  0.30092922193E+03  0.00000000000E+00 0.  1.
         12    1    3    3    0    0 -0.10908293139E+03 -0.57409188027E+02 -0.44748056416E+03  0.46414842033E+03  0.00000000000E+00 0. -1.
         13    1    5    5    0    0  0.51320161357E+02  0.24386427700E+02  0.40187532908E+03  0.40587219287E+03  0.00000000000E+00 0. -1.
        -14    1    5    5    0    0 -0.13820903350E+02 -0.19939391305E+02  0.41899346380E+03  0.41969526969E+03  0.00000000000E+00 0.  1.
          5    1    4    4  501    0  0.75233949800E+02  0.49197982977E+01  0.18078277972E+03  0.19591895636E+03  0.41800000000E+01 0. -1.
         -5    1    4    4    0  501  0.84636153898E+01  0.67300740686E+02  0.33649415550E+02  0.75833884572E+02  0.41800000000E+01 0. -1.
</event>
<event>
11    1  0.8453735E-009  0.1328802E+03  0.7561462E-02  0.1115780E+00
         22   -1    0    0    0    0  0.00000000000E+00  0.00000000000E+00  0.27866882089E+03  0.27866882089E+03  0.00000000000E+00 0.  1.
         22   -1    0    0    0    0 -0.00000000000E+00 -0.00000000000E+00 -0.16217905669E+04  0.16217905669E+04  0.00000000000E+00 0.  1.
        -24    2    1    2    0    0 -0.41652493019E+02 -0.31079212728E+01 -0.15041959502E+04  0.15069569386E+04  0.81050408629E+02 0.  0.
         25    2    1    2    0    0  0.82638715642E+02 -0.13491247267E+01 -0.53103612619E+02  0.15905921613E+03  0.12509541599E+03 0.  0.
         24    2    1    2    0    0 -0.40986222623E+02  0.44570459996E+01  0.21417781681E+03  0.23444323311E+03  0.85975325733E+02 0.  0.
        -13    1    5    5    0    0 -0.72089493979E+01  0.36885632252E+02  0.15216661299E+03  0.15673926416E+03  0.00000000000E+00 0.  1.
         14    1    5    5    0    0 -0.33777273225E+02 -0.32428586253E+02  0.62011203812E+02  0.77703968953E+02  0.00000000000E+00 0. -1.
         11    1    3    3    0    0  0.68252736864E+01 -0.20948632079E+02 -0.13493299561E+03  0.13671994314E+03  0.00000000000E+00 0. -1.
        -12    1    3    3    0    0 -0.48477766705E+02  0.17840710806E+02 -0.13692629546E+04  0.13702369954E+04  0.00000000000E+00 0.  1.
          5    1    4    4  501    0  0.81953427471E+02  0.20934470229E+02  0.16124742665E+02  0.86209605288E+02  0.41800000000E+01 0.  1.
         -5    1    4    4    0  501  0.68528817105E+00 -0.22283594955E+02 -0.69228355284E+02  0.72849610838E+02  0.41800000000E+01 0.  1.
</event>
<event>
11    1  0.8453735E-009  0.1404927E+03  0.7561462E-02  0.1107009E+00
         22   -1    0    0    0    0  0.00000000000E+00  0.00000000000E+00  0.48477666549E+03  0.48477666549E+03  0.00000000000E+00 0.  1.
         22   -1    0    0    0    0 -0.00000000000E+00 -0.00000000000E+00 -0.17592431208E+03  0.17592431208E+03  0.00000000000E+00 0.  1.
         24    2    1    2    0    0  0.15757247186E+02 -0.64616071909E+02 -0.11291618748E+03  0.15331353464E+03  0.79570389714E+02 0.  0.
         25    2    1    2    0    0  0.35217503418E+02  0.54182761552E+02  0.10231251317E+03  0.17404415760E+03  0.12508986469E+03 0.  0.
        -24    2    1    2    0    0 -0.50974750604E+02  0.10433310357E+02  0.31945602772E+03  0.33334328533E+03  0.79739030993E+02 0.  0.
        -13    1    3    3    0    0 -0.25551784782E+02 -0.17014309166E+02 -0.71730237275E+02  0.78023120685E+02  0.00000000000E+00 0.  1.
         14    1    3    3    0    0  0.41309031969E+02 -0.47601762743E+02 -0.41185950208E+02  0.75290413951E+02  0.00000000000E+00 0. -1.
         13    1    5    5    0    0  0.15651037113E+02  0.41068400845E+01  0.16602780241E+02  0.23183472776E+02  0.00000000000E+00 0. -1.
        -14    1    5    5    0    0 -0.66625787718E+02  0.63264702720E+01  0.30285324748E+03  0.31015981255E+03  0.00000000000E+00 0.  1.
          5    1    4    4  501    0  0.40836988295E+02  0.38327051835E+01  0.11456142796E+03  0.12175443490E+03  0.41800000000E+01 0.  1.
         -5    1    4    4    0  501 -0.56194848772E+01  0.50350056369E+02 -0.12248914788E+02  0.52289722701E+02  0.41800000000E+01 0.  1.
</event>
<event>
11    1  0.8453735E-009  0.1462939E+03  0.7561462E-02  0.1100727E+00
         22   -1    0    0    0    0  0.00000000000E+00  0.00000000000E+00  0.58782694795E+03  0.58782694795E+03  0.00000000000E+00 0. -1.
         22   -1    0    0    0    0 -0.00000000000E+00 -0.00000000000E+00 -0.20717757059E+03  0.20717757059E+03  0.00000000000E+00 0.  1.
         24    2    1    2    0    0  0.18796641718E+01 -0.66488087995E+02 -0.10629252794E+03  0.14898839420E+03  0.80468882969E+02 0.  0.
         25    2    1    2    0    0 -0.18775935577E+02  0.11998016287E+03  0.27746065581E+02  0.17652352524E+03  0.12507172170E+03 0.  0.
        -24    2    1    2    0    0  0.16896271405E+02 -0.53492074876E+02  0.45919583972E+03  0.46949259910E+03  0.80097411529E+02 0.  0.
        -13    1    3    3    0    0  0.15152630249E+02 -0.43678571239E+02 -0.11271478798E+03  0.12182792463E+03  0.00000000000E+00 0.  1.
         14    1    3    3    0    0 -0.13272966078E+02 -0.22809516756E+02  0.64222600413E+01  0.27160469569E+02  0.00000000000E+00 0. -1.
         11    1    5    5    0    0  0.64687708190E+01 -0.72133467863E+02  0.40128989854E+03  0.40777281034E+03  0.00000000000E+00 0. -1.
        -12    1    5    5    0    0  0.10427500586E+02  0.18641392987E+02  0.57905941178E+02  0.61719788761E+02  0.00000000000E+00 0.  1.
          5    1    4    4  501    0 -0.38631548553E+01  0.97302467653E+02  0.74241841802E+02  0.12252353917E+03  0.41800000000E+01 0. -1.
         -5    1    4    4    0  501 -0.14912780721E+02  0.22677695217E+02 -0.46495776221E+02  0.53999986071E+02  0.41800000000E+01 0. -1.
</event>
<event>
11    1  0.8453735E-009  0.1411125E+03  0.7561462E-02  0.1106322E+00
         22   -1    0    0    0    0  0.00000000000E+00  0.00000000000E+00  0.61376160571E+03  0.61376160571E+03  0.00000000000E+00 0.  1.
         22   -1    0    0    0    0 -0.00000000000E+00 -0.00000000000E+00 -0.20398268438E+04  0.20398268438E+04  0.00000000000E+00 0.  1.
         24    2    1    2    0    0  0.18844783005E+02 -0.62825370539E+02 -0.20100549931E+04  0.20127396740E+04  0.80608727045E+02 0.  0.
         25    2    1    2    0    0 -0.17513908357E+02  0.26729015364E+02  0.15026267707E+03  0.19810508298E+03  0.12508227106E+03 0.  0.
        -24    2    1    2    0    0 -0.13308746483E+01  0.36096355175E+02  0.43372707794E+03  0.44274369255E+03  0.81228573027E+02 0.  0.
        -11    1    3    3    0    0 -0.18624498547E+02 -0.55038331133E+02 -0.15525345748E+04  0.15536214777E+04  0.00000000000E+00 0.  1.
         12    1    3    3    0    0  0.37469281552E+02 -0.77870394055E+01 -0.45752041832E+03  0.45911819635E+03  0.00000000000E+00 0. -1.
         13    1    5    5    0    0  0.54673165948E+01  0.52921148643E+02  0.16414986382E+03  0.17255641778E+03  0.00000000000E+00 0. -1.
        -14    1    5    5    0    0 -0.67981912432E+01 -0.16824793468E+02  0.26957721411E+03  0.27018727477E+03  0.00000000000E+00 0.  1.
          5    1    4    4  501    0 -0.75609819683E+01 -0.78768902956E+01  0.16011362526E+03  0.16053989923E+03  0.41800000000E+01 0. -1.
         -5    1    4    4    0  501 -0.99529263886E+01  0.34605905659E+02 -0.98509481920E+01  0.37565183754E+02  0.41800000000E+01 0. -1.
</event>
<event>
11    1  0.8453735E-009  0.1449779E+03  0.7561462E-02  0.1102124E+00
         22   -1    0    0    0    0  0.00000000000E+00  0.00000000000E+00  0.53685472634E+03  0.53685472634E+03  0.00000000000E+00 0.  1.
         22   -1    0    0    0    0 -0.00000000000E+00 -0.00000000000E+00 -0.14415092482E+03  0.14415092482E+03  0.00000000000E+00 0.  1.
         24    2    1    2    0    0 -0.24695399610E+02 -0.27315588557E+02  0.22281368825E+02  0.89094910920E+02  0.78009227756E+02 0.  0.
         25    2    1    2    0    0  0.39887587184E+02  0.96953234069E+02 -0.39648714222E+02  0.16796013235E+03  0.12509051248E+03 0.  0.
        -24    2    1    2    0    0 -0.15192187574E+02 -0.69637645513E+02  0.41007114691E+03  0.42395060790E+03  0.80595087746E+02 0.  0.
        -11    1    3    3    0    0 -0.23056161286E+02 -0.49789741349E+02 -0.33443928618E+01  0.54970809349E+02  0.00000000000E+00 0.  1.
         12    1    3    3    0    0 -0.16392383240E+01  0.22474152792E+02  0.25625761687E+02  0.34124101571E+02  0.00000000000E+00 0. -1.
         13    1    5    5    0    0  0.10152828231E+02  0.10978483885E+02  0.20830009837E+02  0.25641691428E+02  0.00000000000E+00 0. -1.
        -14    1    5    5    0    0 -0.25345015805E+02 -0.80616129397E+02  0.38924113708E+03  0.39830891647E+03  0.00000000000E+00 0.  1.
          5    1    4    4  501    0  0.73885353330E+02  0.89046185230E+02 -0.10994014929E+01  0.11578838294E+03  0.41800000000E+01 0.  1.
         -5    1    4    4    0  501 -0.33997766146E+02  0.79070488393E+01 -0.38549312729E+02  0.52171749407E+02  0.41800000000E+01 0.  1.
</event>
<event>
11    1  0.8453735E-009  0.1349192E+03  0.7561462E-02  0.1113368E+00
         22   -1    0    0    0    0  0.00000000000E+00  0.00000000000E+00  0.64507688692E+03  0.64507688692E+03  0.00000000000E+00 0. -1.
         22   -1    0    0    0    0 -0.00000000000E+00 -0.00000000000E+00 -0.22964766657E+03  0.22964766657E+03  0.00000000000E+00 0. -1.
         24    2    1    2    0    0  0.62158827486E+01 -0.51146224245E+02 -0.16718251237E+03  0.19224131511E+03  0.79700422460E+02 0.  0.
         25    2    1    2    0    0 -0.19005890260E+02  0.40941641919E+02  0.47845136282E+02  0.14133310862E+03  0.12509375931E+03 0.  0.
        -24    2    1    2    0    0  0.12790007511E+02  0.10204582326E+02  0.53476659644E+03  0.54115012976E+03  0.81243045728E+02 0.  0.
        -13    1    3    3    0    0  0.22717467413E+02 -0.76517490264E+01 -0.63245924947E+01  0.24791794188E+02  0.00000000000E+00 0.  1.
         14    1    3    3    0    0 -0.16501584664E+02 -0.43494475218E+02 -0.16085791987E+03  0.16744952092E+03  0.00000000000E+00 0. -1.
         13    1    5    5    0    0 -0.13625564062E+02  0.32290492973E+02  0.41653317910E+03  0.41800504928E+03  0.00000000000E+00 0. -1.
        -14    1    5    5    0    0  0.26415571573E+02 -0.22085910646E+02  0.11823341734E+03  0.12314508048E+03  0.00000000000E+00 0.  1.
          5    1    4    4  501    0  0.38953693349E+02  0.49768745213E+02 -0.32928099925E+01  0.63424232146E+02  0.41800000000E+01 0.  1.
         -5    1    4    4    0  501 -0.57959583608E+02 -0.88271032947E+01  0.51137946274E+02  0.77908876476E+02  0.41800000000E+01 0.  1.
</event>
<event>
11    1  0.8453735E-009  0.1372510E+03  0.7561462E-02  0.1110668E+00
         22   -1    0    0    0    0  0.00000000000E+00  0.00000000000E+00  0.19845622543E+03  0.19845622543E+03  0.00000000000E+00 0. -1.
         22   -1    0    0    0    0 -0.00000000000E+00 -0.00000000000E+00 -0.10664938490E+04  0.10664938490E+04  0.00000000000E+00 0.  1.
         24    2    1    2    0    0  0.48427380534E+01  0.11214585949E+02 -0.99064612905E+03  0.99391970087E+03  0.79670570020E+02 0.  0.
         25    2    1    2    0    0 -0.57906869765E+02  0.67483109434E+01  0.44792650662E+02  0.14509582978E+03  0.12509065912E+03 0.  0.
        -24    2    1    2    0    0  0.53064131712E+02 -0.17962896892E+02  0.77815854774E+02  0.12593454383E+03  0.81643948554E+02 0.  0.
        -13    1    3    3    0    0  0.35314485623E+02 -0.16679933155E+02 -0.51938199936E+03  0.52084834100E+03  0.00000000000E+00 0.  1.
         14    1    3    3    0    0 -0.30471747570E+02  0.27894519103E+02 -0.47126412969E+03  0.47307135987E+03  0.00000000000E+00 0. -1.
         13    1    5    5    0    0  0.70743818821E+02 -0.30545137881E+02  0.56822911372E+02  0.95742031555E+02  0.00000000000E+00 0. -1.
        -14    1    5    5    0    0 -0.17679687109E+02  0.12582240989E+02  0.20992943402E+02  0.30192512271E+02  0.00000000000E+00 0.  1.
          5    1    4    4  501    0 -0.42836009463E+02 -0.33194476452E+02 -0.27592033673E+02  0.60955637114E+02  0.41800000000E+01 0. -1.
         -5    1    4    4    0  501 -0.15070860301E+02  0.39942787396E+02  0.72384684335E+02  0.84140192663E+02  0.41800000000E+01 0. -1.
</event>
<event>
11    1  0.8453735E-009  0.3166501E+03  0.7561462E-02  0.9933808E-01
         22   -1    0    0    0    0  0.00000000000E+00  0.00000000000E+00  0.22077081616E+03  0.22077081616E+03  0.00000000000E+00 0. -1.
         22   -1    0    0    0    0 -0.00000000000E+00 -0.00000000000E+00 -0.25632182732E+04  0.25632182732E+04  0.00000000000E+00 0.  1.
         24    2    1    2    0    0  0.24253277018E+02 -0.15144225924E+02 -0.20437898982E+04  0.20455357540E+04  0.79509772119E+02 0.  0.
         25    2    1    2    0    0 -0.30322265050E+03  0.63906697085E+02 -0.29246621673E+03  0.44408542495E+03  0.12508930818E+03 0.  0.
        -24    2    1    2    0    0  0.27896937348E+03 -0.48762471161E+02 -0.61913421166E+01  0.29436791043E+03  0.80077737478E+02 0.  0.
        -13    1    3    3    0    0 -0.58954023433E+01  0.13852707642E+02 -0.15211694753E+04  0.15212439732E+04  0.00000000000E+00 0.  1.
         14    1    3    3    0    0  0.30148679361E+02 -0.28996933566E+02 -0.52262042287E+03  0.52429178081E+03  0.00000000000E+00 0. -1.
         13    1    5    5    0    0  0.26164900567E+03 -0.62339068033E+02 -0.17659395945E+02  0.26955187968E+03  0.00000000000E+00 0. -1.
        -14    1    5    5    0    0  0.17320367805E+02  0.13576596871E+02  0.11468053829E+02  0.24816030749E+02  0.00000000000E+00 0.  1.
          5    1    4    4  501    0 -0.98525901213E+02  0.68029379754E+02 -0.16120315721E+03  0.20084640901E+03  0.41800000000E+01 0.  1.
         -5    1    4    4    0  501 -0.20469674928E+03 -0.41226826693E+01 -0.13126305952E+03  0.24323901594E+03  0.41800000000E+01 0.  1.
</event>
<event>
11    1  0.8453735E-009  0.1435686E+03  0.7561462E-02  0.1103638E+00
         22   -1    0    0    0    0  0.00000000000E+00  0.00000000000E+00  0.32789232964E+03  0.32789232964E+03  0.00000000000E+00 0.  1.
         22   -1    0    0    0    0 -0.00000000000E+00 -0.00000000000E+00 -0.36445180401E+03  0.36445180401E+03  0.00000000000E+00 0. -1.
        -24    2    1    2    0    0  0.68360799326E+02  0.34416766101E+02 -0.28930628081E+03  0.30976009200E+03  0.79971731319E+02 0.  0.
         25    2    1    2    0    0 -0.35009908465E+02  0.14038531225E+02  0.19052928544E+02  0.13203109915E+03  0.12508566268E+03 0.  0.
         24    2    1    2    0    0 -0.33350890860E+02 -0.48455297326E+02  0.23369387789E+03  0.25055294250E+03  0.68583895125E+02 0.  0.
        -11    1    5    5    0    0 -0.41727109007E+01 -0.46335752938E+02  0.20254723670E+03  0.20782154992E+03  0.00000000000E+00 0.  1.
         12    1    5    5    0    0 -0.29178179960E+02 -0.21195443873E+01  0.31146641194E+02  0.42731392580E+02  0.00000000000E+00 0. -1.
         13    1    3    3    0    0  0.53109481966E+02  0.30392076857E+02 -0.28743492794E+03  0.29387605076E+03  0.00000000000E+00 0. -1.
        -14    1    3    3    0    0  0.15251317360E+02  0.40246892434E+01 -0.18713528689E+01  0.15884041245E+02  0.00000000000E+00 0.  1.
          5    1    4    4  501    0 -0.57533688652E+02  0.56062647347E+02 -0.20271984321E+00  0.80440408085E+02  0.41800000000E+01 0. -1.
         -5    1    4    4    0  501  0.22523780187E+02 -0.42024116122E+02  0.19255648387E+02  0.51590691065E+02  0.41800000000E+01 0. -1.
</event>
<event>
11    1  0.8453735E-009  0.1414495E+03  0.7561462E-02  0.1105950E+00
         22   -1    0    0    0    0  0.00000000000E+00  0.00000000000E+00  0.15692308860E+03  0.15692308860E+03  0.00000000000E+00 0.  1.
         22   -1    0    0    0    0 -0.00000000000E+00 -0.00000000000E+00 -0.30709397472E+03  0.30709397472E+03  0.00000000000E+00 0.  1.
         24    2    1    2    0    0 -0.10375231778E+03 -0.66009211047E+02 -0.11384426611E+03  0.18560608003E+03  0.79795617857E+02 0.  0.
         25    2    1    2    0    0 -0.94814389935E+01  0.51998418126E+02 -0.61813081740E+01  0.13594103180E+03  0.12509205563E+03 0.  0.
        -24    2    1    2    0    0  0.11323375677E+03  0.14010792921E+02 -0.30145311830E+02  0.14246995150E+03  0.79817048696E+02 0.  0.
        -13    1    3    3    0    0 -0.21108850730E+02 -0.15850882279E+02  0.10234591086E+02  0.28312204133E+02  0.00000000000E+00 0.  1.
         14    1    3    3    0    0 -0.82643467050E+02 -0.50158328768E+02 -0.12407885719E+03  0.15729387589E+03  0.00000000000E+00 0. -1.
         13    1    5    5    0    0  0.12466935744E+02 -0.26943087789E+02 -0.34197881361E+00  0.29689584301E+02  0.00000000000E+00 0. -1.
        -14    1    5    5    0    0  0.10076682103E+03  0.40953880710E+02 -0.29803333016E+02  0.11278036719E+03  0.00000000000E+00 0.  1.
          5    1    4    4  501    0  0.40454599622E+02  0.71008205903E+02 -0.86674585170E+01  0.82288135070E+02  0.41800000000E+01 0. -1.
         -5    1    4    4    0  501 -0.49936038615E+02 -0.19009787777E+02  0.24861503430E+01  0.53652896729E+02  0.41800000000E+01 0. -1.
</event>
<event>
11    1  0.8453735E-009  0.1344975E+03  0.7561462E-02  0.1113863E+00
         22   -1    0    0    0    0  0.00000000000E+00  0.00000000000E+00  0.92414776310E+02  0.92414776310E+02  0.00000000000E+00 0. -1.
         22   -1    0    0    0    0 -0.00000000000E+00 -0.00000000000E+00 -0.24677498330E+04  0.24677498330E+04  0.00000000000E+00 0.  1.
        -24    2    1    2    0    0 -0.40951561710E+02  0.23391669966E+02 -0.22869548264E+04  0.22887910176E+04  0.78598623974E+02 0.  0.
         25    2    1    2    0    0  0.80750955623E+02 -0.19052711423E+02 -0.96780996991E+02  0.17859955645E+03  0.12509003772E+03 0.  0.
         24    2    1    2    0    0 -0.39799393913E+02 -0.43389585430E+01  0.84007666795E+01  0.92774035272E+02  0.83268423924E+02 0.  0.
        -11    1    5    5    0    0 -0.29068607013E+02 -0.32686848657E+01 -0.36397962311E+02  0.46695608732E+02  0.00000000000E+00 0.  1.
         12    1    5    5    0    0 -0.10730786900E+02 -0.10702736773E+01  0.44798728991E+02  0.46078426540E+02  0.00000000000E+00 0. -1.
         13    1    3    3    0    0 -0.32359552349E+02 -0.25852077169E+02 -0.95174592934E+03  0.95264672599E+03  0.00000000000E+00 0. -1.
        -14    1    3    3    0    0 -0.85920093608E+01  0.49243747135E+02 -0.13352088971E+04  0.13361442917E+04  0.00000000000E+00 0.  1.
          5    1    4    4  501    0 -0.66397192572E+01 -0.45761221793E+02 -0.68685706921E+02  0.82905814193E+02  0.41800000000E+01 0. -1.
         -5    1    4    4    0  501  0.87390674880E+02  0.26708510369E+02 -0.28095290070E+02  0.95693742252E+02  0.41800000000E+01 0. -1.
</event>
<event>
11    1  0.8453735E-009  0.2981608E+03  0.7561462E-02  0.1000973E+00
         22   -1    0    0    0    0  0.00000000000E+00  0.00000000000E+00  0.11893074588E+04  0.11893074588E+04  0.00000000000E+00 0.  1.
         22   -1    0    0    0    0 -0.00000000000E+00 -0.00000000000E+00 -0.17634889888E+04  0.17634889888E+04  0.00000000000E+00 0.  1.
         24    2    1    2    0    0 -0.85935432269E+01  0.46189097123E+02 -0.10801096769E+04  0.10841667714E+04  0.81076459383E+02 0.  0.
         25    2    1    2    0    0  0.28915206522E+02 -0.31488478262E+03 -0.62047531131E+03  0.70754908461E+03  0.12509028619E+03 0.  0.
        -24    2    1    2    0    0 -0.20321663295E+02  0.26869568549E+03  0.11264034583E+04  0.11610805916E+04  0.81933192593E+02 0.  0.
        -13    1    3    3    0    0  0.15121057038E+02  0.16824062753E+02 -0.89307756510E+03  0.89336399789E+03  0.00000000000E+00 0.  1.
         14    1    3    3    0    0 -0.23714600265E+02  0.29365034371E+02 -0.18703211183E+03  0.19080277347E+03  0.00000000000E+00 0. -1.
         11    1    5    5    0    0 -0.20247159562E+01  0.43388661883E+02  0.34226118449E+03  0.34500636786E+03  0.00000000000E+00 0. -1.
        -12    1    5    5    0    0 -0.18296947339E+02  0.22530702361E+03  0.78414227379E+03  0.81607422378E+03  0.00000000000E+00 0.  1.
          5    1    4    4  501    0 -0.48010248581E+02 -0.15185948745E+03 -0.30863046971E+03  0.34732769416E+03  0.41800000000E+01 0. -1.
         -5    1    4    4    0  501  0.76925455103E+02 -0.16302529517E+03 -0.31184484160E+03  0.36022139046E+03  0.41800000000E+01 0. -1.
</event>
<event>
11    1  0.8453735E-009  0.1343748E+03  0.7561462E-02  0.1114008E+00
         22   -1    0    0    0    0  0.00000000000E+00  0.00000000000E+00  0.32789838939E+03  0.32789838939E+03  0.00000000000E+00 0. -1.
         22   -1    0    0    0    0 -0.00000000000E+00 -0.00000000000E+00 -0.42276353329E+03  0.42276353329E+03  0.00000000000E+00 0.  1.
        -24    2    1    2    0    0  0.34325715927E+02 -0.34860913079E+02 -0.30582435031E+03  0.32001136270E+03  0.80530745579E+02 0.  0.
         25    2    1    2    0    0 -0.42516426347E+02  0.28165878864E+02 -0.60077555670E+02  0.14784409425E+03  0.12509036840E+03 0.  0.
         24    2    1    2    0    0  0.81907104201E+01  0.66950342151E+01  0.27103676208E+03  0.28280646573E+03  0.80041610666E+02 0.  0.
        -13    1    5    5    0    0 -0.20668656537E+02  0.12078783407E+02  0.23538186727E+02  0.33572855197E+02  0.00000000000E+00 0.  1.
         14    1    5    5    0    0  0.28859366958E+02 -0.53837491914E+01  0.24749857535E+03  0.24923361053E+03  0.00000000000E+00 0. -1.
         13    1    3    3    0    0 -0.65760206507E+01 -0.39652822138E+02 -0.70866027592E+02  0.81471370541E+02  0.00000000000E+00 0. -1.
        -14    1    3    3    0    0  0.40901736578E+02  0.47919090594E+01 -0.23495832271E+03  0.23853999216E+03  0.00000000000E+00 0.  1.
          5    1    4    4  501    0 -0.57861619677E+02 -0.18861451229E+01  0.19561331362E+02  0.61250654362E+02  0.41800000000E+01 0.  1.
         -5    1    4    4    0  501  0.15345193330E+02  0.30052023987E+02 -0.79638887031E+02  0.86593439888E+02  0.41800000000E+01 0.  1.
</event>
<event>
11    1  0.8453735E-009  0.2546853E+03  0.7561462E-02  0.1021433E+00
         22   -1    0    0    0    0  0.00000000000E+00  0.00000000000E+00  0.41091034528E+03  0.41091034528E+03  0.00000000000E+00 0.  1.
         22   -1    0    0    0    0 -0.00000000000E+00 -0.00000000000E+00 -0.49120736670E+03  0.49120736670E+03  0.00000000000E+00 0.  1.
        -24    2    1    2    0    0  0.19338452247E+03 -0.81371130955E+02 -0.30334245483E+03  0.37761310271E+03  0.80970216463E+02 0.  0.
         25    2    1    2    0    0 -0.30184004446E+03  0.86847172522E+02  0.17624249457E+03  0.38125840821E+03  0.12508682236E+03 0.  0.
         24    2    1    2    0    0  0.10845552199E+03 -0.54760415676E+01  0.46802938840E+02  0.14324620105E+03  0.80847830833E+02 0.  0.
        -13    1    5    5    0    0  0.97193476140E+02  0.20917734646E+02  0.15226028808E+02  0.10057810587E+03  0.00000000000E+00 0.  1.
         14    1    5    5    0    0  0.11262045854E+02 -0.26393776214E+02  0.31576910032E+02  0.42668095186E+02  0.00000000000E+00 0. -1.
         13    1    3    3    0    0  0.52892057385E+02  0.10458722713E+02 -0.10297537864E+03  0.11623632487E+03  0.00000000000E+00 0. -1.
        -14    1    3    3    0    0  0.14049246508E+03 -0.91829853668E+02 -0.20036707619E+03  0.26137677783E+03  0.00000000000E+00 0.  1.
          5    1    4    4  501    0 -0.20580764469E+03 -0.68273183195E+00  0.12902469723E+03  0.24294463903E+03  0.41800000000E+01 0. -1.
         -5    1    4    4    0  501 -0.96032399764E+02  0.87529904354E+02  0.47217797334E+02  0.13831376918E+03  0.41800000000E+01 0. -1.
</event>
<event>
11    1  0.8453735E-009  0.1525979E+03  0.7561462E-02  0.1094253E+00
         22   -1    0    0    0    0  0.00000000000E+00  0.00000000000E+00  0.73926078742E+02  0.73926078742E+02  0.00000000000E+00 0. -1.
         22   -1    0    0    0    0 -0.00000000000E+00 -0.00000000000E+00 -0.20497524104E+04  0.20497524104E+04  0.00000000000E+00 0.  1.
        -24    2    1    2    0    0 -0.84792387044E+02  0.22428502007E+02 -0.17170935368E+04  0.17212401341E+04  0.81022210347E+02 0.  0.
         25    2    1    2    0    0  0.86361242416E+02 -0.30811776560E+01 -0.27827607461E+03  0.31710130929E+03  0.12509160165E+03 0.  0.
         24    2    1    2    0    0 -0.15688553716E+01 -0.19347324351E+02  0.19543279790E+02  0.85337045704E+02  0.80769371162E+02 0.  0.
        -11    1    5    5    0    0  0.82964328774E+01  0.30025396098E+02 -0.47657389676E+00  0.31154170379E+02  0.00000000000E+00 0.  1.
         12    1    5    5    0    0 -0.98652882490E+01 -0.49372720450E+02  0.20019853686E+02  0.54182875325E+02  0.00000000000E+00 0. -1.
         13    1    3    3    0    0  0.12632802580E+01  0.27786662402E+02 -0.23495292189E+03  0.23659368121E+03  0.00000000000E+00 0. -1.
        -14    1    3    3    0    0 -0.86055667302E+02 -0.53581603946E+01 -0.14821406149E+04  0.14846464529E+04  0.00000000000E+00 0.  1.
          5    1    4    4  501    0 -0.18804334698E+02  0.93250936731E+01 -0.23585871536E+01  0.21531272810E+02  0.41800000000E+01 0.  1.
         -5    1    4    4    0  501  0.10516557711E+03 -0.12406271329E+02 -0.27591748746E+03  0.29557003648E+03  0.41800000000E+01 0.  1.
</event>
<event>
11    1  0.8453735E-009  0.1405783E+03  0.7561462E-02  0.1106914E+00
         22   -1    0    0    0    0  0.00000000000E+00  0.00000000000E+00  0.12873002285E+04  0.12873002285E+04  0.00000000000E+00 0. -1.
         22   -1    0    0    0    0 -0.00000000000E+00 -0.00000000000E+00 -0.25317050400E+03  0.25317050400E+03  0.00000000000E+00 0.  1.
        -24    2    1    2    0    0  0.58778325113E+02 -0.20094890540E+02 -0.16837689094E+03  0.19030959237E+03  0.63310879134E+02 0.  0.
         25    2    1    2    0    0 -0.68787384759E+02  0.38121666161E+02  0.32484665775E+01  0.14782158540E+03  0.12512275110E+03 0.  0.
         24    2    1    2    0    0  0.10009059646E+02 -0.18026775622E+02  0.11992581489E+04  0.12023395548E+04  0.83517371481E+02 0.  0.
        -11    1    5    5    0    0  0.32389757003E+02 -0.17899478672E+02  0.24141009878E+03  0.24423006262E+03  0.00000000000E+00 0.  1.
         12    1    5    5    0    0 -0.22380697356E+02 -0.12729695014E+00  0.95784805013E+03  0.95810949216E+03  0.00000000000E+00 0. -1.
         11    1    3    3    0    0 -0.11373072525E+02 -0.13929148723E+02 -0.28359458193E+02  0.33580155328E+02  0.00000000000E+00 0. -1.
        -12    1    3    3    0    0  0.70151397638E+02 -0.61657418166E+01 -0.14001743275E+03  0.15672943705E+03  0.00000000000E+00 0.  1.
          5    1    4    4  501    0  0.12919530761E+02  0.57144019657E+02 -0.17526627996E+02  0.61294439769E+02  0.41800000000E+01 0.  1.
         -5    1    4    4    0  501 -0.81706915520E+02 -0.19022353495E+02  0.20775094574E+02  0.86527145630E+02  0.41800000000E+01 0.  1.
</event>
<event>
11    1  0.8453735E-009  0.1693613E+03  0.7561462E-02  0.1078589E+00
         22   -1    0    0    0    0  0.00000000000E+00  0.00000000000E+00  0.40239111131E+03  0.40239111131E+03  0.00000000000E+00 0. -1.
         22   -1    0    0    0    0 -0.00000000000E+00 -0.00000000000E+00 -0.66916677567E+03  0.66916677567E+03  0.00000000000E+00 0.  1.
        -24    2    1    2    0    0 -0.29568755191E+02  0.32342573310E+02 -0.55815473842E+03  0.56591015037E+03  0.82445333031E+02 0.  0.
         25    2    1    2    0    0  0.33486629873E+02  0.86164023372E+02 -0.25940386958E+02  0.15769044576E+03  0.12509108563E+03 0.  0.
         24    2    1    2    0    0 -0.39178746814E+01 -0.11850659668E+03  0.31731946102E+03  0.34795729085E+03  0.79520266087E+02 0.  0.
        -11    1    5    5    0    0 -0.36156071626E+02 -0.95722052292E+02  0.20986878642E+03  0.23348421857E+03  0.00000000000E+00 0.  1.
         12    1    5    5    0    0  0.32238196944E+02 -0.22784544390E+02  0.10745067460E+03  0.11447307228E+03  0.00000000000E+00 0. -1.
         11    1    3    3    0    0  0.16991697614E+02  0.41530762742E+02 -0.22938803047E+03  0.23373572804E+03  0.00000000000E+00 0. -1.
        -12    1    3    3    0    0 -0.46560452805E+02 -0.91881894316E+01 -0.32876670795E+03  0.33217442232E+03  0.00000000000E+00 0.  1.
          5    1    4    4  501    0  0.53235290137E+02  0.10519153292E+03 -0.42490658613E+02  0.12538813015E+03  0.41800000000E+01 0. -1.
         -5    1    4    4    0  501 -0.19748660264E+02 -0.19027509548E+02  0.16550271654E+02  0.32302315608E+02  0.41800000000E+01 0. -1.
</event>
<event>
11    1  0.8453735E-009  0.1854101E+03  0.7561462E-02  0.1065349E+00
         22   -1    0    0    0    0  0.00000000000E+00  0.00000000000E+00  0.91545465792E+03  0.91545465792E+03  0.00000000000E+00 0. -1.
         22   -1    0    0    0    0 -0.00000000000E+00 -0.00000000000E+00 -0.32192104958E+03  0.32192104958E+03  0.00000000000E+00 0.  1.
        -24    2    1    2    0    0  0.51377616691E+02 -0.53984488784E+02 -0.25548901009E+03  0.27796590026E+03  0.80227320172E+02 0.  0.
         25    2    1    2    0    0  0.82625559908E+02  0.99536797383E+02  0.12929708560E+03  0.22158379049E+03  0.12508829954E+03 0.  0.
         24    2    1    2    0    0 -0.13400317660E+03 -0.45552308599E+02  0.71972553284E+03  0.73782601675E+03  0.79690176380E+02 0.  0.
        -13    1    5    5    0    0  0.25581773905E+01  0.13351755388E+02  0.53201527304E+02  0.54910983883E+02  0.00000000000E+00 0.  1.
         14    1    5    5    0    0 -0.13656135399E+03 -0.58904063987E+02  0.66652400554E+03  0.68291503287E+03  0.00000000000E+00 0. -1.
         11    1    3    3    0    0  0.39554179222E+02  0.80745109079E+01 -0.58367229708E+02  0.70968051433E+02  0.00000000000E+00 0. -1.
        -12    1    3    3    0    0  0.11823437468E+02 -0.62058999692E+02 -0.19712178038E+03  0.20699784882E+03  0.00000000000E+00 0.  1.
          5    1    4    4  501    0  0.20120650545E+02  0.10846427759E+03  0.10898160864E+03  0.15512512213E+03  0.41800000000E+01 0. -1.
         -5    1    4    4    0  501  0.62504909363E+02 -0.89274802107E+01  0.20315476955E+02  0.66458668369E+02  0.41800000000E+01 0. -1.
</event>
<event>
11    1  0.8453735E-009  0.1283233E+03  0.7561462E-02  0.1121346E+00
         22   -1    0    0    0    0  0.00000000000E+00  0.00000000000E+00  0.35437067746E+03  0.35437067746E+03  0.00000000000E+00 0.  1.
         22   -1    0    0    0    0 -0.00000000000E+00 -0.00000000000E+00 -0.61740559082E+03  0.61740559082E+03  0.00000000000E+00 0.  1.
        -24    2    1    2    0    0 -0.25239511821E+02  0.17991415525E+02 -0.53846046836E+03  0.54605373908E+03  0.85289424870E+02 0.  0.
         25    2    1    2    0    0 -0.13797237196E+02 -0.69109453519E+01 -0.10118082084E+02  0.12643437994E+03  0.12508058173E+03 0.  0.
         24    2    1    2    0    0  0.39036749017E+02 -0.11080470173E+02  0.28554363707E+03  0.29928814926E+03  0.79947376565E+02 0.  0.
        -11    1    5    5    0    0 -0.19697166676E+01  0.21387607383E+02  0.18220777272E+03  0.18346929436E+03  0.00000000000E+00 0.  1.
         12    1    5    5    0    0  0.41006465685E+02 -0.32468077556E+02  0.10333586435E+03  0.11581885490E+03  0.00000000000E+00 0. -1.
         11    1    3    3    0    0 -0.23135789230E+02  0.47460358999E+01 -0.33904407610E+02  0.41319468238E+02  0.00000000000E+00 0. -1.
        -12    1    3    3    0    0 -0.21037225913E+01  0.13245379625E+02 -0.50455606074E+03  0.50473427084E+03  0.00000000000E+00 0.  1.
          5    1    4    4  501    0 -0.14372132872E+02 -0.41115044789E+02  0.44143089782E+02  0.62153760037E+02  0.41800000000E+01 0. -1.
         -5    1    4    4    0  501  0.57489567568E+00  0.34204099438E+02 -0.54261171866E+02  0.64280619907E+02  0.41800000000E+01 0. -1.
</event>
<event>
11    1  0.8453735E-009  0.2258315E+04  0.7561462E-02  0.7968636E-01
         22   -1    0    0    0    0  0.00000000000E+00  0.00000000000E+00  0.12247392694E+04  0.12247392694E+04  0.00000000000E+00 0. -1.
         22   -1    0    0    0    0 -0.00000000000E+00 -0.00000000000E+00 -0.10410348652E+04  0.10410348652E+04  0.00000000000E+00 0. -1.
        -24    2    1    2    0    0 -0.61780591491E+03 -0.56047587437E+03  0.14019129930E+03  0.84982069014E+03  0.82001528908E+02 0.  0.
         25    2    1    2    0    0  0.78883289763E+03  0.73267917510E+03 -0.15173042919E+03  0.10944155619E+04  0.12508870804E+03 0.  0.
         24    2    1    2    0    0 -0.17102698271E+03 -0.17220330073E+03  0.19524353407E+03  0.32153788267E+03  0.79764445693E+02 0.  0.
        -11    1    5    5    0    0 -0.15316287649E+03 -0.17962324617E+03  0.17839632988E+03  0.29588617375E+03  0.00000000000E+00 0.  1.
         12    1    5    5    0    0 -0.17864106224E+02  0.74199454434E+01  0.16847204191E+02  0.25651708922E+02  0.00000000000E+00 0. -1.
         13    1    3    3    0    0 -0.29775190134E+03 -0.22727742364E+03  0.36834416709E+02  0.37638809267E+03  0.00000000000E+00 0. -1.
        -14    1    3    3    0    0 -0.32005401357E+03 -0.33319845073E+03  0.10335688259E+03  0.47343259747E+03  0.00000000000E+00 0.  1.
          5    1    4    4  501    0 -0.88776496712E+00  0.45321995070E+01  0.60746685969E+01  0.87007446561E+01  0.41800000000E+01 0.  1.
         -5    1    4    4    0  501  0.78972066259E+03  0.72814697559E+03 -0.15780509779E+03  0.10857148172E+04  0.41800000000E+01 0.  1.
</event>
<event>
11    1  0.8453735E-009  0.1318106E+03  0.7561462E-02  0.1117064E+00
         22   -1    0    0    0    0  0.00000000000E+00  0.00000000000E+00  0.73399882809E+03  0.73399882809E+03  0.00000000000E+00 0. -1.
         22   -1    0    0    0    0 -0.00000000000E+00 -0.00000000000E+00 -0.75425148577E+03  0.75425148577E+03  0.00000000000E+00 0.  1.
         24    2    1    2    0    0  0.33743708582E+01 -0.14786522823E+02 -0.72527372636E+03  0.73005294558E+03  0.82007911619E+02 0.  0.
         25    2    1    2    0    0  0.20660703674E+02 -0.21560394130E+02  0.15879714898E+03  0.20434350526E+03  0.12509203949E+03 0.  0.
        -24    2    1    2    0    0 -0.24035074532E+02  0.36346916954E+02  0.54622391969E+03  0.55385386302E+03  0.80589999153E+02 0.  0.
        -11    1    3    3    0    0 -0.42032633025E+00 -0.15414774447E+02 -0.72597875664E+03  0.72614251152E+03  0.00000000000E+00 0.  1.
         12    1    3    3    0    0  0.37946971885E+01  0.62825162349E+00  0.70503027903E+00  0.39104340614E+01  0.00000000000E+00 0. -1.
         13    1    5    5    0    0 -0.32471884729E+02  0.27715823085E+02  0.53691974296E+03  0.53861433376E+03  0.00000000000E+00 0. -1.
        -14    1    5    5    0    0  0.84368101970E+01  0.86310938685E+01  0.93041767323E+01  0.15239529269E+02  0.00000000000E+00 0.  1.
          5    1    4    4  501    0  0.61797925892E+02  0.19529787243E+02  0.11250552284E+03  0.12990520122E+03  0.41800000000E+01 0. -1.
         -5    1    4    4    0  501 -0.41137222218E+02 -0.41090181374E+02  0.46291626139E+02  0.74438304036E+02  0.41800000000E+01 0. -1.
</event>
<event>
11    1  0.8453735E-009  0.1608428E+03  0.7561462E-02  0.1086287E+00
         22   -1    0    0    0    0  0.00000000000E+00  0.00000000000E+00  0.65063629341E+03  0.65063629341E+03  0.00000000000E+00 0. -1.
         22   -1    0    0    0    0 -0.00000000000E+00 -0.00000000000E+00 -0.32791762485E+03  0.32791762485E+03  0.00000000000E+00 0.  1.
         24    2    1    2    0    0 -0.68396026843E+02 -0.71971310119E+02 -0.27011197972E+03  0.29882466975E+03  0.80484878695E+02 0.  0.
         25    2    1    2    0    0  0.75483311226E+02  0.10284607538E+03  0.16123581323E+03  0.24066392938E+03  0.12508834455E+03 0.  0.
        -24    2    1    2    0    0 -0.70872843828E+01 -0.30874765266E+02  0.43159483506E+03  0.43906531912E+03  0.74167190039E+02 0.  0.
        -11    1    3    3    0    0 -0.77008218313E+02 -0.26419997544E+02 -0.16855529035E+03  0.18718752058E+03  0.00000000000E+00 0.  1.
         12    1    3    3    0    0  0.86121914695E+01 -0.45551312575E+02 -0.10155668937E+03  0.11163714917E+03  0.00000000000E+00 0. -1.
         13    1    5    5    0    0  0.32635883494E+01 -0.17316021690E+01  0.37114669093E+03  0.37116507870E+03  0.00000000000E+00 0. -1.
        -14    1    5    5    0    0 -0.10350872732E+02 -0.29143163097E+02  0.60448144125E+02  0.67900240424E+02  0.00000000000E+00 0.  1.
          5    1    4    4  501    0 -0.92531062703E+01  0.10951066922E+02 -0.17188792167E+02  0.22769998211E+02  0.41800000000E+01 0. -1.
         -5    1    4    4    0  501  0.84736417496E+02  0.91895008463E+02  0.17842460539E+03  0.21789393117E+03  0.41800000000E+01 0. -1.
</event>
<event>
11    1  0.8453735E-009  0.1984565E+03  0.7561462E-02  0.1055621E+00
         22   -1    0    0    0    0  0.00000000000E+00  0.00000000000E+00  0.22570764185E+03  0.22570764185E+03  0.00000000000E+00 0. -1.
         22   -1    0    0    0    0 -0.00000000000E+00 -0.00000000000E+00 -0.13592750073E+04  0.13592750073E+04  0.00000000000E+00 0.  1.
        -24    2    1    2    0    0 -0.31209452194E+02 -0.42547894145E+02 -0.33791112126E+03  0.35091804776E+03  0.78582422758E+02 0.  0.
         25    2    1    2    0    0 -0.11133205223E+03  0.10215706620E+03 -0.96887965362E+03  0.98853681858E+03  0.12508543664E+03 0.  0.
         24    2    1    2    0    0  0.14254150442E+03 -0.59609172051E+02  0.17322340939E+03  0.24552778286E+03  0.80038795097E+02 0.  0.
        -13    1    5    5    0    0  0.32179742930E+02 -0.36436215779E+02  0.99667202403E+02  0.11089041848E+03  0.00000000000E+00 0.  1.
         14    1    5    5    0    0  0.11036176149E+03 -0.23172956272E+02  0.73556206989E+02  0.13463736438E+03  0.00000000000E+00 0. -1.
         13    1    3    3    0    0  0.15140991772E+02  0.11864074058E+02 -0.37804476190E+02  0.42416792725E+02  0.00000000000E+00 0. -1.
        -14    1    3    3    0    0 -0.46350443966E+02 -0.54411968203E+02 -0.30010664507E+03  0.30850125503E+03  0.00000000000E+00 0.  1.
          5    1    4    4  501    0 -0.12817205428E+03  0.65732774499E+02 -0.58267101401E+03  0.60022650401E+03  0.41800000000E+01 0. -1.
         -5    1    4    4    0  501  0.16840002056E+02  0.36424291697E+02 -0.38620863960E+03  0.38831031457E+03  0.41800000000E+01 0. -1.
</event>
<event>
11    1  0.8453735E-009  0.1460875E+03  0.7561462E-02  0.1100945E+00
         22   -1    0    0    0    0  0.00000000000E+00  0.00000000000E+00  0.31403353441E+04  0.31403353441E+04  0.00000000000E+00 0.  1.
         22   -1    0    0    0    0 -0.00000000000E+00 -0.00000000000E+00 -0.12731685683E+03  0.12731685683E+03  0.00000000000E+00 0.  1.
         24    2    1    2    0    0  0.43193453154E+02  0.62173639295E+02 -0.95069597641E+02  0.14574223118E+03  0.80444600407E+02 0.  0.
         25    2    1    2    0    0 -0.15722124030E+02 -0.70743559119E+02  0.85349899572E+03  0.86565551037E+03  0.12508833119E+03 0.  0.
        -24    2    1    2    0    0 -0.27471329124E+02  0.85699198244E+01  0.22545890892E+04  0.22562544594E+04  0.81756387697E+02 0.  0.
        -13    1    3    3    0    0  0.19094527138E+02  0.66088203320E+02 -0.99463851541E+02  0.12093514521E+03  0.00000000000E+00 0.  1.
         14    1    3    3    0    0  0.24098926017E+02 -0.39145640255E+01  0.43942538999E+01  0.24807085963E+02  0.00000000000E+00 0. -1.
         13    1    5    5    0    0 -0.46764120590E+01 -0.27262284274E+02  0.31826958224E+03  0.31946929109E+03  0.00000000000E+00 0. -1.
        -14    1    5    5    0    0 -0.22794917065E+02  0.35832204098E+02  0.19363195069E+04  0.19367851683E+04  0.00000000000E+00 0.  1.
          5    1    4    4  501    0 -0.62509458572E+02 -0.70077815851E+02  0.65272069503E+03  0.65945440388E+03  0.41800000000E+01 0.  1.
         -5    1    4    4    0  501  0.46787334542E+02 -0.66574326747E+00  0.20077830070E+03  0.20620110649E+03  0.41800000000E+01 0.  1.
</event>
<event>
11    1  0.8453735E-009  0.3019895E+03  0.7561462E-02  0.9993527E-01
         22   -1    0    0    0    0  0.00000000000E+00  0.00000000000E+00  0.17167868602E+03  0.17167868602E+03  0.00000000000E+00 0. -1.
         22   -1    0    0    0    0 -0.00000000000E+00 -0.00000000000E+00 -0.80001690744E+03  0.80001690744E+03  0.00000000000E+00 0. -1.
        -24    2    1    2    0    0 -0.29392047972E+03  0.51179364018E+02 -0.31244737849E+03  0.43957318191E+03  0.81195087484E+02 0.  0.
         25    2    1    2    0    0  0.25696381559E+03  0.29763896973E+02 -0.29261945939E+03  0.41010873699E+03  0.12508691400E+03 0.  0.
         24    2    1    2    0    0  0.36956664131E+02 -0.80943260990E+02 -0.23271383542E+02  0.12201367456E+03  0.80175887679E+02 0.  0.
        -13    1    5    5    0    0 -0.23276089874E+02 -0.27106526962E+02  0.57189353368E+01  0.36183509851E+02  0.00000000000E+00 0.  1.
         14    1    5    5    0    0  0.60232754005E+02 -0.53836734029E+02 -0.28990318878E+02  0.85830164712E+02  0.00000000000E+00 0. -1.
         11    1    3    3    0    0 -0.16658802442E+03  0.62975343866E+02 -0.15010102615E+03  0.23291153227E+03  0.00000000000E+00 0. -1.
        -12    1    3    3    0    0 -0.12733245530E+03 -0.11795979849E+02 -0.16234635234E+03  0.20666164964E+03  0.00000000000E+00 0.  1.
          5    1    4    4  501    0  0.17607808360E+03  0.56437016767E+02 -0.25942651077E+03  0.31860353934E+03  0.41800000000E+01 0.  1.
         -5    1    4    4    0  501  0.80885731991E+02 -0.26673119794E+02 -0.33192948614E+02  0.91505197650E+02  0.41800000000E+01 0.  1.
</event>
<event>
11    1  0.8453735E-009  0.1992796E+03  0.7561462E-02  0.1055034E+00
         22   -1    0    0    0    0  0.00000000000E+00  0.00000000000E+00  0.32332036229E+03  0.32332036229E+03  0.00000000000E+00 0. -1.
         22   -1    0    0    0    0 -0.00000000000E+00 -0.00000000000E+00 -0.21461795738E+04  0.21461795738E+04  0.00000000000E+00 0.  1.
         24    2    1    2    0    0  0.10855327651E+03  0.64753256915E+02 -0.17235370861E+04  0.17299585698E+04  0.78738605742E+02 0.  0.
         25    2    1    2    0    0 -0.24439616071E+03  0.14051144699E+00 -0.34488975666E+03  0.44082429525E+03  0.12509041496E+03 0.  0.
        -24    2    1    2    0    0  0.13584288420E+03 -0.64893768362E+02  0.24556763118E+03  0.29871707108E+03  0.79145035902E+02 0.  0.
        -11    1    3    3    0    0  0.63766744922E+02  0.26850555662E+02 -0.13563378497E+04  0.13581014368E+04  0.00000000000E+00 0.  1.
         12    1    3    3    0    0  0.44786531586E+02  0.37902701252E+02 -0.36719923640E+03  0.37185713303E+03  0.00000000000E+00 0. -1.
         13    1    5    5    0    0  0.72210108233E+02 -0.19873064142E+02  0.18631450866E+03  0.20080421945E+03  0.00000000000E+00 0. -1.
        -14    1    5    5    0    0  0.63632775970E+02 -0.45020704219E+02  0.59253122518E+02  0.97912851629E+02  0.00000000000E+00 0.  1.
          5    1    4    4  501    0 -0.84513266618E+00 -0.45991716015E+01 -0.82607304702E+02  0.82845071180E+02  0.41800000000E+01 0. -1.
         -5    1    4    4    0  501 -0.24355102805E+03  0.47396830485E+01 -0.26228245196E+03  0.35797922407E+03  0.41800000000E+01 0. -1.
</event>
<event>
11    1  0.8453735E-009  0.1647391E+03  0.7561462E-02  0.1082703E+00
         22   -1    0    0    0    0  0.00000000000E+00  0.00000000000E+00  0.81878768085E+03  0.81878768085E+03  0.00000000000E+00 0.  1.
         22   -1    0    0    0    0 -0.00000000000E+00 -0.00000000000E+00 -0.74499160076E+02  0.74499160076E+02  0.00000000000E+00 0.  1.
         24    2    1    2    0    0 -0.15240445297E+02  0.60812098586E+02  0.16507568921E+02  0.10414072245E+03  0.81500967687E+02 0.  0.
         25    2    1    2    0    0  0.55290865885E+02 -0.13245667073E+03  0.48375623343E+03  0.51987678638E+03  0.12509968090E+03 0.  0.
        -24    2    1    2    0    0 -0.40050420588E+02  0.71644572146E+02  0.24402471842E+03  0.26926933210E+03  0.78872866681E+02 0.  0.
        -11    1    3    3    0    0 -0.45831727095E+02  0.46378720645E+02 -0.26677151184E+01  0.65258330052E+02  0.00000000000E+00 0.  1.
         12    1    3    3    0    0  0.30591281798E+02  0.14433377941E+02  0.19175284039E+02  0.38882392401E+02  0.00000000000E+00 0. -1.
         11    1    5    5    0    0 -0.66553121452E+01  0.78809242008E+02  0.15736986773E+03  0.17612627594E+03  0.00000000000E+00 0. -1.
        -12    1    5    5    0    0 -0.33395108443E+02 -0.71646698625E+01  0.86654850691E+02  0.93143056158E+02  0.00000000000E+00 0.  1.
          5    1    4    4  501    0 -0.34205969796E+02 -0.43446197190E+02  0.84067816469E+02  0.10070993291E+03  0.41800000000E+01 0. -1.
         -5    1    4    4    0  501  0.89496835680E+02 -0.89010473542E+02  0.39968841696E+03  0.41916685347E+03  0.41800000000E+01 0. -1.
</event>
<event>
11    1  0.8453735E-009  0.1554422E+03  0.7561462E-02  0.1091444E+00
         22   -1    0    0    0    0  0.00000000000E+00  0.00000000000E+00  0.12261575515E+03  0.12261575515E+03  0.00000000000E+00 0.  1.
         22   -1    0    0    0    0 -0.00000000000E+00 -0.00000000000E+00 -0.19140097623E+04  0.19140097623E+04  0.00000000000E+00 0. -1.
        -24    2    1    2    0    0 -0.19658452376E+02  0.72991785959E+02 -0.12391009132E+04  0.12434927231E+04  0.72033489461E+02 0.  0.
         25    2    1    2    0    0 -0.15591337795E+02 -0.15543270648E+03 -0.62778715464E+03  0.65891324596E+03  0.12509011993E+03 0.  0.
         24    2    1    2    0    0  0.35249790170E+02  0.82440920525E+02  0.75494060712E+02  0.13421954842E+03  0.65394807833E+02 0.  0.
        -13    1    5    5    0    0  0.42520345291E+01  0.75095722344E+02  0.68216325048E+02  0.10154267238E+03  0.00000000000E+00 0.  1.
         14    1    5    5    0    0  0.30997755641E+02  0.73451981819E+01  0.72777356636E+01  0.32676876037E+02  0.00000000000E+00 0. -1.
         11    1    3    3    0    0 -0.20703032814E+02  0.77233069129E+02 -0.12347197194E+04  0.12373060850E+04  0.00000000000E+00 0. -1.
        -12    1    3    3    0    0  0.10445804379E+01 -0.42412831700E+01 -0.43811938559E+01  0.61866380872E+01  0.00000000000E+00 0.  1.
          5    1    4    4  501    0  0.21556384845E+02 -0.30713405022E+02 -0.35107902703E+03  0.35310330867E+03  0.41800000000E+01 0.  1.
         -5    1    4    4    0  501 -0.37147722640E+02 -0.12471930146E+03 -0.27670812761E+03  0.30580993728E+03  0.41800000000E+01 0.  1.
</event>
<event>
11    1  0.8453735E-009  0.2871134E+03  0.7561462E-02  0.1005798E+00
         22   -1    0    0    0    0  0.00000000000E+00  0.00000000000E+00  0.84900460899E+03  0.84900460899E+03  0.00000000000E+00 0. -1.
         22   -1    0    0    0    0 -0.00000000000E+00 -0.00000000000E+00 -0.19266284362E+03  0.19266284362E+03  0.00000000000E+00 0.  1.
        -24    2    1    2    0    0 -0.16145291751E+03 -0.10297807911E+02  0.48638065417E+02  0.18745341453E+03  0.81240579706E+02 0.  0.
         25    2    1    2    0    0  0.25844436673E+03  0.21365563051E+03  0.32496789518E+03  0.48342005887E+03  0.12509436952E+03 0.  0.
         24    2    1    2    0    0 -0.96991449214E+02 -0.20335782260E+03  0.28273580478E+03  0.37079397920E+03  0.82382610255E+02 0.  0.
        -13    1    5    5    0    0 -0.10349724235E+03 -0.12970397340E+03  0.19358532965E+03  0.25497074292E+03  0.00000000000E+00 0.  1.
         14    1    5    5    0    0  0.65057931348E+01 -0.73653849198E+02  0.89150475132E+02  0.11582323628E+03  0.00000000000E+00 0. -1.
         11    1    3    3    0    0 -0.17103271219E+03 -0.82379126009E+01  0.45732037831E+02  0.17723281617E+03  0.00000000000E+00 0. -1.
        -12    1    3    3    0    0  0.95797946723E+01 -0.20598953097E+01  0.29060275858E+01  0.10220598367E+02  0.00000000000E+00 0.  1.
          5    1    4    4  501    0 -0.12337422454E+02  0.21494694372E+02  0.15636879949E+02  0.29600984671E+02  0.41800000000E+01 0. -1.
         -5    1    4    4    0  501  0.27078178918E+03  0.19216093614E+03  0.30933101523E+03  0.45381907420E+03  0.41800000000E+01 0. -1.
</event>
<event>
11    1  0.8453735E-009  0.1667795E+03  0.7561462E-02  0.1080869E+00
         22   -1    0    0    0    0  0.00000000000E+00  0.00000000000E+00  0.18550726364E+04  0.18550726364E+04  0.00000000000E+00 0.  1.
         22   -1    0    0    0    0 -0.00000000000E+00 -0.00000000000E+00 -0.87608868227E+02  0.87608868227E+02  0.00000000000E+00 0. -1.
         24    2    1    2    0    0 -0.27762504102E+02 -0.10939124831E+03 -0.17855285302E+02  0.13960066093E+03  0.80201817183E+02 0.  0.
         25    2    1    2    0    0 -0.55321520020E+01  0.79240129973E+02  0.81687446967E+03  0.83020684488E+03  0.12509957309E+03 0.  0.
        -24    2    1    2    0    0  0.33294656104E+02  0.30151118334E+02  0.96844458377E+03  0.97287399877E+03  0.81125098458E+02 0.  0.
        -13    1    3    3    0    0  0.28131596790E+02 -0.44884421901E+02 -0.97653259477E+01  0.53864270701E+02  0.00000000000E+00 0.  1.
         14    1    3    3    0    0 -0.55894100892E+02 -0.64506826406E+02 -0.80899593543E+01  0.85736390231E+02  0.00000000000E+00 0. -1.
         13    1    5    5    0    0 -0.10024407930E+02  0.79146693594E+01  0.24103453510E+02  0.27278328698E+02  0.00000000000E+00 0. -1.
        -14    1    5    5    0    0  0.43319064033E+02  0.22236448974E+02  0.94434113026E+03  0.94559567007E+03  0.00000000000E+00 0.  1.
          5    1    4    4  501    0 -0.51032781991E+02 -0.41488363748E+01  0.22894031919E+03  0.23463311751E+03  0.41800000000E+01 0.  1.
         -5    1    4    4    0  501  0.45500629989E+02  0.83388966348E+02  0.58793415048E+03  0.59557372738E+03  0.41800000000E+01 0.  1.
</event>
<event>
11    1  0.8453735E-009  0.1362406E+03  0.7561462E-02  0.1111831E+00
         22   -1    0    0    0    0  0.00000000000E+00  0.00000000000E+00  0.97434928361E+03  0.97434928361E+03  0.00000000000E+00 0.  1.
         22   -1    0    0    0    0 -0.00000000000E+00 -0.00000000000E+00 -0.17471366262E+03  0.17471366262E+03  0.00000000000E+00 0.  1.
        -24    2    1    2    0    0  0.30052903383E+02 -0.41877003234E+02 -0.11307582897E+03  0.14721749949E+03  0.78930277188E+02 0.  0.
         25    2    1    2    0    0 -0.42512223488E+02  0.57394255287E+02  0.79041839927E+02  0.16430337048E+03  0.12508635180E+03 0.  0.
         24    2    1    2    0    0  0.12459320105E+02 -0.15517252052E+02  0.83366961004E+03  0.83754207627E+03  0.77946719321E+02 0.  0.
        -13    1    5    5    0    0  0.32341365611E+02 -0.12029928156E+02  0.76948256834E+03  0.77025587052E+03  0.00000000000E+00 0.  1.
         14    1    5    5    0    0 -0.19882045506E+02 -0.34873238964E+01  0.64187041700E+02  0.67286205745E+02  0.00000000000E+00 0. -1.
         11    1    3    3    0    0  0.12490824110E+02 -0.50663638341E+02 -0.26656659351E+02  0.58595242338E+02  0.00000000000E+00 0. -1.
        -12    1    3    3    0    0  0.17562079273E+02  0.87866351069E+01 -0.86419169619E+02  0.88622257150E+02  0.00000000000E+00 0.  1.
          5    1    4    4  501    0  0.10207659762E+02  0.11737535306E+01 -0.29270986464E+02  0.31302349173E+02  0.41800000000E+01 0.  1.
         -5    1    4    4    0  501 -0.52719883251E+02  0.56220501756E+02  0.10831282639E+03  0.13300102131E+03  0.41800000000E+01 0.  1.
</event>
<event>
11    1  0.8453735E-009  0.1303984E+03  0.7561462E-02  0.1118780E+00
         22   -1    0    0    0    0  0.00000000000E+00  0.00000000000E+00  0.81067911145E+03  0.81067911145E+03  0.00000000000E+00 0. -1.
         22   -1    0    0    0    0 -0.00000000000E+00 -0.00000000000E+00 -0.10761204226E+04  0.10761204226E+04  0.00000000000E+00 0.  1.
        -24    2    1    2    0    0  0.17486243918E+02  0.13135387607E+02 -0.10593629350E+04  0.10621257604E+04  0.73368901393E+02 0.  0.
         25    2    1    2    0    0  0.16954973159E+02  0.14626732880E+02  0.38727937973E+03  0.40759622601E+03  0.12509177858E+03 0.  0.
         24    2    1    2    0    0 -0.34441217077E+02 -0.27762120488E+02  0.40664224405E+03  0.41707754773E+03  0.81479036621E+02 0.  0.
        -13    1    5    5    0    0  0.92184836755E+01 -0.22351883379E+02  0.33298284771E+02  0.41150490891E+02  0.00000000000E+00 0.  1.
         14    1    5    5    0    0 -0.43659700753E+02 -0.54102371086E+01  0.37334395928E+03  0.37592705684E+03  0.00000000000E+00 0. -1.
         13    1    3    3    0    0  0.30774631675E+01 -0.18161020754E+02 -0.77515524302E+02  0.79674023133E+02  0.00000000000E+00 0. -1.
        -14    1    3    3    0    0  0.14408780751E+02  0.31296408361E+02 -0.98184741066E+03  0.98245173722E+03  0.00000000000E+00 0.  1.
          5    1    4    4  501    0  0.46653309637E+02  0.47494984162E+02  0.12612965582E+03  0.14268310095E+03  0.41800000000E+01 0.  1.
         -5    1    4    4    0  501 -0.29698336478E+02 -0.32868251281E+02  0.26114972391E+03  0.26491312506E+03  0.41800000000E+01 0.  1.
</event>
<event>
11    1  0.8453735E-009  0.2162377E+03  0.7561462E-02  0.1043600E+00
         22   -1    0    0    0    0  0.00000000000E+00  0.00000000000E+00  0.49466152452E+03  0.49466152452E+03  0.00000000000E+00 0. -1.
         22   -1    0    0    0    0 -0.00000000000E+00 -0.00000000000E+00 -0.33561475231E+04  0.33561475231E+04  0.00000000000E+00 0.  1.
        -24    2    1    2    0    0  0.23538898086E+02 -0.30914236991E+02 -0.30427619483E+04  0.30446823666E+04  0.10089930285E+03 0.  0.
         25    2    1    2    0    0  0.14764382107E+03  0.77483540616E+02 -0.25270328817E+03  0.32758142757E+03  0.12509293692E+03 0.  0.
         24    2    1    2    0    0 -0.17118271916E+03 -0.46569303626E+02  0.43397923795E+03  0.47854525346E+03  0.95892425459E+02 0.  0.
        -13    1    5    5    0    0 -0.54938619037E+02 -0.56140477683E+02  0.11825886684E+03  0.14196888632E+03  0.00000000000E+00 0.  1.
         14    1    5    5    0    0 -0.11624410012E+03  0.95711740570E+01  0.31572037111E+03  0.33657636714E+03  0.00000000000E+00 0. -1.
         13    1    3    3    0    0 -0.10848225909E+02  0.22446244933E+02 -0.25908533720E+03  0.26028201987E+03  0.00000000000E+00 0. -1.
        -14    1    3    3    0    0  0.34387123995E+02 -0.53360481923E+02 -0.27836766111E+04  0.27844003467E+04  0.00000000000E+00 0.  1.
          5    1    4    4  501    0 -0.20855911925E+02  0.16253872309E+02 -0.51631551419E+02  0.58158807839E+02  0.41800000000E+01 0.  1.
         -5    1    4    4    0  501  0.16849973300E+03  0.61229668307E+02 -0.20107173675E+03  0.26942261973E+03  0.41800000000E+01 0.  1.
</event>
<event>
11    1  0.8453735E-009  0.1367583E+03  0.7561462E-02  0.1111233E+00
         22   -1    0    0    0    0  0.00000000000E+00  0.00000000000E+00  0.36411934263E+03  0.36411934263E+03  0.00000000000E+00 0. -1.
         22   -1    0    0    0    0 -0.00000000000E+00 -0.00000000000E+00 -0.13459259818E+04  0.13459259818E+04  0.00000000000E+00 0. -1.
         24    2    1    2    0    0  0.18243265929E+02  0.10931276629E+02 -0.11823162687E+04  0.11852929886E+04  0.81212067417E+02 0.  0.
         25    2    1    2    0    0  0.17293188549E+02  0.32543930121E+02 -0.12756061296E+03  0.18242184407E+03  0.12509139642E+03 0.  0.
        -24    2    1    2    0    0 -0.35536454478E+02 -0.43475206750E+02  0.32807024248E+03  0.34233049183E+03  0.80044665257E+02 0.  0.
        -11    1    3    3    0    0  0.40612075087E+02  0.22489061961E+02 -0.41941530946E+03  0.42197665855E+03  0.00000000000E+00 0.  1.
         12    1    3    3    0    0 -0.22368809158E+02 -0.11557785332E+02 -0.76290095928E+03  0.76331633003E+03  0.00000000000E+00 0. -1.
         13    1    5    5    0    0 -0.35958218306E+02 -0.21998569337E+02  0.31362316798E+03  0.31644339464E+03  0.00000000000E+00 0. -1.
        -14    1    5    5    0    0  0.42176382795E+00 -0.21476637413E+02  0.14447074499E+02  0.25887097189E+02  0.00000000000E+00 0.  1.
          5    1    4    4  501    0  0.64889083047E+02  0.32776625130E+02 -0.41043018237E+02  0.83587690479E+02  0.41800000000E+01 0.  1.
         -5    1    4    4    0  501 -0.47595894497E+02 -0.23269500828E+00 -0.86517594719E+02  0.98834153591E+02  0.41800000000E+01 0.  1.
</event>
<event>
11    1  0.8453735E-009  0.1366786E+03  0.7561462E-02  0.1111325E+00
         22   -1    0    0    0    0  0.00000000000E+00  0.00000000000E+00  0.10659302755E+04  0.10659302755E+04  0.00000000000E+00 0. -1.
         22   -1    0    0    0    0 -0.00000000000E+00 -0.00000000000E+00 -0.45548060709E+03  0.45548060709E+03  0.00000000000E+00 0.  1.
        -24    2    1    2    0    0 -0.43171595475E+02  0.88766536406E+00 -0.25172674669E+03  0.26844621180E+03  0.82658568965E+02 0.  0.
         25    2    1    2    0    0  0.11588557309E+01 -0.37122670693E+02 -0.17105596681E+03  0.21513763485E+03  0.12507846547E+03 0.  0.
         24    2    1    2    0    0  0.42012739744E+02  0.36235005329E+02  0.10332323819E+04  0.10378270359E+04  0.80235625435E+02 0.  0.
        -13    1    5    5    0    0 -0.51501982428E+01  0.38928015491E+02  0.71818289155E+03  0.71925557394E+03  0.00000000000E+00 0.  1.
         14    1    5    5    0    0  0.47162937986E+02 -0.26930101622E+01  0.31504949034E+03  0.31857146198E+03  0.00000000000E+00 0. -1.
         11    1    3    3    0    0 -0.43965879527E+02 -0.12026506284E+02 -0.25140499832E+03  0.25550363715E+03  0.00000000000E+00 0. -1.
        -12    1    3    3    0    0  0.79428405252E+00  0.12914171648E+02 -0.32174837028E+00  0.12942574648E+02  0.00000000000E+00 0.  1.
          5    1    4    4  501    0  0.17199779633E+01 -0.77894630596E+02 -0.65400698690E+02  0.10180989927E+03  0.41800000000E+01 0.  1.
         -5    1    4    4    0  501 -0.56112223234E+00  0.40771959903E+02 -0.10565526812E+03  0.11332773559E+03  0.41800000000E+01 0.  1.
</event>
<event>
11    1  0.8453735E-009  0.1433983E+03  0.7561462E-02  0.1103822E+00
         22   -1    0    0    0    0  0.00000000000E+00  0.00000000000E+00  0.16006979683E+04  0.16006979683E+04  0.00000000000E+00 0. -1.
         22   -1    0    0    0    0 -0.00000000000E+00 -0.00000000000E+00 -0.29206232335E+03  0.29206232335E+03  0.00000000000E+00 0. -1.
         24    2    1    2    0    0 -0.11408433217E+02  0.16517989413E+02 -0.26370976868E+03  0.27655113694E+03  0.80837447542E+02 0.  0.
         25    2    1    2    0    0 -0.12581641503E+02  0.51409043070E+02  0.21381332718E+03  0.25330782316E+03  0.12509007547E+03 0.  0.
        -24    2    1    2    0    0  0.23990074720E+02 -0.67927032483E+02  0.13585320864E+04  0.13629013315E+04  0.81859661483E+02 0.  0.
        -11    1    3    3    0    0  0.18260454797E+02  0.35958991899E+02 -0.81638105297E+02  0.91056430549E+02  0.00000000000E+00 0.  1.
         12    1    3    3    0    0 -0.29668888014E+02 -0.19441002486E+02 -0.18207166338E+03  0.18549470639E+03  0.00000000000E+00 0. -1.
         11    1    5    5    0    0 -0.21048950368E+02 -0.43483861883E+02  0.38464356003E+03  0.38766554248E+03  0.00000000000E+00 0. -1.
        -12    1    5    5    0    0  0.45039025088E+02 -0.24443170600E+02  0.97388852641E+03  0.97523578905E+03  0.00000000000E+00 0.  1.
          5    1    4    4  501    0 -0.56373577046E+02  0.66052958345E+02  0.11506357156E+03  0.14421536463E+03  0.41800000000E+01 0.  1.
         -5    1    4    4    0  501  0.43791935543E+02 -0.14643915274E+02  0.98749755622E+02  0.10909245853E+03  0.41800000000E+01 0.  1.
</event>
<event>
11    1  0.8453735E-009  0.1383032E+03  0.7561462E-02  0.1109468E+00
         22   -1    0    0    0    0  0.00000000000E+00  0.00000000000E+00  0.10519434239E+04  0.10519434239E+04  0.00000000000E+00 0.  1.
         22   -1    0    0    0    0 -0.00000000000E+00 -0.00000000000E+00 -0.22560174827E+03  0.22560174827E+03  0.00000000000E+00 0.  1.
        -24    2    1    2    0    0  0.46181246139E+02  0.45687656802E+02 -0.16555964007E+03  0.20176745794E+03  0.95289260584E+02 0.  0.
         25    2    1    2    0    0  0.80692976244E+01 -0.38359670029E+02  0.71798156356E+02  0.14946173594E+03  0.12508899794E+03 0.  0.
         24    2    1    2    0    0 -0.54250543763E+02 -0.73279867732E+01  0.92010315940E+03  0.92631597834E+03  0.92057845376E+02 0.  0.
        -13    1    5    5    0    0 -0.73053282038E+02  0.16118404976E+02  0.56266389031E+03  0.56761539660E+03  0.00000000000E+00 0.  1.
         14    1    5    5    0    0  0.18802738275E+02 -0.23446391749E+02  0.35743926909E+03  0.35870058174E+03  0.00000000000E+00 0. -1.
         13    1    3    3    0    0  0.36048611502E+02 -0.16077032019E+02 -0.22073307364E+02  0.45223934456E+02  0.00000000000E+00 0. -1.
        -14    1    3    3    0    0  0.10132634637E+02  0.61764688820E+02 -0.14348633271E+03  0.15654352348E+03  0.00000000000E+00 0.  1.
          5    1    4    4  501    0  0.75986831644E+01 -0.65044023371E+02  0.93901468244E+02  0.11455751001E+03  0.41800000000E+01 0. -1.
         -5    1    4    4    0  501  0.47061446002E+00  0.26684353342E+02 -0.22103311888E+02  0.34904225928E+02  0.41800000000E+01 0. -1.
</event>
<event>
11    1  0.8876100E-009  0.1984809E+03  0.7561462E-02  0.1055603E+00
         22   -1    0    0    0    0  0.00000000000E+00  0.00000000000E+00  0.11066594808E+04  0.11066594808E+04  0.00000000000E+00 0.  1.
         22   -1    0    0    0    0 -0.00000000000E+00 -0.00000000000E+00 -0.36095867989E+03  0.36095867989E+03  0.00000000000E+00 0.  1.
        -24    2    1    2    0    0 -0.18991639333E+02 -0.62967934632E+02 -0.23086808802E+03  0.25326499806E+03  0.80730675821E+02 0.  0.
         25    2    1    2    0    0 -0.13435177793E+03  0.34352919710E+02 -0.32933395949E+02  0.18963728586E+03  0.12508864175E+03 0.  0.
         24    2    1    2    0    0  0.15334341726E+03  0.28615014922E+02  0.10095022849E+04  0.10247158768E+04  0.81331065544E+02 0.  0.
        -11    1    5    5    0    0  0.12684157183E+03  0.46723071403E+02  0.65737297773E+03  0.67112671054E+03  0.00000000000E+00 0.  1.
         12    1    5    5    0    0  0.26501845431E+02 -0.18108056482E+02  0.35212930720E+03  0.35358916628E+03  0.00000000000E+00 0. -1.
         11    1    3    3    0    0 -0.40789058132E+02 -0.29494482627E+02 -0.62632982401E+02  0.80352736438E+02  0.00000000000E+00 0. -1.
        -12    1    3    3    0    0  0.21797418799E+02 -0.33473452005E+02 -0.16823510562E+03  0.17291226162E+03  0.00000000000E+00 0.  1.
          5    1    4    4  501    0 -0.13176883230E+02  0.56449890945E+02 -0.32093373338E+02  0.66390341554E+02  0.41800000000E+01 0. -1.
         -5    1    4    4    0  501 -0.12117489470E+03 -0.22096971235E+02 -0.84002261068E+00  0.12324694431E+03  0.41800000000E+01 0. -1.
</event>
<event>
11    1  0.8453735E-009  0.1833465E+03  0.7561462E-02  0.1066968E+00
         22   -1    0    0    0    0  0.00000000000E+00  0.00000000000E+00  0.17345814799E+04  0.17345814799E+04  0.00000000000E+00 0. -1.
         22   -1    0    0    0    0 -0.00000000000E+00 -0.00000000000E+00 -0.65283691375E+02  0.65283691375E+02  0.00000000000E+00 0.  1.
        -24    2    1    2    0    0  0.33242551636E-01  0.40020392130E+02  0.84219098534E+01  0.92016556528E+02  0.82428667455E+02 0.  0.
         25    2    1    2    0    0 -0.12691914547E+03 -0.74664124758E+02  0.48691283664E+03  0.52384680701E+03  0.12509262854E+03 0.  0.
         24    2    1    2    0    0  0.12688590292E+03  0.34643732628E+02  0.11739630420E+04  0.11840018077E+04  0.79817517511E+02 0.  0.
        -11    1    5    5    0    0  0.38286240200E+02  0.13269492326E+02  0.13247736846E+03  0.13853580320E+03  0.00000000000E+00 0.  1.
         12    1    5    5    0    0  0.88599662723E+02  0.21374240302E+02  0.10414856736E+04  0.10454660045E+04  0.00000000000E+00 0. -1.
         13    1    3    3    0    0 -0.17022647050E+02  0.10020670414E+02  0.40398977033E+02  0.44969564079E+02  0.00000000000E+00 0. -1.
        -14    1    3    3    0    0  0.17055889602E+02  0.29999721716E+02 -0.31977067179E+02  0.47046992449E+02  0.00000000000E+00 0.  1.
          5    1    4    4  501    0 -0.10707645437E+03 -0.41600060367E+02  0.46562067007E+03  0.47959984665E+03  0.41800000000E+01 0. -1.
         -5    1    4    4    0  501 -0.19842691100E+02 -0.33064064392E+02  0.21292166567E+02  0.44246960362E+02  0.41800000000E+01 0. -1.
</event>
<event>
11    1  0.8453735E-009  0.1462258E+03  0.7561462E-02  0.1100799E+00
         22   -1    0    0    0    0  0.00000000000E+00  0.00000000000E+00  0.48479520717E+03  0.48479520717E+03  0.00000000000E+00 0.  1.
         22   -1    0    0    0    0 -0.00000000000E+00 -0.00000000000E+00 -0.11216768407E+04  0.11216768407E+04  0.00000000000E+00 0. -1.
         24    2    1    2    0    0 -0.32806479415E+02 -0.48936974297E+02 -0.10746397056E+04  0.10791277875E+04  0.78709544078E+02 0.  0.
         25    2    1    2    0    0 -0.50093430877E+02  0.36333531463E+02  0.10438289178E+03  0.17428339102E+03  0.12509770167E+03 0.  0.
        -24    2    1    2    0    0  0.82899910292E+02  0.12603442834E+02  0.33337518037E+03  0.35306086928E+03  0.80509158692E+02 0.  0.
        -13    1    3    3    0    0 -0.24423568642E+02  0.89948978496E+01 -0.64427933418E+03  0.64480483818E+03  0.00000000000E+00 0.  1.
         14    1    3    3    0    0 -0.83829107731E+01 -0.57931872147E+02 -0.43036037147E+03  0.43432294935E+03  0.00000000000E+00 0. -1.
         13    1    5    5    0    0 -0.12286328208E+02  0.29414693600E+01  0.10879740194E+02  0.16672577770E+02  0.00000000000E+00 0. -1.
        -14    1    5    5    0    0  0.95186238500E+02  0.96619734744E+01  0.32249544018E+03  0.33638829151E+03  0.00000000000E+00 0.  1.
          5    1    4    4  501    0 -0.11595995174E+02  0.76703191731E+02  0.84822702708E+02  0.11502265003E+03  0.41800000000E+01 0.  1.
         -5    1    4    4    0  501 -0.38497435704E+02 -0.40369660268E+02  0.19560189069E+02  0.59260740987E+02  0.41800000000E+01 0.  1.
</event>
<event>
11    1  0.8453735E-009  0.1294095E+03  0.7561462E-02  0.1119997E+00
         22   -1    0    0    0    0  0.00000000000E+00  0.00000000000E+00  0.61211024749E+03  0.61211024749E+03  0.00000000000E+00 0. -1.
         22   -1    0    0    0    0 -0.00000000000E+00 -0.00000000000E+00 -0.28987792396E+04  0.28987792396E+04  0.00000000000E+00 0.  1.
        -24    2    1    2    0    0 -0.26889282164E+02 -0.23621514851E+01 -0.18076343471E+04  0.18096331955E+04  0.80633470260E+02 0.  0.
         25    2    1    2    0    0  0.15967344825E+01  0.23934908095E+02 -0.10832384534E+04  0.10906999417E+04  0.12508151952E+03 0.  0.
         24    2    1    2    0    0  0.25292547682E+02 -0.21572756610E+02  0.60420380838E+03  0.61055634980E+03  0.81312467840E+02 0.  0.
        -11    1    5    5    0    0  0.18953029069E+02  0.27033185651E+02  0.14333722904E+03  0.14709035205E+03  0.00000000000E+00 0.  1.
         12    1    5    5    0    0  0.63395186124E+01 -0.48605942261E+02  0.46086657934E+03  0.46346599775E+03  0.00000000000E+00 0. -1.
         13    1    3    3    0    0 -0.44521382902E+02  0.25588062883E+02 -0.98923938508E+03  0.99057128137E+03  0.00000000000E+00 0. -1.
        -14    1    3    3    0    0  0.17632100738E+02 -0.27950214369E+02 -0.81839496198E+03  0.81906191418E+03  0.00000000000E+00 0.  1.
          5    1    4    4  501    0  0.59066245908E+02 -0.36416972594E+01 -0.66095370451E+03  0.66361084625E+03  0.41800000000E+01 0.  1.
         -5    1    4    4    0  501 -0.57469511425E+02  0.27576605355E+02 -0.42228474892E+03  0.42708909548E+03  0.41800000000E+01 0.  1.
</event>
<event>
11    1  0.8453735E-009  0.1295338E+03  0.7561462E-02  0.1119843E+00
         22   -1    0    0    0    0  0.00000000000E+00  0.00000000000E+00  0.16743054661E+03  0.16743054661E+03  0.00000000000E+00 0. -1.
         22   -1    0    0    0    0 -0.00000000000E+00 -0.00000000000E+00 -0.24005034419E+03  0.24005034419E+03  0.00000000000E+00 0. -1.
         24    2    1    2    0    0  0.19089108443E+02 -0.17066361005E+02 -0.13684993345E+03  0.16018201488E+03  0.79213123069E+02 0.  0.
         25    2    1    2    0    0 -0.32645058474E+02 -0.15378506702E+02 -0.83757709988E+01  0.13045755977E+03  0.12508726174E+03 0.  0.
        -24    2    1    2    0    0  0.13555950031E+02  0.32444867707E+02  0.72605906865E+02  0.11684131615E+03  0.84521253106E+02 0.  0.
        -13    1    3    3    0    0 -0.15535858371E+01 -0.46827639830E+02 -0.82308324505E+02  0.94709565324E+02  0.00000000000E+00 0.  1.
         14    1    3    3    0    0  0.20642694280E+02  0.29761278826E+02 -0.54541608949E+02  0.65472449559E+02  0.00000000000E+00 0. -1.
         13    1    5    5    0    0 -0.80832985239E+01 -0.16747870724E+02  0.58348669499E+02  0.61240494128E+02  0.00000000000E+00 0. -1.
        -14    1    5    5    0    0  0.21639248555E+02  0.49192738430E+02  0.14257237366E+02  0.55600822023E+02  0.00000000000E+00 0.  1.
          5    1    4    4  501    0  0.22715867859E+02  0.41572696841E+02  0.10523296330E+02  0.48708438087E+02  0.41800000000E+01 0. -1.
         -5    1    4    4    0  501 -0.55360926334E+02 -0.56951203543E+02 -0.18899067328E+02  0.81749121680E+02  0.41800000000E+01 0. -1.
</event>
<event>
11    1  0.8453735E-009  0.1438415E+03  0.7561462E-02  0.1103343E+00
         22   -1    0    0    0    0  0.00000000000E+00  0.00000000000E+00  0.12424086165E+03  0.12424086165E+03  0.00000000000E+00 0. -1.
         22   -1    0    0    0    0 -0.00000000000E+00 -0.00000000000E+00 -0.95681705030E+03  0.95681705030E+03  0.00000000000E+00 0.  1.
        -24    2    1    2    0    0 -0.89803084362E+02  0.71831779915E+01 -0.47149192096E+03  0.48669296630E+03  0.80307035228E+02 0.  0.
         25    2    1    2    0    0  0.38364338360E+02 -0.39004387424E+02 -0.44340555213E+03  0.46394902495E+03  0.12508816650E+03 0.  0.
         24    2    1    2    0    0  0.51438746002E+02  0.31821209432E+02  0.82321284436E+02  0.13041592071E+03  0.81073944906E+02 0.  0.
        -13    1    5    5    0    0  0.50868885588E+02  0.10068371406E+01  0.10069809935E+02  0.51865772087E+02  0.00000000000E+00 0.  1.
         14    1    5    5    0    0  0.56986041317E+00  0.30814372292E+02  0.72251474501E+02  0.78550148620E+02  0.00000000000E+00 0. -1.
         13    1    3    3    0    0 -0.52861569113E+02  0.82551290168E+01 -0.10040419249E+03  0.11376947971E+03  0.00000000000E+00 0. -1.
        -14    1    3    3    0    0 -0.36941515249E+02 -0.10719510253E+01 -0.37108772847E+03  0.37292348658E+03  0.00000000000E+00 0.  1.
          5    1    4    4  501    0 -0.17746079542E+02 -0.11608274567E+02 -0.64794778530E+01  0.22563940497E+02  0.41800000000E+01 0. -1.
         -5    1    4    4    0  501  0.56110417902E+02 -0.27396112857E+02 -0.43692607427E+03  0.44138508445E+03  0.41800000000E+01 0. -1.
</event>
<event>
11    1  0.8453735E-009  0.1364218E+03  0.7561462E-02  0.1111621E+00
         22   -1    0    0    0    0  0.00000000000E+00  0.00000000000E+00  0.18541110247E+04  0.18541110247E+04  0.00000000000E+00 0.  1.
         22   -1    0    0    0    0 -0.00000000000E+00 -0.00000000000E+00 -0.26534343307E+03  0.26534343307E+03  0.00000000000E+00 0. -1.
         24    2    1    2    0    0  0.89047051516E+01 -0.44101121955E+02 -0.13889479720E+03  0.16722326530E+03  0.81533140723E+02 0.  0.
         25    2    1    2    0    0 -0.49755710785E+02  0.77329766490E+01 -0.70063454038E+02  0.15195935113E+03  0.12508927660E+03 0.  0.
        -24    2    1    2    0    0  0.40851005633E+02  0.36368145306E+02  0.17977258429E+04  0.18002718413E+04  0.78543299652E+02 0.  0.
        -13    1    3    3    0    0  0.25324019479E+01 -0.34538128800E+02 -0.76364147940E+01  0.35462800673E+02  0.00000000000E+00 0.  1.
         14    1    3    3    0    0  0.63723032036E+01 -0.95629931547E+01 -0.13125838241E+03  0.13176046463E+03  0.00000000000E+00 0. -1.
         13    1    5    5    0    0 -0.16344607562E+02  0.15752916028E+02  0.18310359033E+03  0.18450535318E+03  0.00000000000E+00 0. -1.
        -14    1    5    5    0    0  0.57195613195E+02  0.20615229278E+02  0.16146222525E+04  0.16157664882E+04  0.00000000000E+00 0.  1.
          5    1    4    4  501    0 -0.13273536813E+01  0.53182960248E+02 -0.66573456058E+02  0.85321079342E+02  0.41800000000E+01 0. -1.
         -5    1    4    4    0  501 -0.48428357104E+02 -0.45449983599E+02 -0.34899979792E+01  0.66638271787E+02  0.41800000000E+01 0. -1.
</event>
<event>
11    1  0.8453735E-009  0.1583071E+03  0.7561462E-02  0.1088680E+00
         22   -1    0    0    0    0  0.00000000000E+00  0.00000000000E+00  0.91487521103E+03  0.91487521103E+03  0.00000000000E+00 0. -1.
         22   -1    0    0    0    0 -0.00000000000E+00 -0.00000000000E+00 -0.62291206617E+03  0.62291206617E+03  0.00000000000E+00 0. -1.
         24    2    1    2    0    0  0.15332244375E+01 -0.13584690510E+03 -0.57803111448E+03  0.59916376552E+03  0.80128123686E+02 0.  0.
         25    2    1    2    0    0  0.18791187558E+02  0.15155832846E+02  0.12231308748E+03  0.17660849053E+03  0.12508900654E+03 0.  0.
        -24    2    1    2    0    0 -0.20324411996E+02  0.12069107225E+03  0.74768117186E+03  0.76201502115E+03  0.81610912673E+02 0.  0.
        -13    1    3    3    0    0  0.14625354070E+02  0.53961776979E+01 -0.47242101347E+02  0.49747722110E+02  0.00000000000E+00 0.  1.
         14    1    3    3    0    0 -0.13092129632E+02 -0.14124308280E+03 -0.53078901313E+03  0.54941604341E+03  0.00000000000E+00 0. -1.
         13    1    5    5    0    0 -0.10759802021E+02 -0.10672815092E+02  0.64903294282E+02  0.66649230529E+02  0.00000000000E+00 0. -1.
        -14    1    5    5    0    0 -0.95646099750E+01  0.13136388735E+03  0.68277787757E+03  0.69536579062E+03  0.00000000000E+00 0.  1.
          5    1    4    4  501    0  0.98513718171E+01 -0.42036502214E+02  0.10864346643E+03  0.11698287158E+03  0.41800000000E+01 0. -1.
         -5    1    4    4    0  501  0.89398157410E+01  0.57192335060E+02  0.13669621051E+02  0.59625618947E+02  0.41800000000E+01 0. -1.
</event>
<event>
11    1  0.8453735E-009  0.3001599E+03  0.7561462E-02  0.1000124E+00
         22   -1    0    0    0    0  0.00000000000E+00  0.00000000000E+00  0.76620344859E+02  0.76620344859E+02  0.00000000000E+00 0. -1.
         22   -1    0    0    0    0 -0.00000000000E+00 -0.00000000000E+00 -0.22525217084E+04  0.22525217084E+04  0.00000000000E+00 0. -1.
        -24    2    1    2    0    0 -0.13629095780E+03 -0.26300048060E+02 -0.67388713520E+03  0.69261425958E+03  0.79521845278E+02 0.  0.
         25    2    1    2    0    0  0.17907125953E+03  0.27863559409E+03 -0.10818625711E+04  0.11383224899E+04  0.12508859994E+03 0.  0.
         24    2    1    2    0    0 -0.42780301729E+02 -0.25233554603E+03 -0.42015165721E+03  0.49820530381E+03  0.78598522152E+02 0.  0.
        -11    1    5    5    0    0  0.67949057843E+00 -0.13608042706E+03 -0.27783913200E+03  0.30937505976E+03  0.00000000000E+00 0.  1.
         12    1    5    5    0    0 -0.43459792308E+02 -0.11625511897E+03 -0.14231252521E+03  0.18883024405E+03  0.00000000000E+00 0. -1.
         13    1    3    3    0    0 -0.68560064576E+02 -0.53375315440E+02 -0.38079079580E+03  0.39057782441E+03  0.00000000000E+00 0. -1.
        -14    1    3    3    0    0 -0.67730893226E+02  0.27075267379E+02 -0.29309633940E+03  0.30203643517E+03  0.00000000000E+00 0.  1.
          5    1    4    4  501    0  0.19000189709E+03  0.26417039884E+03 -0.92937700765E+03  0.98470595371E+03  0.41800000000E+01 0.  1.
         -5    1    4    4    0  501 -0.10930637556E+02  0.14465195258E+02 -0.15248556348E+03  0.15361653616E+03  0.41800000000E+01 0.  1.
</event>
<event>
11    1  0.8453735E-009  0.1361789E+03  0.7561462E-02  0.1111902E+00
         22   -1    0    0    0    0  0.00000000000E+00  0.00000000000E+00  0.20225396632E+04  0.20225396632E+04  0.00000000000E+00 0.  1.
         22   -1    0    0    0    0 -0.00000000000E+00 -0.00000000000E+00 -0.78167657059E+03  0.78167657059E+03  0.00000000000E+00 0.  1.
         24    2    1    2    0    0 -0.16259641718E+02 -0.20297917936E+02 -0.70163239781E+03  0.70672481364E+03  0.80595031697E+02 0.  0.
         25    2    1    2    0    0 -0.22040722445E+02  0.58044469793E+02 -0.12374459249E+02  0.14020133445E+03  0.12509329726E+03 0.  0.
        -24    2    1    2    0    0  0.38300364164E+02 -0.37746551856E+02  0.19548699497E+04  0.19572900857E+04  0.81094015733E+02 0.  0.
        -13    1    3    3    0    0 -0.40849806637E+02 -0.36544598528E+02 -0.48817591217E+03  0.49124325502E+03  0.00000000000E+00 0.  1.
         14    1    3    3    0    0  0.24590164918E+02  0.16246680592E+02 -0.21345648564E+03  0.21548155862E+03  0.00000000000E+00 0. -1.
         13    1    5    5    0    0  0.84340908147E+01  0.25767012402E+02  0.53505515666E+03  0.53574162941E+03  0.00000000000E+00 0. -1.
        -14    1    5    5    0    0  0.29866273349E+02 -0.63513564258E+02  0.14198147930E+04  0.14215484563E+04  0.00000000000E+00 0.  1.
          5    1    4    4  501    0  0.93935329572E+01  0.90577925409E+02  0.56279892427E+01  0.91333157701E+02  0.41800000000E+01 0. -1.
         -5    1    4    4    0  501 -0.31434255402E+02 -0.32533455616E+02 -0.18002448492E+02  0.48868176748E+02  0.41800000000E+01 0. -1.
</event>
<event>
11    1  0.8453735E-009  0.1632975E+03  0.7561462E-02  0.1084016E+00
         22   -1    0    0    0    0  0.00000000000E+00  0.00000000000E+00  0.15910904245E+03  0.15910904245E+03  0.00000000000E+00 0.  1.
         22   -1    0    0    0    0 -0.00000000000E+00 -0.00000000000E+00 -0.84109172487E+03  0.84109172487E+03  0.00000000000E+00 0.  1.
        -24    2    1    2    0    0  0.75418805148E+02  0.69510978865E+02 -0.67714031179E+03  0.68955675195E+03  0.80310273042E+02 0.  0.
         25    2    1    2    0    0 -0.67649220733E+02 -0.11639930898E+03 -0.71499844186E+02  0.19719233688E+03  0.12508946322E+03 0.  0.
         24    2    1    2    0    0 -0.77695844148E+01  0.46888330115E+02  0.66657473548E+02  0.11345167849E+03  0.78544144456E+02 0.  0.
        -13    1    5    5    0    0 -0.46239808614E+01  0.65076251171E+02  0.28760009039E+02  0.71298231292E+02  0.00000000000E+00 0.  1.
         14    1    5    5    0    0 -0.31456035533E+01 -0.18187921056E+02  0.37897464509E+02  0.42153447193E+02  0.00000000000E+00 0. -1.
         11    1    3    3    0    0 -0.99704090017E+01  0.35177255690E+02 -0.14644486098E+03  0.15094020565E+03  0.00000000000E+00 0. -1.
        -12    1    3    3    0    0  0.85389214149E+02  0.34333723174E+02 -0.53069545080E+03  0.53861654629E+03  0.00000000000E+00 0.  1.
          5    1    4    4  501    0  0.24433858062E+02  0.14908780427E+01  0.10021362685E+02  0.26779399679E+02  0.41800000000E+01 0.  1.
         -5    1    4    4    0  501 -0.92083078795E+02 -0.11789018702E+03 -0.81521206871E+02  0.17041293720E+03  0.41800000000E+01 0.  1.
</event>
<event>
11    1  0.8453735E-009  0.6378476E+03  0.7561462E-02  0.9129267E-01
         22   -1    0    0    0    0  0.00000000000E+00  0.00000000000E+00  0.49702958302E+03  0.49702958302E+03  0.00000000000E+00 0. -1.
         22   -1    0    0    0    0 -0.00000000000E+00 -0.00000000000E+00 -0.25073837181E+04  0.25073837181E+04  0.00000000000E+00 0. -1.
         24    2    1    2    0    0 -0.23701714183E+03 -0.27542550602E+03 -0.75088679433E+03  0.83788651436E+03  0.78654295304E+02 0.  0.
         25    2    1    2    0    0  0.54100390948E+03  0.75523896165E+03 -0.12868859597E+04  0.15921036473E+04  0.12508969307E+03 0.  0.
        -24    2    1    2    0    0 -0.30398676765E+03 -0.47981345563E+03  0.27418618885E+02  0.57442313948E+03  0.81124936949E+02 0.  0.
        -11    1    3    3    0    0 -0.24648837310E+02 -0.16389270047E+02 -0.11993255241E+03  0.12353133401E+03  0.00000000000E+00 0.  1.
         12    1    3    3    0    0 -0.21236830452E+03 -0.25903623597E+03 -0.63095424191E+03  0.71435518035E+03  0.00000000000E+00 0. -1.
         11    1    5    5    0    0 -0.14797130867E+03 -0.16441303019E+03 -0.31738923203E+01  0.22121759939E+03  0.00000000000E+00 0. -1.
        -12    1    5    5    0    0 -0.15601545898E+03 -0.31540042544E+03  0.30592511205E+02  0.35320554009E+03  0.00000000000E+00 0.  1.
          5    1    4    4  501    0  0.89211852639E+01 -0.18083709440E+01 -0.27866289511E+02  0.29611826068E+02  0.41800000000E+01 0.  1.
         -5    1    4    4    0  501  0.53208272422E+03  0.75704733260E+03 -0.12590196701E+04  0.15624918212E+04  0.41800000000E+01 0.  1.
</event>
<event>
11    1  0.8453735E-009  0.2369816E+03  0.7561462E-02  0.1031072E+00
         22   -1    0    0    0    0  0.00000000000E+00  0.00000000000E+00  0.95174086724E+03  0.95174086724E+03  0.00000000000E+00 0. -1.
         22   -1    0    0    0    0 -0.00000000000E+00 -0.00000000000E+00 -0.73449139770E+03  0.73449139770E+03  0.00000000000E+00 0.  1.
         24    2    1    2    0    0 -0.19978277604E+03  0.30083158533E+01 -0.67666505317E+03  0.71022221767E+03  0.81349841566E+02 0.  0.
         25    2    1    2    0    0  0.26190873064E+03 -0.10359967702E+02  0.66254725715E+03  0.72340887382E+03  0.12509204072E+03 0.  0.
        -24    2    1    2    0    0 -0.62125954598E+02  0.73516518486E+01  0.23136726556E+03  0.25260117345E+03  0.79767538734E+02 0.  0.
        -13    1    3    3    0    0 -0.24226648923E+02 -0.44110062525E+01 -0.21232092177E+03  0.21374414920E+03  0.00000000000E+00 0.  1.
         14    1    3    3    0    0 -0.17555612712E+03  0.74193221058E+01 -0.46434413139E+03  0.49647806847E+03  0.00000000000E+00 0. -1.
         11    1    5    5    0    0 -0.16744843921E+02 -0.96683154514E+01  0.18337917973E+03  0.18439574203E+03  0.00000000000E+00 0. -1.
        -12    1    5    5    0    0 -0.45381110677E+02  0.17019967300E+02  0.47988085834E+02  0.68205431420E+02  0.00000000000E+00 0.  1.
          5    1    4    4  501    0  0.24200877980E+03 -0.18030008181E+02  0.46373943522E+03  0.52341672392E+03  0.41800000000E+01 0. -1.
         -5    1    4    4    0  501  0.19899950843E+02  0.76700404787E+01  0.19880782193E+03  0.19999214990E+03  0.41800000000E+01 0. -1.
</event>
<event>
11    1  0.8453735E-009  0.1541844E+03  0.7561462E-02  0.1092678E+00
         22   -1    0    0    0    0  0.00000000000E+00  0.00000000000E+00  0.23506319988E+03  0.23506319988E+03  0.00000000000E+00 0. -1.
         22   -1    0    0    0    0 -0.00000000000E+00 -0.00000000000E+00 -0.10953178292E+04  0.10953178292E+04  0.00000000000E+00 0. -1.
        -24    2    1    2    0    0  0.57850943166E+01  0.61175213820E+02 -0.99646276999E+03  0.10015072256E+04  0.79390156220E+02 0.  0.
         25    2    1    2    0    0 -0.14659918248E+02  0.45326991689E+02 -0.52089519774E+01  0.13396359065E+03  0.12509860535E+03 0.  0.
         24    2    1    2    0    0  0.88748239316E+01 -0.10650220551E+03  0.14141709260E+03  0.19491021285E+03  0.81053776680E+02 0.  0.
        -13    1    5    5    0    0  0.22084030683E+02 -0.22649239370E+02  0.20168054611E+01  0.31697948822E+02  0.00000000000E+00 0.  1.
         14    1    5    5    0    0 -0.13209206751E+02 -0.83852966139E+02  0.13940028714E+03  0.16321226403E+03  0.00000000000E+00 0. -1.
         11    1    3    3    0    0  0.39618684748E+02  0.41683355204E+02 -0.72114697033E+03  0.72343631033E+03  0.00000000000E+00 0. -1.
        -12    1    3    3    0    0 -0.33833590431E+02  0.19491858616E+02 -0.27531579966E+03  0.27807091530E+03  0.00000000000E+00 0.  1.
          5    1    4    4  501    0  0.46354803625E+02 -0.68257004937E+01  0.17901544967E+02  0.50331855902E+02  0.41800000000E+01 0. -1.
         -5    1    4    4    0  501 -0.61014721873E+02  0.52152692183E+02 -0.23110496944E+02  0.83631734743E+02  0.41800000000E+01 0. -1.
</event>
<event>
11    1  0.8453735E-009  0.1547566E+03  0.7561462E-02  0.1092115E+00
         22   -1    0    0    0    0  0.00000000000E+00  0.00000000000E+00  0.10698733391E+03  0.10698733391E+03  0.00000000000E+00 0. -1.
         22   -1    0    0    0    0 -0.00000000000E+00 -0.00000000000E+00 -0.13725523967E+04  0.13725523967E+04  0.00000000000E+00 0. -1.
        -24    2    1    2    0    0 -0.93467327091E+02  0.10034640505E+02 -0.11653093294E+04  0.11718141259E+04  0.79785195090E+02 0.  0.
         25    2    1    2    0    0  0.65155270016E+02 -0.13583690029E+02 -0.15119292712E+03  0.20721053952E+03  0.12508869106E+03 0.  0.
         24    2    1    2    0    0  0.28312057075E+02  0.35490495244E+01  0.50937193674E+02  0.10051506518E+03  0.81819999392E+02 0.  0.
        -13    1    5    5    0    0  0.23783499538E+02 -0.16058867227E+02 -0.14429386952E+02  0.32120854202E+02  0.00000000000E+00 0.  1.
         14    1    5    5    0    0  0.45285575368E+01  0.19607916752E+02  0.65366580625E+02  0.68394210978E+02  0.00000000000E+00 0. -1.
         11    1    3    3    0    0 -0.84024755635E+02  0.35699234259E+02 -0.73703641392E+03  0.74266901803E+03  0.00000000000E+00 0. -1.
        -12    1    3    3    0    0 -0.94425714560E+01 -0.25664593754E+02 -0.42827291545E+03  0.42914510790E+03  0.00000000000E+00 0.  1.
          5    1    4    4  501    0  0.18689832147E+02 -0.47417230226E+02 -0.13926730393E+03  0.14835955612E+03  0.41800000000E+01 0.  1.
         -5    1    4    4    0  501  0.46465437869E+02  0.33833540197E+02 -0.11925623187E+02  0.58850983399E+02  0.41800000000E+01 0.  1.
</event>
<event>
11    1  0.8453735E-009  0.2047839E+03  0.7561462E-02  0.1051191E+00
         22   -1    0    0    0    0  0.00000000000E+00  0.00000000000E+00  0.10241412615E+04  0.10241412615E+04  0.00000000000E+00 0. -1.
         22   -1    0    0    0    0 -0.00000000000E+00 -0.00000000000E+00 -0.66745434754E+03  0.66745434754E+03  0.00000000000E+00 0.  1.
         24    2    1    2    0    0  0.14773922347E+03 -0.33585852643E+02 -0.26561603239E+03  0.31551727021E+03  0.77745633268E+02 0.  0.
         25    2    1    2    0    0 -0.17599708597E+03  0.12872668116E+02 -0.34364437517E+03  0.40605380575E+03  0.12509019435E+03 0.  0.
        -24    2    1    2    0    0  0.28257862504E+02  0.20713184527E+02  0.96594732147E+03  0.97002453303E+03  0.81644497717E+02 0.  0.
        -13    1    3    3    0    0  0.30857747318E+02 -0.29790358776E+01 -0.13105938472E+03  0.13467604667E+03  0.00000000000E+00 0.  1.
         14    1    3    3    0    0  0.11688147615E+03 -0.30606816766E+02 -0.13455664767E+03  0.18084122354E+03  0.00000000000E+00 0. -1.
         11    1    5    5    0    0  0.16011238090E+02  0.34341105673E+02  0.91664495742E+03  0.91742773517E+03  0.00000000000E+00 0. -1.
        -12    1    5    5    0    0  0.12246624414E+02 -0.13627921145E+02  0.49302364050E+02  0.52596797861E+02  0.00000000000E+00 0.  1.
          5    1    4    4  501    0 -0.14159425656E+03 -0.11010853293E+02 -0.14503577353E+03  0.20303453003E+03  0.41800000000E+01 0. -1.
         -5    1    4    4    0  501 -0.34402829409E+02  0.23883521409E+02 -0.19860860165E+03  0.20301927572E+03  0.41800000000E+01 0. -1.
</event>
<event>
11    1  0.8453735E-009  0.1785783E+03  0.7561462E-02  0.1070799E+00
         22   -1    0    0    0    0  0.00000000000E+00  0.00000000000E+00  0.10544001627E+04  0.10544001627E+04  0.00000000000E+00 0. -1.
         22   -1    0    0    0    0 -0.00000000000E+00 -0.00000000000E+00 -0.26213120145E+03  0.26213120145E+03  0.00000000000E+00 0.  1.
        -24    2    1    2    0    0  0.19988736540E+02  0.56037735977E+02 -0.10964999430E+03  0.14800462130E+03  0.79639621004E+02 0.  0.
         25    2    1    2    0    0  0.10092215350E+03 -0.96403336754E+02 -0.58431489746E+02  0.19631934877E+03  0.12509261890E+03 0.  0.
         24    2    1    2    0    0 -0.12091089004E+03  0.40365600777E+02  0.96035044525E+03  0.97220739405E+03  0.81641988487E+02 0.  0.
        -11    1    5    5    0    0 -0.19831553561E+02  0.45607928517E+02  0.28304606651E+03  0.28738206177E+03  0.00000000000E+00 0.  1.
         12    1    5    5    0    0 -0.10107933648E+03 -0.52423277399E+01  0.67730437875E+03  0.68482533228E+03  0.00000000000E+00 0. -1.
         13    1    3    3    0    0 -0.24528692094E+02  0.57773147630E+01 -0.58186774527E+02  0.63409264556E+02  0.00000000000E+00 0. -1.
        -14    1    3    3    0    0  0.44517428634E+02  0.50260421214E+02 -0.51463219772E+02  0.84595356741E+02  0.00000000000E+00 0.  1.
          5    1    4    4  501    0  0.26625775518E+02  0.11928756958E+02 -0.57810232026E+02  0.64890080069E+02  0.41800000000E+01 0. -1.
         -5    1    4    4    0  501  0.74296377980E+02 -0.10833209371E+03 -0.62125772036E+00  0.13142926870E+03  0.41800000000E+01 0. -1.
</event>
<event>
11    1  0.8453735E-009  0.1724983E+03  0.7561462E-02  0.1075878E+00
         22   -1    0    0    0    0  0.00000000000E+00  0.00000000000E+00  0.26160403448E+04  0.26160403448E+04  0.00000000000E+00 0. -1.
         22   -1    0    0    0    0 -0.00000000000E+00 -0.00000000000E+00 -0.11796956175E+03  0.11796956175E+03  0.00000000000E+00 0.  1.
        -24    2    1    2    0    0 -0.53710089022E+02  0.10872866446E+03 -0.59535532459E+02  0.15639505341E+03  0.78792366175E+02 0.  0.
         25    2    1    2    0    0  0.27147672606E+02 -0.82147698259E+02  0.63272935929E+03  0.65075304862E+03  0.12509135750E+03 0.  0.
         24    2    1    2    0    0  0.26562416416E+02 -0.26580966198E+02  0.19248769562E+04  0.19268618045E+04  0.78949398067E+02 0.  0.
        -13    1    5    5    0    0 -0.99268750861E+01 -0.18302218989E+01  0.33901160751E+02  0.35372040674E+02  0.00000000000E+00 0.  1.
         14    1    5    5    0    0  0.36489291502E+02 -0.24750744299E+02  0.18909757954E+04  0.18914897638E+04  0.00000000000E+00 0. -1.
         13    1    3    3    0    0 -0.43029830052E+02  0.93749380628E+01 -0.25170688165E+02  0.50724937464E+02  0.00000000000E+00 0. -1.
        -14    1    3    3    0    0 -0.10680258970E+02  0.99353726394E+02 -0.34364844294E+02  0.10567011594E+03  0.00000000000E+00 0.  1.
          5    1    4    4  501    0  0.60250962805E+02 -0.92907406118E+02  0.54738052694E+03  0.55848444768E+03  0.41800000000E+01 0.  1.
         -5    1    4    4    0  501 -0.33103290199E+02  0.10759707859E+02  0.85348832358E+02  0.92268600943E+02  0.41800000000E+01 0.  1.
</event>
<event>
11    1  0.8453735E-009  0.2100566E+03  0.7561462E-02  0.1047631E+00
         22   -1    0    0    0    0  0.00000000000E+00  0.00000000000E+00  0.20779495418E+03  0.20779495418E+03  0.00000000000E+00 0. -1.
         22   -1    0    0    0    0 -0.00000000000E+00 -0.00000000000E+00 -0.15927224322E+04  0.15927224322E+04  0.00000000000E+00 0.  1.
         24    2    1    2    0    0 -0.28322216365E+02 -0.16420236664E+03 -0.12918442934E+04  0.13050783117E+04  0.81259807053E+02 0.  0.
         25    2    1    2    0    0  0.13131438909E+02  0.18302609228E+03 -0.23916520349E+03  0.32637232298E+03  0.12509162043E+03 0.  0.
        -24    2    1    2    0    0  0.15190777456E+02 -0.18823725643E+02  0.14608201885E+03  0.16906675168E+03  0.81599742198E+02 0.  0.
        -11    1    3    3    0    0 -0.28241187847E+02 -0.11987170937E+03 -0.11472466808E+04  0.11538378300E+04  0.00000000000E+00 0.  1.
         12    1    3    3    0    0 -0.81028517814E-01 -0.44330657262E+02 -0.14459761255E+03  0.15124048167E+03  0.00000000000E+00 0. -1.
         11    1    5    5    0    0  0.45793651524E+02 -0.10676703996E+01  0.10675123918E+03  0.11616378741E+03  0.00000000000E+00 0. -1.
        -12    1    5    5    0    0 -0.30602874069E+02 -0.17756055243E+02  0.39330779672E+02  0.52902964271E+02  0.00000000000E+00 0.  1.
          5    1    4    4  501    0  0.46442246028E+02  0.90695723973E+02 -0.19197733192E+03  0.21738299136E+03  0.41800000000E+01 0.  1.
         -5    1    4    4    0  501 -0.33310807119E+02  0.92330368305E+02 -0.47187871575E+02  0.10898933162E+03  0.41800000000E+01 0.  1.
</event>
<event>
11    1  0.8453735E-009  0.1387373E+03  0.7561462E-02  0.1108977E+00
         22   -1    0    0    0    0  0.00000000000E+00  0.00000000000E+00  0.15964023688E+04  0.15964023688E+04  0.00000000000E+00 0.  1.
         22   -1    0    0    0    0 -0.00000000000E+00 -0.00000000000E+00 -0.40742650998E+02  0.40742650998E+02  0.00000000000E+00 0. -1.
         24    2    1    2    0    0 -0.91002118642E+01 -0.49190468221E+02  0.75375975106E+02  0.12070043219E+03  0.79903320880E+02 0.  0.
         25    2    1    2    0    0  0.33485945742E+02  0.95977800779E+02  0.38510430803E+03  0.41747538775E+03  0.12508926617E+03 0.  0.
        -24    2    1    2    0    0 -0.24385733878E+02 -0.46787332558E+02  0.10951794347E+04  0.10989691999E+04  0.74374657094E+02 0.  0.
        -11    1    3    3    0    0 -0.36895470629E+02  0.30613783237E+00  0.36481842572E+02  0.51887323218E+02  0.00000000000E+00 0.  1.
         12    1    3    3    0    0  0.27795258765E+02 -0.49496606053E+02  0.38894132534E+02  0.68813108971E+02  0.00000000000E+00 0. -1.
         11    1    5    5    0    0 -0.12909553948E+02 -0.53332344887E+01  0.84525263082E+03  0.84536803221E+03  0.00000000000E+00 0. -1.
        -12    1    5    5    0    0 -0.11476179929E+02 -0.41454098070E+02  0.24992680387E+03  0.25360116767E+03  0.00000000000E+00 0.  1.
          5    1    4    4  501    0 -0.17498160852E+02  0.73476839417E+02  0.92077108190E+02  0.11916668081E+03  0.41800000000E+01 0. -1.
         -5    1    4    4    0  501  0.50984106594E+02  0.22500961363E+02  0.29302719984E+03  0.29830870694E+03  0.41800000000E+01 0. -1.
</event>
<event>
11    1  0.8453735E-009  0.1611615E+03  0.7561462E-02  0.1085990E+00
         22   -1    0    0    0    0  0.00000000000E+00  0.00000000000E+00  0.94569710121E+03  0.94569710121E+03  0.00000000000E+00 0.  1.
         22   -1    0    0    0    0 -0.00000000000E+00 -0.00000000000E+00 -0.28952643423E+04  0.28952643423E+04  0.00000000000E+00 0. -1.
        -24    2    1    2    0    0 -0.12364112838E+01 -0.10701911317E+03 -0.25165456827E+04  0.25201214487E+04  0.80964956799E+02 0.  0.
         25    2    1    2    0    0 -0.18537703575E+02  0.61509527023E+02 -0.36137723871E+03  0.38777791592E+03  0.12510449651E+03 0.  0.
         24    2    1    2    0    0  0.19774114859E+02  0.45509586148E+02  0.92835568023E+03  0.93306207889E+03  0.79362686470E+02 0.  0.
        -11    1    5    5    0    0  0.43504080516E+02  0.43140148716E+02  0.81081875169E+03  0.81313020208E+03  0.00000000000E+00 0.  1.
         12    1    5    5    0    0 -0.23729965657E+02  0.23694374315E+01  0.11753692854E+03  0.11993187681E+03  0.00000000000E+00 0. -1.
         11    1    3    3    0    0  0.35187089210E+02 -0.75850765417E+02 -0.18262549607E+04  0.18281681135E+04  0.00000000000E+00 0. -1.
        -12    1    3    3    0    0 -0.36423500494E+02 -0.31168347754E+02 -0.69029072198E+03  0.69195333524E+03  0.00000000000E+00 0.  1.
          5    1    4    4  501    0  0.20671037657E+02  0.40423076812E+02 -0.33004183694E+03  0.33317623485E+03  0.41800000000E+01 0.  1.
         -5    1    4    4    0  501 -0.39208741232E+02  0.21086450212E+02 -0.31335401773E+02  0.54601681071E+02  0.41800000000E+01 0.  1.
</event>
<event>
11    1  0.8453735E-009  0.1267968E+03  0.7561462E-02  0.1123269E+00
         22   -1    0    0    0    0  0.00000000000E+00  0.00000000000E+00  0.25090496274E+04  0.25090496274E+04  0.00000000000E+00 0. -1.
         22   -1    0    0    0    0 -0.00000000000E+00 -0.00000000000E+00 -0.32515364183E+03  0.32515364183E+03  0.00000000000E+00 0. -1.
         24    2    1    2    0    0  0.72446328074E+01 -0.81931734124E+00 -0.20964481309E+03  0.22527824096E+03  0.82135146013E+02 0.  0.
         25    2    1    2    0    0  0.13576289707E+02  0.11830441543E+00 -0.69987781519E+02  0.14397234597E+03  0.12508164215E+03 0.  0.
        -24    2    1    2    0    0 -0.20820922514E+02  0.70101292580E+00  0.24635285802E+04  0.24649526823E+04  0.81145907913E+02 0.  0.
        -11    1    3    3    0    0 -0.23198013577E+02 -0.75727531393E+01 -0.16094945515E+02  0.29232545136E+02  0.00000000000E+00 0.  1.
         12    1    3    3    0    0  0.30442646384E+02  0.67534357981E+01 -0.19354986757E+03  0.19604569582E+03  0.00000000000E+00 0. -1.
         13    1    5    5    0    0 -0.27629835439E+02 -0.43696935956E+01  0.24356383587E+04  0.24357989893E+04  0.00000000000E+00 0. -1.
        -14    1    5    5    0    0  0.68089129253E+01  0.50707065214E+01  0.27890221528E+02  0.29153693021E+02  0.00000000000E+00 0.  1.
          5    1    4    4  501    0 -0.21285718209E+02  0.47063931583E+02 -0.67761593132E+02  0.85306514168E+02  0.41800000000E+01 0. -1.
         -5    1    4    4    0  501  0.34862007916E+02 -0.46945627168E+02 -0.22261883880E+01  0.58665831801E+02  0.41800000000E+01 0. -1.
</event>
<event>
11    1  0.8453735E-009  0.1347801E+03  0.7561462E-02  0.1113531E+00
         22   -1    0    0    0    0  0.00000000000E+00  0.00000000000E+00  0.28866116607E+03  0.28866116607E+03  0.00000000000E+00 0.  1.
         22   -1    0    0    0    0 -0.00000000000E+00 -0.00000000000E+00 -0.13832181037E+04  0.13832181037E+04  0.00000000000E+00 0. -1.
         24    2    1    2    0    0 -0.48307342940E+02  0.11333544645E+02 -0.12933036320E+04  0.12969096037E+04  0.82934835770E+02 0.  0.
         25    2    1    2    0    0  0.75388165242E+02  0.10782803643E+02 -0.12108344889E+02  0.14694886532E+03  0.12509081777E+03 0.  0.
        -24    2    1    2    0    0 -0.27080822302E+02 -0.22116348288E+02  0.21085503927E+03  0.22802080074E+03  0.79442647137E+02 0.  0.
        -11    1    3    3    0    0 -0.19142793487E+02 -0.40246194069E+01 -0.58847202788E+02  0.62013203270E+02  0.00000000000E+00 0.  1.
         12    1    3    3    0    0 -0.29164549452E+02  0.15358164052E+02 -0.12344564293E+04  0.12348964005E+04  0.00000000000E+00 0. -1.
         13    1    5    5    0    0  0.12289957785E+02 -0.12108097904E+02  0.46718468214E+01  0.17873870591E+02  0.00000000000E+00 0. -1.
        -14    1    5    5    0    0 -0.39370780087E+02 -0.10008250384E+02  0.20618319245E+03  0.21014693015E+03  0.00000000000E+00 0.  1.
          5    1    4    4  501    0  0.57605004368E+02 -0.27264814149E+02  0.43398811433E+02  0.77218105730E+02  0.41800000000E+01 0.  1.
         -5    1    4    4    0  501  0.17783160874E+02  0.38047617792E+02 -0.55507156322E+02  0.69730759592E+02  0.41800000000E+01 0.  1.
</event>
<event>
11    1  0.8453735E-009  0.1280953E+03  0.7561462E-02  0.1121632E+00
         22   -1    0    0    0    0  0.00000000000E+00  0.00000000000E+00  0.78847716209E+03  0.78847716209E+03  0.00000000000E+00 0.  1.
         22   -1    0    0    0    0 -0.00000000000E+00 -0.00000000000E+00 -0.52553422211E+02  0.52553422211E+02  0.00000000000E+00 0. -1.
        -24    2    1    2    0    0 -0.35188192105E+01 -0.50986411848E+01  0.27299129840E+02  0.86087348652E+02  0.81408911535E+02 0.  0.
         25    2    1    2    0    0 -0.23942864439E+02 -0.15860283694E+01  0.18608011158E+03  0.22549782023E+03  0.12509069814E+03 0.  0.
         24    2    1    2    0    0  0.27461683650E+02  0.66846695541E+01  0.52254449846E+03  0.52944541541E+03  0.80379513307E+02 0.  0.
        -11    1    5    5    0    0  0.53114280018E+02  0.10378953596E+00  0.42726818053E+03  0.43055689009E+03  0.00000000000E+00 0.  1.
         12    1    5    5    0    0 -0.25652596368E+02  0.65808800182E+01  0.95276317928E+02  0.98888525321E+02  0.00000000000E+00 0. -1.
         11    1    3    3    0    0 -0.13489994240E+02  0.93779965344E+01 -0.25558400848E+02  0.30383525429E+02  0.00000000000E+00 0. -1.
        -12    1    3    3    0    0  0.99711750292E+01 -0.14476637719E+02  0.52857530688E+02  0.55703823222E+02  0.00000000000E+00 0.  1.
          5    1    4    4  501    0  0.37498850849E+02 -0.25577406996E+02  0.26390609292E+02  0.52671664322E+02  0.41800000000E+01 0. -1.
         -5    1    4    4    0  501 -0.61441715288E+02  0.23991378627E+02  0.15968950229E+03  0.17282615591E+03  0.41800000000E+01 0. -1.
</event>
<event>
11    1  0.8453735E-009  0.2642991E+03  0.7561462E-02  0.1016546E+00
         22   -1    0    0    0    0  0.00000000000E+00  0.00000000000E+00  0.94198693247E+03  0.94198693247E+03  0.00000000000E+00 0. -1.
         22   -1    0    0    0    0 -0.00000000000E+00 -0.00000000000E+00 -0.20587861992E+03  0.20587861992E+03  0.00000000000E+00 0. -1.
        -24    2    1    2    0    0  0.53708454399E+02  0.20971121949E+03 -0.32037848887E+02  0.23291293157E+03  0.79740932256E+02 0.  0.
         25    2    1    2    0    0 -0.19591656196E+02 -0.30960198868E+03  0.38810997998E+03  0.51236064423E+03  0.12508736471E+03 0.  0.
         24    2    1    2    0    0 -0.34116798203E+02  0.99890769193E+02  0.38003618146E+03  0.40259197659E+03  0.80688776810E+02 0.  0.
        -11    1    5    5    0    0 -0.34039345714E+02  0.32216438987E+02  0.26510994954E+03  0.26922084121E+03  0.00000000000E+00 0.  1.
         12    1    5    5    0    0 -0.77452488951E-01  0.67674330206E+02  0.11492623192E+03  0.13337113538E+03  0.00000000000E+00 0. -1.
         11    1    3    3    0    0  0.58482882325E+02  0.10794918772E+03 -0.43821999268E+02  0.13035966506E+03  0.00000000000E+00 0. -1.
        -12    1    3    3    0    0 -0.47744279262E+01  0.10176203176E+03  0.11784150380E+02  0.10255326651E+03  0.00000000000E+00 0.  1.
          5    1    4    4  501    0  0.50623915057E+02 -0.11817656503E+03  0.17732096538E+03  0.21906318372E+03  0.41800000000E+01 0.  1.
         -5    1    4    4    0  501 -0.70215571254E+02 -0.19142542365E+03  0.21078901460E+03  0.29329746051E+03  0.41800000000E+01 0.  1.
</event>
<event>
11    1  0.8453735E-009  0.1504896E+03  0.7561462E-02  0.1096380E+00
         22   -1    0    0    0    0  0.00000000000E+00  0.00000000000E+00  0.35163517690E+03  0.35163517690E+03  0.00000000000E+00 0.  1.
         22   -1    0    0    0    0 -0.00000000000E+00 -0.00000000000E+00 -0.83071593201E+03  0.83071593201E+03  0.00000000000E+00 0. -1.
         24    2    1    2    0    0  0.16733421000E+02  0.21632692348E+02 -0.40280090041E+03  0.41167456956E+03  0.80494751956E+02 0.  0.
         25    2    1    2    0    0  0.35863369173E+02 -0.86505461351E+02 -0.39788041308E+03  0.42746136419E+03  0.12508004905E+03 0.  0.
        -24    2    1    2    0    0 -0.52596790173E+02  0.64872769004E+02  0.32160055838E+03  0.34321517517E+03  0.85993248695E+02 0.  0.
        -11    1    3    3    0    0  0.54399219269E+01  0.34104395946E+02 -0.66320146385E+02  0.74773420344E+02  0.00000000000E+00 0.  1.
         12    1    3    3    0    0  0.11293499073E+02 -0.12471703598E+02 -0.33648075403E+03  0.33690114922E+03  0.00000000000E+00 0. -1.
         13    1    5    5    0    0  0.22450311907E+02  0.24630325497E+02  0.68576182938E+02  0.76245408420E+02  0.00000000000E+00 0. -1.
        -14    1    5    5    0    0 -0.75047102080E+02  0.40242443506E+02  0.25302437544E+03  0.26696976675E+03  0.00000000000E+00 0.  1.
          5    1    4    4  501    0 -0.22463040283E+02 -0.11746876316E+02 -0.25274178971E+03  0.25404421259E+03  0.41800000000E+01 0.  1.
         -5    1    4    4    0  501  0.58326409456E+02 -0.74758585035E+02 -0.14513862336E+03  0.17341715160E+03  0.41800000000E+01 0.  1.
</event>
<event>
11    1  0.8453735E-009  0.1400226E+03  0.7561462E-02  0.1107533E+00
         22   -1    0    0    0    0  0.00000000000E+00  0.00000000000E+00  0.79704676033E+03  0.79704676033E+03  0.00000000000E+00 0.  1.
         22   -1    0    0    0    0 -0.00000000000E+00 -0.00000000000E+00 -0.14567139404E+03  0.14567139404E+03  0.00000000000E+00 0. -1.
        -24    2    1    2    0    0  0.16356262412E+01 -0.62562876589E+02 -0.10033218501E+03  0.14298621220E+03  0.80384828982E+02 0.  0.
         25    2    1    2    0    0 -0.47580495550E+02  0.64994277325E+02  0.26693020683E+03  0.30559407535E+03  0.12509134235E+03 0.  0.
         24    2    1    2    0    0  0.45944869309E+02 -0.24314007360E+01  0.48477734447E+03  0.49413786682E+03  0.83942331305E+02 0.  0.
        -11    1    5    5    0    0  0.80581521468E+01 -0.26667971780E+02  0.51672347271E+02  0.58703884091E+02  0.00000000000E+00 0.  1.
         12    1    5    5    0    0  0.37886717162E+02  0.24236571044E+02  0.43310499720E+03  0.43543398273E+03  0.00000000000E+00 0. -1.
         11    1    3    3    0    0 -0.31559675283E+02 -0.43077596059E+02 -0.87320058311E+02  0.10235470175E+03  0.00000000000E+00 0. -1.
        -12    1    3    3    0    0  0.33195301524E+02 -0.19485280530E+02 -0.13012126700E+02  0.40631510455E+02  0.00000000000E+00 0.  1.
          5    1    4    4  501    0 -0.50997381558E+02  0.64877505325E+02  0.27974254295E+03  0.29169022328E+03  0.41800000000E+01 0. -1.
         -5    1    4    4    0  501  0.34168860078E+01  0.11677200012E+00 -0.12812336117E+02  0.13903852073E+02  0.41800000000E+01 0. -1.
</event>
<event>
11    1  0.8453735E-009  0.1798481E+03  0.7561462E-02  0.1069766E+00
         22   -1    0    0    0    0  0.00000000000E+00  0.00000000000E+00  0.29037030690E+04  0.29037030690E+04  0.00000000000E+00 0.  1.
         22   -1    0    0    0    0 -0.00000000000E+00 -0.00000000000E+00 -0.16325844029E+04  0.16325844029E+04  0.00000000000E+00 0. -1.
         24    2    1    2    0    0 -0.12277884156E+03 -0.39108759157E+02 -0.16073987198E+04  0.16146100504E+04  0.81429916532E+02 0.  0.
         25    2    1    2    0    0  0.18371951909E+03  0.81051533182E+02  0.67139588945E+03  0.71185748894E+03  0.12508569650E+03 0.  0.
        -24    2    1    2    0    0 -0.60940677529E+02 -0.41942774024E+02  0.22071214966E+04  0.22098199326E+04  0.80286184481E+02 0.  0.
        -13    1    3    3    0    0 -0.79083666576E+02 -0.92096441754E+01 -0.53363570231E+03  0.53954249753E+03  0.00000000000E+00 0.  1.
         14    1    3    3    0    0 -0.43695174981E+02 -0.29899114982E+02 -0.10737630175E+04  0.10750675529E+04  0.00000000000E+00 0. -1.
         11    1    5    5    0    0 -0.52253621068E+01 -0.12104334942E+02  0.48116489182E+02  0.49890037730E+02  0.00000000000E+00 0. -1.
        -12    1    5    5    0    0 -0.55715315422E+02 -0.29838439082E+02  0.21590050074E+04  0.21599298949E+04  0.00000000000E+00 0.  1.
          5    1    4    4  501    0  0.11771498102E+03  0.86505070564E+02  0.29011626993E+03  0.32484591189E+03  0.41800000000E+01 0.  1.
         -5    1    4    4    0  501  0.66004538063E+02 -0.54535373828E+01  0.38127961952E+03  0.38701157706E+03  0.41800000000E+01 0.  1.
</event>
<event>
11    1  0.8453735E-009  0.1608684E+03  0.7561462E-02  0.1086263E+00
         22   -1    0    0    0    0  0.00000000000E+00  0.00000000000E+00  0.39514104874E+03  0.39514104874E+03  0.00000000000E+00 0. -1.
         22   -1    0    0    0    0 -0.00000000000E+00 -0.00000000000E+00 -0.11002000498E+04  0.11002000498E+04  0.00000000000E+00 0.  1.
         24    2    1    2    0    0  0.34411991385E+01 -0.57861467748E+01 -0.67401344609E+03  0.67838025174E+03  0.76552721012E+02 0.  0.
         25    2    1    2    0    0 -0.68334449687E+02 -0.71876859660E+02 -0.39764176397E+03  0.42848854936E+03  0.12509030542E+03 0.  0.
        -24    2    1    2    0    0  0.64893250548E+02  0.77663006435E+02  0.36659620898E+03  0.38847229745E+03  0.79216594955E+02 0.  0.
        -11    1    3    3    0    0  0.38231612242E+01  0.23361084850E+02 -0.56623090074E+03  0.56672549775E+03  0.00000000000E+00 0.  1.
         12    1    3    3    0    0 -0.38196208576E+00 -0.29147231625E+02 -0.10778254535E+03  0.11165475399E+03  0.00000000000E+00 0. -1.
         11    1    5    5    0    0  0.80539894918E+02  0.75980055712E+02  0.33993800165E+03  0.35751571784E+03  0.00000000000E+00 0. -1.
        -12    1    5    5    0    0 -0.15646644370E+02  0.16829507228E+01  0.26658207327E+02  0.30956579609E+02  0.00000000000E+00 0.  1.
          5    1    4    4  501    0 -0.74893304176E+02 -0.37805232759E+02 -0.38031569767E+03  0.38948137944E+03  0.41800000000E+01 0.  1.
         -5    1    4    4    0  501  0.65588544892E+01 -0.34071626901E+02 -0.17326066300E+02  0.39007169922E+02  0.41800000000E+01 0.  1.
</event>
<event>
11    1  0.8453735E-009  0.1610754E+03  0.7561462E-02  0.1086070E+00
         22   -1    0    0    0    0  0.00000000000E+00  0.00000000000E+00  0.38034669331E+03  0.38034669331E+03  0.00000000000E+00 0.  1.
         22   -1    0    0    0    0 -0.00000000000E+00 -0.00000000000E+00 -0.21890925850E+04  0.21890925850E+04  0.00000000000E+00 0.  1.
        -24    2    1    2    0    0 -0.49133493360E+02 -0.87918457640E+02 -0.20595321952E+04  0.20635356826E+04  0.79767755140E+02 0.  0.
         25    2    1    2    0    0  0.35214853398E+02  0.12625667662E+03 -0.53456944150E+02  0.18890303415E+03  0.12508348070E+03 0.  0.
         24    2    1    2    0    0  0.13918639962E+02 -0.38338218978E+02  0.30424324767E+03  0.31700056158E+03  0.79131881808E+02 0.  0.
        -13    1    5    5    0    0 -0.17872093225E+02 -0.24219388763E+02  0.25465909519E+03  0.25643175558E+03  0.00000000000E+00 0.  1.
         14    1    5    5    0    0  0.31790733187E+02 -0.14118830215E+02  0.49584152482E+02  0.60568806003E+02  0.00000000000E+00 0. -1.
         11    1    3    3    0    0  0.16727488811E+02 -0.38959231214E+02 -0.47836096732E+03  0.48023623940E+03  0.00000000000E+00 0. -1.
        -12    1    3    3    0    0 -0.65860982171E+02 -0.48959226427E+02 -0.15811712279E+04  0.15832994432E+04  0.00000000000E+00 0.  1.
          5    1    4    4  501    0  0.11172850342E+02  0.13158039793E+03 -0.24881732022E+01  0.13214347169E+03  0.41800000000E+01 0. -1.
         -5    1    4    4    0  501  0.24042003056E+02 -0.53237213109E+01 -0.50968770947E+02  0.56759562467E+02  0.41800000000E+01 0. -1.
</event>
<event>
11    1  0.8453735E-009  0.2061389E+03  0.7561462E-02  0.1050265E+00
         22   -1    0    0    0    0  0.00000000000E+00  0.00000000000E+00  0.16491936842E+03  0.16491936842E+03  0.00000000000E+00 0. -1.
         22   -1    0    0    0    0 -0.00000000000E+00 -0.00000000000E+00 -0.61080852876E+03  0.61080852876E+03  0.00000000000E+00 0.  1.
        -24    2    1    2    0    0 -0.33593573967E+01 -0.12719700873E+02 -0.31274006149E+03  0.32145544081E+03  0.73172250855E+02 0.  0.
         25    2    1    2    0    0  0.68389918926E+02  0.15937858514E+03 -0.16364080555E+03  0.26926604652E+03  0.12508867317E+03 0.  0.
         24    2    1    2    0    0 -0.65030561529E+02 -0.14665888427E+03  0.30491706698E+02  0.18500640985E+03  0.86947255504E+02 0.  0.
        -13    1    5    5    0    0  0.42685112014E+01  0.97050170169E+01  0.61328509117E+01  0.12248240832E+02  0.00000000000E+00 0.  1.
         14    1    5    5    0    0 -0.69299072731E+02 -0.15636390128E+03  0.24358855787E+02  0.17275816902E+03  0.00000000000E+00 0. -1.
         11    1    3    3    0    0  0.34917669263E+02 -0.57943894246E+01 -0.14301093509E+03  0.14732598593E+03  0.00000000000E+00 0. -1.
        -12    1    3    3    0    0 -0.38277026660E+02 -0.69253114487E+01 -0.16972912639E+03  0.17412945488E+03  0.00000000000E+00 0.  1.
          5    1    4    4  501    0  0.46307171748E+02 -0.29323860734E+00 -0.66093292080E+02  0.80809874410E+02  0.41800000000E+01 0. -1.
         -5    1    4    4    0  501  0.22082747178E+02  0.15967182375E+03 -0.97547513473E+02  0.18845617211E+03  0.41800000000E+01 0. -1.
</event>
<event>
11    1  0.8453735E-009  0.1547044E+03  0.7561462E-02  0.1092167E+00
         22   -1    0    0    0    0  0.00000000000E+00  0.00000000000E+00  0.61026150757E+03  0.61026150757E+03  0.00000000000E+00 0.  1.
         22   -1    0    0    0    0 -0.00000000000E+00 -0.00000000000E+00 -0.88392482362E+03  0.88392482362E+03  0.00000000000E+00 0.  1.
        -24    2    1    2    0    0 -0.42076193172E+02 -0.10234827380E+03 -0.48841052597E+03  0.50693171465E+03  0.78672398358E+02 0.  0.
         25    2    1    2    0    0  0.53059950134E+02  0.43459251663E+02 -0.36861158403E+03  0.39525578027E+03  0.12509423282E+03 0.  0.
         24    2    1    2    0    0 -0.10983756962E+02  0.58889022136E+02  0.58335879396E+03  0.59199883627E+03  0.81034435945E+02 0.  0.
        -13    1    5    5    0    0 -0.54530242261E+01  0.69876405848E+01  0.42828364491E+03  0.42837535304E+03  0.00000000000E+00 0.  1.
         14    1    5    5    0    0 -0.55307327360E+01  0.51901381551E+02  0.15507514905E+03  0.16362348323E+03  0.00000000000E+00 0. -1.
         13    1    3    3    0    0 -0.75882585361E+01 -0.11406496020E+02 -0.62484511160E+01  0.15057654546E+02  0.00000000000E+00 0. -1.
        -14    1    3    3    0    0 -0.34487934636E+02 -0.90941777779E+02 -0.48216207485E+03  0.49187406011E+03  0.00000000000E+00 0.  1.
          5    1    4    4  501    0 -0.35387088639E+01  0.56147197437E+01  0.87659705025E+01  0.11762745303E+02  0.41800000000E+01 0.  1.
         -5    1    4    4    0  501  0.56598658998E+02  0.37844531919E+02 -0.37737755454E+03  0.38349303496E+03  0.41800000000E+01 0.  1.
</event>
<event>
11    1  0.8453735E-009  0.2160004E+03  0.7561462E-02  0.1043752E+00
         22   -1    0    0    0    0  0.00000000000E+00  0.00000000000E+00  0.20217103586E+04  0.20217103586E+04  0.00000000000E+00 0. -1.
         22   -1    0    0    0    0 -0.00000000000E+00 -0.00000000000E+00 -0.11386258293E+03  0.11386258293E+03  0.00000000000E+00 0.  1.
        -24    2    1    2    0    0 -0.59916817085E+02  0.24266162043E+02 -0.37144518644E+02  0.10931931302E+03  0.79950768255E+02 0.  0.
         25    2    1    2    0    0 -0.12453644395E+03 -0.14473782122E+02  0.18991266964E+03  0.25967906147E+03  0.12509027394E+03 0.  0.
         24    2    1    2    0    0  0.18445326104E+03 -0.97923799208E+01  0.17550796247E+04  0.17665745671E+04  0.79764125544E+02 0.  0.
        -11    1    5    5    0    0  0.12473142137E+03  0.31274778031E+02  0.10918885541E+04  0.10994346974E+04  0.00000000000E+00 0.  1.
         12    1    5    5    0    0  0.59721839666E+02 -0.41067157952E+02  0.66319107060E+03  0.66713986968E+03  0.00000000000E+00 0. -1.
         11    1    3    3    0    0 -0.32427597820E+02 -0.76820004313E+01  0.19579601147E+02  0.38651300263E+02  0.00000000000E+00 0. -1.
        -12    1    3    3    0    0 -0.27489219266E+02  0.31948162474E+02 -0.56724119791E+02  0.70668012759E+02  0.00000000000E+00 0.  1.
          5    1    4    4  501    0  0.23910986197E+02 -0.14591188524E+02  0.25280783879E+02  0.37963515077E+02  0.41800000000E+01 0. -1.
         -5    1    4    4    0  501 -0.14844743015E+03  0.11740640216E+00  0.16463188576E+03  0.22171554639E+03  0.41800000000E+01 0. -1.
</event>
<event>
11    1  0.8453735E-009  0.1314808E+03  0.7561462E-02  0.1117463E+00
         22   -1    0    0    0    0  0.00000000000E+00  0.00000000000E+00  0.29120486629E+03  0.29120486629E+03  0.00000000000E+00 0. -1.
         22   -1    0    0    0    0 -0.00000000000E+00 -0.00000000000E+00 -0.10527266451E+04  0.10527266451E+04  0.00000000000E+00 0. -1.
        -24    2    1    2    0    0 -0.12881465574E+02  0.34798079047E+02 -0.87485165767E+03  0.87883562636E+03  0.74898576607E+02 0.  0.
         25    2    1    2    0    0 -0.15723880557E+01  0.46998578206E+01 -0.14517409562E+03  0.19169762620E+03  0.12509156959E+03 0.  0.
         24    2    1    2    0    0  0.14453853629E+02 -0.39497936867E+02  0.25850397448E+03  0.27339825882E+03  0.78442986967E+02 0.  0.
        -13    1    5    5    0    0  0.87731223217E+01 -0.44834150191E+02  0.63433279151E+02  0.78171923364E+02  0.00000000000E+00 0.  1.
         14    1    5    5    0    0  0.56807313078E+01  0.53362133234E+01  0.19507069533E+03  0.19522633546E+03  0.00000000000E+00 0. -1.
         11    1    3    3    0    0 -0.34870749356E+02  0.33833804544E+02 -0.77794499243E+03  0.77946077947E+03  0.00000000000E+00 0. -1.
        -12    1    3    3    0    0  0.21989283782E+02  0.96427450225E+00 -0.96906665243E+02  0.99374846893E+02  0.00000000000E+00 0.  1.
          5    1    4    4  501    0 -0.62961258037E+02  0.70776418559E+01 -0.69552307710E+02  0.94176477613E+02  0.41800000000E+01 0.  1.
         -5    1    4    4    0  501  0.61388869981E+02 -0.23777840353E+01 -0.75621787912E+02  0.97521148586E+02  0.41800000000E+01 0.  1.
</event>
<event>
11    1  0.8453735E-009  0.1831867E+03  0.7561462E-02  0.1067094E+00
         22   -1    0    0    0    0  0.00000000000E+00  0.00000000000E+00  0.57835501318E+03  0.57835501318E+03  0.00000000000E+00 0. -1.
         22   -1    0    0    0    0 -0.00000000000E+00 -0.00000000000E+00 -0.19216676076E+03  0.19216676076E+03  0.00000000000E+00 0.  1.
         24    2    1    2    0    0 -0.52877890832E+02  0.99845994239E+02 -0.33582371256E+02  0.14935052003E+03  0.91719726721E+02 0.  0.
         25    2    1    2    0    0  0.88366253359E+02 -0.15654378924E+03  0.33401180033E+02  0.22153567901E+03  0.12509142883E+03 0.  0.
        -24    2    1    2    0    0 -0.35488362527E+02  0.56697795000E+02  0.38636944364E+03  0.39963557489E+03  0.77156865557E+02 0.  0.
        -13    1    3    3    0    0 -0.28972218937E+02  0.94118331507E+02  0.10338983908E+02  0.99017899311E+02  0.00000000000E+00 0.  1.
         14    1    3    3    0    0 -0.23905671895E+02  0.57276627328E+01 -0.43921355163E+02  0.50332620720E+02  0.00000000000E+00 0. -1.
         13    1    5    5    0    0 -0.34485581730E+02  0.75405137634E+02  0.32884004786E+03  0.33913266904E+03  0.00000000000E+00 0. -1.
        -14    1    5    5    0    0 -0.10027807971E+01 -0.18707342634E+02  0.57529395781E+02  0.60502905853E+02  0.00000000000E+00 0.  1.
          5    1    4    4  501    0  0.43378026731E+02 -0.14711651247E+03  0.63905018153E+02  0.16621144723E+03  0.41800000000E+01 0.  1.
         -5    1    4    4    0  501  0.44988226628E+02 -0.94272767647E+01 -0.30503838120E+02  0.55324231783E+02  0.41800000000E+01 0.  1.
</event>
<event>
11    1  0.8453735E-009  0.1868749E+03  0.7561462E-02  0.1064214E+00
         22   -1    0    0    0    0  0.00000000000E+00  0.00000000000E+00  0.27701538983E+03  0.27701538983E+03  0.00000000000E+00 0. -1.
         22   -1    0    0    0    0 -0.00000000000E+00 -0.00000000000E+00 -0.11371855274E+04  0.11371855274E+04  0.00000000000E+00 0.  1.
         24    2    1    2    0    0 -0.32155395443E+02 -0.13513167485E+02 -0.98651766858E+03  0.99064641702E+03  0.83346493540E+02 0.  0.
         25    2    1    2    0    0 -0.17659680118E+02 -0.12157704417E+03 -0.49354742699E+02  0.18214297506E+03  0.12508929118E+03 0.  0.
        -24    2    1    2    0    0  0.49815075560E+02  0.13509021166E+03  0.17570227370E+03  0.24141152516E+03  0.81714921854E+02 0.  0.
        -13    1    3    3    0    0 -0.45089809739E+02 -0.38866658562E+02 -0.55284041870E+03  0.55603618285E+03  0.00000000000E+00 0.  1.
         14    1    3    3    0    0  0.12934414297E+02  0.25353491077E+02 -0.43367724988E+03  0.43461023417E+03  0.00000000000E+00 0. -1.
         13    1    5    5    0    0  0.60519035858E+02  0.11363156863E+03  0.17521283983E+03  0.21742636991E+03  0.00000000000E+00 0. -1.
        -14    1    5    5    0    0 -0.10703960297E+02  0.21458643025E+02  0.48943387356E+00  0.23985155243E+02  0.00000000000E+00 0.  1.
          5    1    4    4  501    0 -0.61059225131E+02 -0.11497574590E+03 -0.28355508855E+02  0.13330100676E+03  0.41800000000E+01 0.  1.
         -5    1    4    4    0  501  0.43399545013E+02 -0.66012982696E+01 -0.20999233844E+02  0.48841968308E+02  0.41800000000E+01 0.  1.
</event>
<event>
11    1  0.8453735E-009  0.3680796E+03  0.7561462E-02  0.9748939E-01
         22   -1    0    0    0    0  0.00000000000E+00  0.00000000000E+00  0.64270461368E+03  0.64270461368E+03  0.00000000000E+00 0. -1.
         22   -1    0    0    0    0 -0.00000000000E+00 -0.00000000000E+00 -0.25691991995E+04  0.25691991995E+04  0.00000000000E+00 0.  1.
        -24    2    1    2    0    0 -0.31864907214E+03  0.35922712701E+02 -0.17763023631E+04  0.18068803774E+04  0.82091051645E+02 0.  0.
         25    2    1    2    0    0  0.50632778865E+03  0.63970480780E+02 -0.66201205715E+03  0.84520275405E+03  0.12509068580E+03 0.  0.
         24    2    1    2    0    0 -0.18767871651E+03 -0.99893193481E+02  0.51181983445E+03  0.55982068166E+03  0.78979123507E+02 0.  0.
        -13    1    5    5    0    0  0.38169465538E+01 -0.18062953055E+02  0.46278447779E+02  0.49825034700E+02  0.00000000000E+00 0.  1.
         14    1    5    5    0    0 -0.19149566306E+03 -0.81830240426E+02  0.46554138667E+03  0.50999564696E+03  0.00000000000E+00 0. -1.
         11    1    3    3    0    0 -0.61758456066E+02  0.36734221399E+02 -0.48242965692E+03  0.48775186704E+03  0.00000000000E+00 0. -1.
        -12    1    3    3    0    0 -0.25689061608E+03 -0.81150869818E+00 -0.12938727062E+04  0.13191285104E+04  0.00000000000E+00 0.  1.
          5    1    4    4  501    0  0.11832971436E+03 -0.37041064786E+02 -0.17149720300E+03  0.21166654157E+03  0.41800000000E+01 0.  1.
         -5    1    4    4    0  501  0.38799807429E+03  0.10101154557E+03 -0.49051485415E+03  0.63353621248E+03  0.41800000000E+01 0.  1.
</event>
<event>
11    1  0.8453735E-009  0.1365113E+03  0.7561462E-02  0.1111518E+00
         22   -1    0    0    0    0  0.00000000000E+00  0.00000000000E+00  0.33186154105E+03  0.33186154105E+03  0.00000000000E+00 0. -1.
         22   -1    0    0    0    0 -0.00000000000E+00 -0.00000000000E+00 -0.47528673436E+03  0.47528673436E+03  0.00000000000E+00 0.  1.
         24    2    1    2    0    0 -0.70567112864E+01 -0.14995438154E+02 -0.22900791389E+03  0.24191182433E+03  0.76171161114E+02 0.  0.
         25    2    1    2    0    0 -0.22042997819E+02 -0.31953175718E+02 -0.21355802871E+03  0.25051364739E+03  0.12507260577E+03 0.  0.
        -24    2    1    2    0    0  0.29099709105E+02  0.46948613872E+02  0.29914074928E+03  0.31472280369E+03  0.80711150811E+02 0.  0.
        -11    1    3    3    0    0  0.15198401212E+02 -0.39695797493E+02 -0.15604985998E+03  0.16173529775E+03  0.00000000000E+00 0.  1.
         12    1    3    3    0    0 -0.22255112499E+02  0.24700359340E+02 -0.72958053908E+02  0.80176526576E+02  0.00000000000E+00 0. -1.
         11    1    5    5    0    0 -0.16717742248E+02  0.44811405008E+02  0.19755460402E+03  0.20326181760E+03  0.00000000000E+00 0. -1.
        -12    1    5    5    0    0  0.45817451353E+02  0.21372088638E+01  0.10158614526E+03  0.11146098608E+03  0.00000000000E+00 0.  1.
          5    1    4    4  501    0  0.25803081847E+02 -0.44367219767E+02 -0.28361922262E+02  0.58788776625E+02  0.41800000000E+01 0. -1.
         -5    1    4    4    0  501 -0.47846079665E+02  0.12414044049E+02 -0.18519610644E+03  0.19172487077E+03  0.41800000000E+01 0. -1.
</event>
<event>
11    1  0.8453735E-009  0.1470767E+03  0.7561462E-02  0.1099904E+00
         22   -1    0    0    0    0  0.00000000000E+00  0.00000000000E+00  0.26458420697E+04  0.26458420697E+04  0.00000000000E+00 0.  1.
         22   -1    0    0    0    0 -0.00000000000E+00 -0.00000000000E+00 -0.66842966897E+02  0.66842966897E+02  0.00000000000E+00 0. -1.
         24    2    1    2    0    0  0.50353837588E+02  0.62328209553E+02 -0.22586934637E+00  0.11218511475E+03  0.78518369119E+02 0.  0.
         25    2    1    2    0    0 -0.64688941306E+02 -0.12435805062E+02  0.51298662168E+03  0.53211155734E+03  0.12509247404E+03 0.  0.
        -24    2    1    2    0    0  0.14335103718E+02 -0.49892404490E+02  0.20662383504E+04  0.20683883645E+04  0.78706786395E+02 0.  0.
        -13    1    3    3    0    0  0.13746356807E+02  0.59323112144E+02  0.26851934847E+02  0.66552388124E+02  0.00000000000E+00 0.  1.
         14    1    3    3    0    0  0.36607480781E+02  0.30050974083E+01 -0.27077804193E+02  0.45632726628E+02  0.00000000000E+00 0. -1.
         13    1    5    5    0    0 -0.31986371128E+02 -0.13480156302E+02  0.65219951594E+03  0.65312253915E+03  0.00000000000E+00 0. -1.
        -14    1    5    5    0    0  0.46321474846E+02 -0.36412248188E+02  0.14140388345E+04  0.14152658253E+04  0.00000000000E+00 0.  1.
          5    1    4    4  501    0 -0.16342135815E+02  0.55320274611E+02  0.22422538510E+03  0.23156401687E+03  0.41800000000E+01 0. -1.
         -5    1    4    4    0  501 -0.48346805490E+02 -0.67756079673E+02  0.28876123658E+03  0.30054754047E+03  0.41800000000E+01 0. -1.
</event>
<event>
11    1  0.8453735E-009  0.1342130E+03  0.7561462E-02  0.1114198E+00
         22   -1    0    0    0    0  0.00000000000E+00  0.00000000000E+00  0.26929355519E+04  0.26929355519E+04  0.00000000000E+00 0.  1.
         22   -1    0    0    0    0 -0.00000000000E+00 -0.00000000000E+00 -0.84448303512E+02  0.84448303512E+02  0.00000000000E+00 0.  1.
         24    2    1    2    0    0  0.47090981852E+02 -0.66552221390E+01 -0.48475431386E+02  0.10517812542E+03  0.80316362370E+02 0.  0.
         25    2    1    2    0    0 -0.77452731759E+02  0.38129147315E+02  0.88284998042E+03  0.89583759879E+03  0.12509259751E+03 0.  0.
        -24    2    1    2    0    0  0.30361749907E+02 -0.31473925176E+02  0.17741126993E+04  0.17763681312E+04  0.78073194621E+02 0.  0.
        -13    1    3    3    0    0  0.51630513544E+02 -0.10484850906E+02 -0.67282760224E+02  0.85455320786E+02  0.00000000000E+00 0.  1.
         14    1    3    3    0    0 -0.45395316913E+01  0.38296287669E+01  0.18807328837E+02  0.19722804630E+02  0.00000000000E+00 0. -1.
         11    1    5    5    0    0  0.69084404219E+01  0.25931298860E+02  0.44340102054E+03  0.44421236344E+03  0.00000000000E+00 0. -1.
        -12    1    5    5    0    0  0.23453309485E+02 -0.57405224036E+02  0.13307116788E+04  0.13321557678E+04  0.00000000000E+00 0.  1.
          5    1    4    4  501    0  0.16873919191E+02  0.50605647874E+02  0.23432931469E+03  0.24036089713E+03  0.41800000000E+01 0. -1.
         -5    1    4    4    0  501 -0.94326650950E+02 -0.12476500559E+02  0.64852066573E+03  0.65547670166E+03  0.41800000000E+01 0. -1.
</event>
<event>
11    1  0.8453735E-009  0.1484024E+03  0.7561462E-02  0.1098522E+00
         22   -1    0    0    0    0  0.00000000000E+00  0.00000000000E+00  0.13635347370E+04  0.13635347370E+04  0.00000000000E+00 0. -1.
         22   -1    0    0    0    0 -0.00000000000E+00 -0.00000000000E+00 -0.11491708773E+03  0.11491708773E+03  0.00000000000E+00 0.  1.
        -24    2    1    2    0    0  0.67957758562E+02 -0.45401549801E+02 -0.16867825073E+02  0.10825012672E+03  0.68949320070E+02 0.  0.
         25    2    1    2    0    0  0.15328209544E+02  0.44194032249E+02  0.40001366044E+02  0.13941117593E+03  0.12508916897E+03 0.  0.
         24    2    1    2    0    0 -0.83285968107E+02  0.12075175514E+01  0.12254841083E+04  0.12307905221E+04  0.78076878528E+02 0.  0.
        -11    1    5    5    0    0 -0.58599055695E+02 -0.36541106986E+02  0.74605061563E+03  0.74924003024E+03  0.00000000000E+00 0.  1.
         12    1    5    5    0    0 -0.24686912412E+02  0.37748624537E+02  0.47943349270E+03  0.48155049188E+03  0.00000000000E+00 0. -1.
         13    1    3    3    0    0  0.66740027274E+02 -0.52511041526E+02  0.51534818633E+01  0.85077606325E+02  0.00000000000E+00 0. -1.
        -14    1    3    3    0    0  0.12177312885E+01  0.71094917251E+01 -0.22021306936E+02  0.23172520391E+02  0.00000000000E+00 0.  1.
          5    1    4    4  501    0 -0.20019323666E+02  0.12974998106E+01 -0.38216520284E+02  0.43363944106E+02  0.41800000000E+01 0.  1.
         -5    1    4    4    0  501  0.35347533210E+02  0.42896532439E+02  0.78217886328E+02  0.96047231823E+02  0.41800000000E+01 0.  1.
</event>
<event>
11    1  0.8453735E-009  0.1606056E+03  0.7561462E-02  0.1086509E+00
         22   -1    0    0    0    0  0.00000000000E+00  0.00000000000E+00  0.32723177529E+03  0.32723177529E+03  0.00000000000E+00 0. -1.
         22   -1    0    0    0    0 -0.00000000000E+00 -0.00000000000E+00 -0.15827633373E+04  0.15827633373E+04  0.00000000000E+00 0.  1.
         24    2    1    2    0    0  0.82337071530E+02 -0.21205582048E+02 -0.36232685845E+03  0.38119037962E+03  0.82439572423E+02 0.  0.
         25    2    1    2    0    0 -0.17965808093E+03  0.43520398370E+02 -0.11880273844E+04  0.12088125472E+04  0.12509059577E+03 0.  0.
        -24    2    1    2    0    0  0.97321009403E+02 -0.22314816323E+02  0.29482268085E+03  0.31999218573E+03  0.74197411583E+02 0.  0.
        -13    1    3    3    0    0  0.68940310476E+02  0.97855709913E+01 -0.14049189969E+03  0.15680082170E+03  0.00000000000E+00 0.  1.
         14    1    3    3    0    0  0.13396761053E+02 -0.30991153039E+02 -0.22183495876E+03  0.22438955792E+03  0.00000000000E+00 0. -1.
         13    1    5    5    0    0  0.54637034666E+02  0.14564499265E+02  0.21458575997E+03  0.22191074462E+03  0.00000000000E+00 0. -1.
        -14    1    5    5    0    0  0.42683974737E+02 -0.36879315588E+02  0.80236920873E+02  0.98081441103E+02  0.00000000000E+00 0.  1.
          5    1    4    4  501    0 -0.78950124435E+01  0.40700833626E+02 -0.11951221757E+03  0.12656828840E+03  0.41800000000E+01 0.  1.
         -5    1    4    4    0  501 -0.17176306849E+03  0.28195647448E+01 -0.10685151668E+04  0.10822442588E+04  0.41800000000E+01 0.  1.
</event>
<event>
11    1  0.8453735E-009  0.1771679E+03  0.7561462E-02  0.1071957E+00
         22   -1    0    0    0    0  0.00000000000E+00  0.00000000000E+00  0.66348093823E+03  0.66348093823E+03  0.00000000000E+00 0.  1.
         22   -1    0    0    0    0 -0.00000000000E+00 -0.00000000000E+00 -0.17656928027E+04  0.17656928027E+04  0.00000000000E+00 0.  1.
         24    2    1    2    0    0 -0.66730615162E+02  0.10526622311E+03 -0.14873495501E+04  0.14946173092E+04  0.78347074585E+02 0.  0.
         25    2    1    2    0    0  0.12497131691E+03 -0.76718807430E+02 -0.23609825730E+03  0.30478402221E+03  0.12508919870E+03 0.  0.
        -24    2    1    2    0    0 -0.58240701751E+02 -0.28547415685E+02  0.62123594294E+03  0.62977240949E+03  0.80450336668E+02 0.  0.
        -13    1    3    3    0    0 -0.44356537636E+02  0.48837888428E+02 -0.11470796139E+04  0.11489753185E+04  0.00000000000E+00 0.  1.
         14    1    3    3    0    0 -0.22374077527E+02  0.56428334686E+02 -0.34026993622E+03  0.34564199079E+03  0.00000000000E+00 0. -1.
         13    1    5    5    0    0 -0.18283260640E+02 -0.37495894142E+02  0.12350324793E+03  0.13035824464E+03  0.00000000000E+00 0. -1.
        -14    1    5    5    0    0 -0.39957441111E+02  0.89484784569E+01  0.49773269501E+03  0.49941416484E+03  0.00000000000E+00 0.  1.
          5    1    4    4  501    0  0.50621623796E+02  0.72006828346E+01 -0.16298534773E+03  0.17086864722E+03  0.41800000000E+01 0. -1.
         -5    1    4    4    0  501  0.74349693117E+02 -0.83919490264E+02 -0.73112909569E+02  0.13391537499E+03  0.41800000000E+01 0. -1.
</event>
<event>
11    1  0.8453735E-009  0.1304251E+03  0.7561462E-02  0.1118748E+00
         22   -1    0    0    0    0  0.00000000000E+00  0.00000000000E+00  0.20785684776E+04  0.20785684776E+04  0.00000000000E+00 0.  1.
         22   -1    0    0    0    0 -0.00000000000E+00 -0.00000000000E+00 -0.52519035670E+03  0.52519035670E+03  0.00000000000E+00 0.  1.
         24    2    1    2    0    0 -0.30781297939E+02  0.96130448952E+01 -0.48080322786E+03  0.48837015169E+03  0.79333235200E+02 0.  0.
         25    2    1    2    0    0 -0.10669788842E+01  0.10537826172E+02  0.59905638086E+02  0.13909989140E+03  0.12509160678E+03 0.  0.
        -24    2    1    2    0    0  0.31848276823E+02 -0.20150871067E+02  0.19742757106E+04  0.19762887912E+04  0.80823475197E+02 0.  0.
        -13    1    3    3    0    0  0.49104138735E+01  0.15398348554E+02 -0.39407866750E+03  0.39440996118E+03  0.00000000000E+00 0.  1.
         14    1    3    3    0    0 -0.35691711812E+02 -0.57853036585E+01 -0.86724560363E+02  0.93960190510E+02  0.00000000000E+00 0. -1.
         11    1    5    5    0    0  0.40818431238E+02 -0.37423109685E+01  0.44142439861E+03  0.44332341345E+03  0.00000000000E+00 0. -1.
        -12    1    5    5    0    0 -0.89701544148E+01 -0.16408560099E+02  0.15328513120E+04  0.15329653777E+04  0.00000000000E+00 0.  1.
          5    1    4    4  501    0  0.78052241890E+01  0.65896722796E+02  0.46980981975E+02  0.81412435581E+02  0.41800000000E+01 0.  1.
         -5    1    4    4    0  501 -0.88722030732E+01 -0.55358896624E+02  0.12924656111E+02  0.57687455814E+02  0.41800000000E+01 0.  1.
</event>
<event>
11    1  0.8453735E-009  0.1298238E+03  0.7561462E-02  0.1119486E+00
         22   -1    0    0    0    0  0.00000000000E+00  0.00000000000E+00  0.14113953882E+03  0.14113953882E+03  0.00000000000E+00 0.  1.
         22   -1    0    0    0    0 -0.00000000000E+00 -0.00000000000E+00 -0.11033539288E+04  0.11033539288E+04  0.00000000000E+00 0.  1.
         24    2    1    2    0    0  0.28751168909E+02 -0.19257917928E+01 -0.75925951768E+03  0.76425709204E+03  0.82362304221E+02 0.  0.
         25    2    1    2    0    0  0.72077917779E+01 -0.14715428178E+00 -0.31410800328E+03  0.33817879146E+03  0.12509629634E+03 0.  0.
        -24    2    1    2    0    0 -0.35958960687E+02  0.20729460746E+01  0.11115313102E+03  0.14205758407E+03  0.80796006684E+02 0.  0.
        -11    1    3    3    0    0  0.59095784821E+01 -0.13894155801E+02 -0.69288148823E+03  0.69304597785E+03  0.00000000000E+00 0.  1.
         12    1    3    3    0    0  0.22841590427E+02  0.11968364008E+02 -0.66378029452E+02  0.71211114191E+02  0.00000000000E+00 0. -1.
         11    1    5    5    0    0 -0.11008242698E+02 -0.94448996862E+01 -0.10135242918E+02  0.17694933919E+02  0.00000000000E+00 0. -1.
        -12    1    5    5    0    0 -0.24950717989E+02  0.11517845761E+02  0.12128837394E+03  0.12436265015E+03  0.00000000000E+00 0.  1.
          5    1    4    4  501    0  0.62849699455E+02 -0.19400436392E+02 -0.15271755368E+03  0.16633275461E+03  0.41800000000E+01 0. -1.
         -5    1    4    4    0  501 -0.55641907677E+02  0.19253282110E+02 -0.16139044959E+03  0.17184603685E+03  0.41800000000E+01 0. -1.
</event>
<event>
11    1  0.8453735E-009  0.1256201E+03  0.7561462E-02  0.1124771E+00
         22   -1    0    0    0    0  0.00000000000E+00  0.00000000000E+00  0.42180470521E+03  0.42180470521E+03  0.00000000000E+00 0. -1.
         22   -1    0    0    0    0 -0.00000000000E+00 -0.00000000000E+00 -0.84003991536E+03  0.84003991536E+03  0.00000000000E+00 0.  1.
         24    2    1    2    0    0 -0.14224248240E+02  0.11698448045E+02 -0.49846464035E+03  0.50543979460E+03  0.81628459251E+02 0.  0.
         25    2    1    2    0    0 -0.11176412295E+00  0.26145988886E+02 -0.32225470474E+03  0.34666908295E+03  0.12509089943E+03 0.  0.
        -24    2    1    2    0    0  0.14336012363E+02 -0.37844436931E+02  0.40248413495E+03  0.40973574301E+03  0.65208723064E+02 0.  0.
        -13    1    3    3    0    0 -0.53890845062E+00 -0.47058195376E+01 -0.46911242403E+03  0.46913633577E+03  0.00000000000E+00 0.  1.
         14    1    3    3    0    0 -0.13685339790E+02  0.16404267582E+02 -0.29352216322E+02  0.36303458831E+02  0.00000000000E+00 0. -1.
         13    1    5    5    0    0  0.29354377967E+02 -0.16118289030E+01  0.26919839510E+03  0.27079891696E+03  0.00000000000E+00 0. -1.
        -14    1    5    5    0    0 -0.15018365604E+02 -0.36232608028E+02  0.13328573984E+03  0.13893682606E+03  0.00000000000E+00 0.  1.
          5    1    4    4  501    0 -0.45591328603E+02  0.44667622500E+02 -0.25731433120E+03  0.26514506065E+03  0.41800000000E+01 0.  1.
         -5    1    4    4    0  501  0.45479564480E+02 -0.18521633614E+02 -0.64940373541E+02  0.81524022305E+02  0.41800000000E+01 0.  1.
</event>
<event>
11    1  0.8453735E-009  0.3378797E+03  0.7561462E-02  0.9853228E-01
         22   -1    0    0    0    0  0.00000000000E+00  0.00000000000E+00  0.11641766753E+04  0.11641766753E+04  0.00000000000E+00 0. -1.
         22   -1    0    0    0    0 -0.00000000000E+00 -0.00000000000E+00 -0.41736002646E+03  0.41736002646E+03  0.00000000000E+00 0. -1.
        -24    2    1    2    0    0  0.36495826487E+03 -0.12202949429E+03 -0.20315286854E+03  0.44249970079E+03  0.80306691103E+02 0.  0.
         25    2    1    2    0    0 -0.20730704180E+03  0.32693425835E+02  0.95667681898E+02  0.26237949105E+03  0.12508246196E+03 0.  0.
         24    2    1    2    0    0 -0.15765122307E+03  0.89336068460E+02  0.85430183548E+03  0.87665750991E+03  0.76563191730E+02 0.  0.
        -13    1    5    5    0    0 -0.37279934741E+02  0.30170711779E+02  0.40307896768E+03  0.40592206096E+03  0.00000000000E+00 0.  1.
         14    1    5    5    0    0 -0.12037128833E+03  0.59165356681E+02  0.45122286779E+03  0.47073544896E+03  0.00000000000E+00 0. -1.
         11    1    3    3    0    0  0.29077188069E+03 -0.12721926732E+03 -0.17859049267E+03  0.36418071427E+03  0.00000000000E+00 0. -1.
        -12    1    3    3    0    0  0.74186384178E+02  0.51897730258E+01 -0.24562375871E+02  0.78318986522E+02  0.00000000000E+00 0.  1.
          5    1    4    4  501    0 -0.88925861540E+01 -0.32313543020E+02  0.24601902281E+02  0.41784795642E+02  0.41800000000E+01 0.  1.
         -5    1    4    4    0  501 -0.19841445564E+03  0.65006968854E+02  0.71065779617E+02  0.22059469540E+03  0.41800000000E+01 0.  1.
</event>
<event>
11    1  0.8453735E-009  0.1540225E+03  0.7561462E-02  0.1092838E+00
         22   -1    0    0    0    0  0.00000000000E+00  0.00000000000E+00  0.71494142768E+03  0.71494142768E+03  0.00000000000E+00 0. -1.
         22   -1    0    0    0    0 -0.00000000000E+00 -0.00000000000E+00 -0.63370187560E+02  0.63370187560E+02  0.00000000000E+00 0.  1.
        -24    2    1    2    0    0  0.40512672372E+02 -0.25675983970E+02  0.42886491937E+02  0.10379877258E+03  0.81451833766E+02 0.  0.
         25    2    1    2    0    0  0.33742008774E+02 -0.46586171391E+02  0.18068781101E+03  0.22716662426E+03  0.12509114920E+03 0.  0.
         24    2    1    2    0    0 -0.74254681145E+02  0.72262155360E+02  0.42799693717E+03  0.44734621840E+03  0.78750772178E+02 0.  0.
        -13    1    5    5    0    0 -0.73224176922E+02  0.21322092383E+02  0.20841571576E+03  0.22193134588E+03  0.00000000000E+00 0.  1.
         14    1    5    5    0    0 -0.10305042229E+01  0.50940062977E+02  0.21958122141E+03  0.22541487252E+03  0.00000000000E+00 0. -1.
         13    1    3    3    0    0 -0.24085858549E+02  0.21039984742E+01  0.98639401507E+01  0.26112309490E+02  0.00000000000E+00 0. -1.
        -14    1    3    3    0    0  0.64598530920E+02 -0.27779982444E+02  0.33022551786E+02  0.77686463094E+02  0.00000000000E+00 0.  1.
          5    1    4    4  501    0  0.20002898694E+01 -0.79946071187E+02  0.15451971971E+03  0.17403790287E+03  0.41800000000E+01 0. -1.
         -5    1    4    4    0  501  0.31741718904E+02  0.33359899796E+02  0.26168091304E+02  0.53128721384E+02  0.41800000000E+01 0. -1.
</event>
<event>
11    1  0.8453735E-009  0.1586062E+03  0.7561462E-02  0.1088396E+00
         22   -1    0    0    0    0  0.00000000000E+00  0.00000000000E+00  0.35007609801E+03  0.35007609801E+03  0.00000000000E+00 0.  1.
         22   -1    0    0    0    0 -0.00000000000E+00 -0.00000000000E+00 -0.50765655639E+03  0.50765655639E+03  0.00000000000E+00 0. -1.
         24    2    1    2    0    0  0.65108046207E+02 -0.69938332200E+02 -0.42364472804E+03  0.44174044830E+03  0.80804332043E+02 0.  0.
         25    2    1    2    0    0 -0.89985777212E+02  0.83096196188E+02  0.47865902335E+02  0.18150302196E+03  0.12509909852E+03 0.  0.
        -24    2    1    2    0    0  0.24877731005E+02 -0.13157863988E+02  0.21819836732E+03  0.23448918414E+03  0.81133341415E+02 0.  0.
        -11    1    3    3    0    0  0.40029312749E+02 -0.82144929411E+02 -0.25664558569E+03  0.27242814092E+03  0.00000000000E+00 0.  1.
         12    1    3    3    0    0  0.25078733458E+02  0.12206597211E+02 -0.16699914235E+03  0.16931230739E+03  0.00000000000E+00 0. -1.
         11    1    5    5    0    0 -0.19401212766E+02  0.21308574648E+02  0.91260571738E+02  0.95702426114E+02  0.00000000000E+00 0. -1.
        -12    1    5    5    0    0  0.44278943771E+02 -0.34466438636E+02  0.12693779559E+03  0.13878675802E+03  0.00000000000E+00 0.  1.
          5    1    4    4  501    0 -0.94406910907E+02  0.11069413382E+03  0.31741480397E+02  0.14896593593E+03  0.41800000000E+01 0. -1.
         -5    1    4    4    0  501  0.44211336959E+01 -0.27597937629E+02  0.16124421938E+02  0.32537086030E+02  0.41800000000E+01 0. -1.
</event>
<event>
11    1  0.8453735E-009  0.1316613E+03  0.7561462E-02  0.1117244E+00
         22   -1    0    0    0    0  0.00000000000E+00  0.00000000000E+00  0.13985299765E+03  0.13985299765E+03  0.00000000000E+00 0.  1.
         22   -1    0    0    0    0 -0.00000000000E+00 -0.00000000000E+00 -0.91550376026E+03  0.91550376026E+03  0.00000000000E+00 0. -1.
         24    2    1    2    0    0  0.36568923118E+02 -0.18279234816E+02 -0.56671564298E+03  0.57362805789E+03  0.78810609906E+02 0.  0.
         25    2    1    2    0    0  0.57525959439E+00 -0.35028120927E+01 -0.31666636478E+03  0.34049552336E+03  0.12508802593E+03 0.  0.
        -24    2    1    2    0    0 -0.37144182713E+02  0.21782046909E+02  0.10773124515E+03  0.14123317666E+03  0.80539686682E+02 0.  0.
        -13    1    3    3    0    0 -0.23054155380E+01  0.56107654473E+01 -0.10876677288E+01  0.61626821106E+01  0.00000000000E+00 0.  1.
         14    1    3    3    0    0  0.38874338656E+02 -0.23890000264E+02 -0.56562797525E+03  0.56746537578E+03  0.00000000000E+00 0. -1.
         11    1    5    5    0    0  0.77596604982E+01 -0.15944737257E+01 -0.10188561856E+02  0.12905869602E+02  0.00000000000E+00 0. -1.
        -12    1    5    5    0    0 -0.44903843211E+02  0.23376520635E+02  0.11791980701E+03  0.12832730706E+03  0.00000000000E+00 0.  1.
          5    1    4    4  501    0 -0.93611821887E+01 -0.19153146663E+02  0.14869374784E+01  0.21775172608E+02  0.41800000000E+01 0.  1.
         -5    1    4    4    0  501  0.99364417831E+01  0.15650334570E+02 -0.31815330225E+03  0.31872035075E+03  0.41800000000E+01 0.  1.
</event>
<event>
11    1  0.8453735E-009  0.1362086E+03  0.7561462E-02  0.1111868E+00
         22   -1    0    0    0    0  0.00000000000E+00  0.00000000000E+00  0.67869262756E+03  0.67869262756E+03  0.00000000000E+00 0. -1.
         22   -1    0    0    0    0 -0.00000000000E+00 -0.00000000000E+00 -0.41441176732E+03  0.41441176732E+03  0.00000000000E+00 0. -1.
        -24    2    1    2    0    0  0.19132225078E+01 -0.55259867966E+02 -0.29149663169E+03  0.30733381981E+03  0.80165311000E+02 0.  0.
         25    2    1    2    0    0  0.18569073489E+02  0.47000098999E+02 -0.72054748389E+02  0.15293918145E+03  0.12507872186E+03 0.  0.
         24    2    1    2    0    0 -0.20482295996E+02  0.82597689665E+01  0.62783224031E+03  0.63283139361E+03  0.76252885402E+02 0.  0.
        -13    1    5    5    0    0 -0.20370995724E+02  0.24225822325E+02  0.59930238718E+03  0.60013766688E+03  0.00000000000E+00 0.  1.
         14    1    5    5    0    0 -0.11130027235E+00 -0.15966053358E+02  0.28529853137E+02  0.32693726732E+02  0.00000000000E+00 0. -1.
         13    1    3    3    0    0 -0.11448720284E+02 -0.42366080775E+02 -0.28389913782E+03  0.28727108878E+03  0.00000000000E+00 0. -1.
        -14    1    3    3    0    0  0.13361942792E+02 -0.12893787191E+02 -0.75974938692E+01  0.20062731030E+02  0.00000000000E+00 0.  1.
          5    1    4    4  501    0 -0.33923033701E+02  0.51347146577E+02  0.22966368926E+01  0.61725591274E+02  0.41800000000E+01 0. -1.
         -5    1    4    4    0  501  0.52492107190E+02 -0.43470475776E+01 -0.74351385282E+02  0.91213590178E+02  0.41800000000E+01 0. -1.
</event>
<event>
11    1  0.8453735E-009  0.1691160E+03  0.7561462E-02  0.1078804E+00
         22   -1    0    0    0    0  0.00000000000E+00  0.00000000000E+00  0.29108049193E+03  0.29108049193E+03  0.00000000000E+00 0. -1.
         22   -1    0    0    0    0 -0.00000000000E+00 -0.00000000000E+00 -0.48762397260E+03  0.48762397260E+03  0.00000000000E+00 0. -1.
         24    2    1    2    0    0  0.39975641365E+02  0.11279469914E+02 -0.12626354060E+03  0.15443254663E+03  0.78623478875E+02 0.  0.
         25    2    1    2    0    0 -0.10399256825E+03  0.81905066423E+02 -0.30293730879E+03  0.35347103106E+03  0.12509141689E+03 0.  0.
        -24    2    1    2    0    0  0.64016926888E+02 -0.93184536337E+02  0.23265736872E+03  0.27080088685E+03  0.80138282724E+02 0.  0.
        -11    1    3    3    0    0  0.17204230450E+02  0.43007437192E+02 -0.46568806831E+02  0.65683171123E+02  0.00000000000E+00 0.  1.
         12    1    3    3    0    0  0.22771410915E+02 -0.31727967279E+02 -0.79694733768E+02  0.88749375508E+02  0.00000000000E+00 0. -1.
         11    1    5    5    0    0  0.54415759229E+02 -0.98804342744E+02  0.23382950823E+03  0.25961435229E+03  0.00000000000E+00 0. -1.
        -12    1    5    5    0    0  0.96011676589E+01  0.56198064072E+01 -0.11721395038E+01  0.11186534561E+02  0.00000000000E+00 0.  1.
          5    1    4    4  501    0 -0.97657797448E+01 -0.31673940497E+02 -0.42034400773E+02  0.53693316242E+02  0.41800000000E+01 0. -1.
         -5    1    4    4    0  501 -0.94226788508E+02  0.11357900692E+03 -0.26090290802E+03  0.29977771481E+03  0.41800000000E+01 0. -1.
</event>
<event>
11    1  0.8453735E-009  0.2032894E+03  0.7561462E-02  0.1052222E+00
         22   -1    0    0    0    0  0.00000000000E+00  0.00000000000E+00  0.10240617329E+04  0.10240617329E+04  0.00000000000E+00 0.  1.
         22   -1    0    0    0    0 -0.00000000000E+00 -0.00000000000E+00 -0.93655827907E+02  0.93655827907E+02  0.00000000000E+00 0. -1.
        -24    2    1    2    0    0  0.10770048772E+03  0.11277287320E+03  0.60644566622E+02  0.18526365521E+03  0.79547108667E+02 0.  0.
         25    2    1    2    0    0 -0.14780080802E+03 -0.10077065297E+03  0.41982390360E+03  0.47317986614E+03  0.12508905761E+03 0.  0.
         24    2    1    2    0    0  0.40100320305E+02 -0.12002220232E+02  0.44993743474E+03  0.45927403943E+03  0.82078371861E+02 0.  0.
        -13    1    5    5    0    0  0.47316950115E+02 -0.90257786253E+01  0.44880893565E+03  0.45138655182E+03  0.00000000000E+00 0.  1.
         14    1    5    5    0    0 -0.72166298109E+01 -0.29764416064E+01  0.11284990939E+01  0.78874876018E+01  0.00000000000E+00 0. -1.
         11    1    3    3    0    0  0.85551705247E+02  0.12357957488E+03  0.49797488739E+02  0.15833759972E+03  0.00000000000E+00 0. -1.
        -12    1    3    3    0    0  0.22148782472E+02 -0.10806701679E+02  0.10847077882E+02  0.26926055499E+02  0.00000000000E+00 0.  1.
          5    1    4    4  501    0 -0.43051134788E+02 -0.68266273585E+02  0.29996197471E+03  0.31065791956E+03  0.41800000000E+01 0.  1.
         -5    1    4    4    0  501 -0.10474967324E+03 -0.32504379387E+02  0.11986192890E+03  0.16252194658E+03  0.41800000000E+01 0.  1.
</event>
<event>
11    1  0.1107050E-008  0.1405734E+03  0.7561462E-02  0.1106920E+00
         22   -1    0    0    0    0  0.00000000000E+00  0.00000000000E+00  0.58167797572E+03  0.58167797572E+03  0.00000000000E+00 0.  1.
         22   -1    0    0    0    0 -0.00000000000E+00 -0.00000000000E+00 -0.51154855882E+03  0.51154855882E+03  0.00000000000E+00 0.  1.
        -24    2    1    2    0    0  0.46866939034E+02  0.41976464223E+02 -0.33010401890E+03  0.34546008530E+03  0.80096652337E+02 0.  0.
         25    2    1    2    0    0  0.17356603075E+02 -0.53592813206E+02 -0.14099155815E+03  0.19670522829E+03  0.12506352813E+03 0.  0.
         24    2    1    2    0    0 -0.64223542108E+02  0.11616348982E+02  0.54122499395E+03  0.55106122095E+03  0.80525599847E+02 0.  0.
        -11    1    5    5    0    0 -0.57492657753E+02  0.40870095594E+02  0.43476167914E+03  0.44044691854E+03  0.00000000000E+00 0.  1.
         12    1    5    5    0    0 -0.67308843549E+01 -0.29253746612E+02  0.10646331482E+03  0.11061430241E+03  0.00000000000E+00 0. -1.
         11    1    3    3    0    0  0.11817151413E+02  0.17151903547E+02 -0.11146382772E+02  0.23623604969E+02  0.00000000000E+00 0. -1.
        -12    1    3    3    0    0  0.35049787620E+02  0.24824560676E+02 -0.31895763613E+03  0.32183648033E+03  0.00000000000E+00 0.  1.
          5    1    4    4  501    0  0.21503117245E+02  0.37915013123E+02 -0.31794659021E+02  0.54113815367E+02  0.41800000000E+01 0.  1.
         -5    1    4    4    0  501 -0.41465141700E+01 -0.91507826329E+02 -0.10919689913E+03  0.14259141292E+03  0.41800000000E+01 0.  1.
</event>
<event>
11    1  0.8453735E-009  0.1392654E+03  0.7561462E-02  0.1108381E+00
         22   -1    0    0    0    0  0.00000000000E+00  0.00000000000E+00  0.22950008649E+04  0.22950008649E+04  0.00000000000E+00 0.  1.
         22   -1    0    0    0    0 -0.00000000000E+00 -0.00000000000E+00 -0.53539329356E+03  0.53539329356E+03  0.00000000000E+00 0.  1.
        -24    2    1    2    0    0  0.85188562250E+01 -0.31698930361E+02 -0.51876079363E+03  0.52558395922E+03  0.77771100603E+02 0.  0.
         25    2    1    2    0    0 -0.29616653530E+02  0.85508974505E+02  0.49154606118E+03  0.51522283850E+03  0.12509241449E+03 0.  0.
         24    2    1    2    0    0  0.21097797305E+02 -0.53810044145E+02  0.17868223038E+04  0.17895873608E+04  0.80921804650E+02 0.  0.
        -11    1    5    5    0    0 -0.72792168017E+01 -0.52764736907E+02  0.58246961806E+03  0.58489995761E+03  0.00000000000E+00 0.  1.
         12    1    5    5    0    0  0.28377014107E+02 -0.10453072374E+01  0.12043526858E+04  0.12046874031E+04  0.00000000000E+00 0. -1.
         13    1    3    3    0    0 -0.10991909429E+02 -0.24148035211E+02 -0.52214161344E+02  0.58568492573E+02  0.00000000000E+00 0. -1.
        -14    1    3    3    0    0  0.19510765654E+02 -0.75508951493E+01 -0.46654663228E+03  0.46701546665E+03  0.00000000000E+00 0.  1.
          5    1    4    4  501    0 -0.47443831259E+02  0.93702964054E+02  0.22968153513E+03  0.25259105799E+03  0.41800000000E+01 0.  1.
         -5    1    4    4    0  501  0.17827177729E+02 -0.81939895489E+01  0.26186452605E+03  0.26263178051E+03  0.41800000000E+01 0.  1.
</event>
<event>
11    1  0.8453735E-009  0.2160948E+03  0.7561462E-02  0.1043692E+00
         22   -1    0    0    0    0  0.00000000000E+00  0.00000000000E+00  0.39072320129E+03  0.39072320129E+03  0.00000000000E+00 0.  1.
         22   -1    0    0    0    0 -0.00000000000E+00 -0.00000000000E+00 -0.60442826422E+03  0.60442826422E+03  0.00000000000E+00 0. -1.
         24    2    1    2    0    0  0.67444728481E+02  0.25682681704E+02 -0.12743516598E+03  0.16697384007E+03  0.80200687033E+02 0.  0.
         25    2    1    2    0    0 -0.23959466221E+03 -0.21496530697E+02 -0.38709548089E+03  0.47260821129E+03  0.12509159469E+03 0.  0.
        -24    2    1    2    0    0  0.17214993373E+03 -0.41861510074E+01  0.30082558394E+03  0.35556941415E+03  0.79249307794E+02 0.  0.
        -11    1    3    3    0    0 -0.17470194989E+02 -0.30319955892E+01 -0.15344697927E+02  0.23449103707E+02  0.00000000000E+00 0.  1.
         12    1    3    3    0    0  0.84914923470E+02  0.28714677294E+02 -0.11209046805E+03  0.14352473636E+03  0.00000000000E+00 0. -1.
         11    1    5    5    0    0  0.82015865226E+02 -0.14178255105E+02  0.74320819255E+02  0.11158498663E+03  0.00000000000E+00 0. -1.
        -12    1    5    5    0    0  0.90134068504E+02  0.99921040980E+01  0.22650476468E+03  0.24398442752E+03  0.00000000000E+00 0.  1.
          5    1    4    4  501    0 -0.14838463020E+03 -0.73779973086E+02 -0.22897657514E+03  0.28268220190E+03  0.41800000000E+01 0.  1.
         -5    1    4    4    0  501 -0.91210032008E+02  0.52283442389E+02 -0.15811890575E+03  0.18992600939E+03  0.41800000000E+01 0.  1.
</event>
<event>
11    1  0.8453735E-009  0.1344644E+03  0.7561462E-02  0.1113902E+00
         22   -1    0    0    0    0  0.00000000000E+00  0.00000000000E+00  0.26292006173E+03  0.26292006173E+03  0.00000000000E+00 0. -1.
         22   -1    0    0    0    0 -0.00000000000E+00 -0.00000000000E+00 -0.10015936242E+04  0.10015936242E+04  0.00000000000E+00 0. -1.
        -24    2    1    2    0    0 -0.44982575652E+02  0.23810120877E+02 -0.81758194917E+03  0.82324461603E+03  0.81860248265E+02 0.  0.
         25    2    1    2    0    0  0.32339948337E+02 -0.16133489778E+02 -0.14987799308E+03  0.19853009960E+03  0.12507847891E+03 0.  0.
         24    2    1    2    0    0  0.12642627315E+02 -0.76766310992E+01  0.22878637982E+03  0.24273897026E+03  0.79751071499E+02 0.  0.
        -11    1    5    5    0    0  0.14385694343E+02 -0.16216970066E+02  0.10163374432E+02  0.23942274322E+02  0.00000000000E+00 0.  1.
         12    1    5    5    0    0 -0.17430670282E+01  0.85403389668E+01  0.21862300538E+03  0.21879669594E+03  0.00000000000E+00 0. -1.
         13    1    3    3    0    0 -0.58085183818E+02  0.10998468924E+02 -0.76983911247E+03  0.77210563655E+03  0.00000000000E+00 0. -1.
        -14    1    3    3    0    0  0.13102608166E+02  0.12811651953E+02 -0.47742836701E+02  0.51138979485E+02  0.00000000000E+00 0.  1.
          5    1    4    4  501    0 -0.33720288328E+02 -0.40453941165E+02 -0.33822919080E+02  0.62729908782E+02  0.41800000000E+01 0.  1.
         -5    1    4    4    0  501  0.66060236665E+02  0.24320451388E+02 -0.11605507400E+03  0.13580019082E+03  0.41800000000E+01 0.  1.
</event>
<event>
11    1  0.8453735E-009  0.1281626E+03  0.7561462E-02  0.1121547E+00
         22   -1    0    0    0    0  0.00000000000E+00  0.00000000000E+00  0.30558756220E+03  0.30558756220E+03  0.00000000000E+00 0.  1.
         22   -1    0    0    0    0 -0.00000000000E+00 -0.00000000000E+00 -0.16760044781E+03  0.16760044781E+03  0.00000000000E+00 0.  1.
        -24    2    1    2    0    0  0.18997327419E+02 -0.26900847479E+02 -0.96763180629E+02  0.13000228419E+03  0.80330110946E+02 0.  0.
         25    2    1    2    0    0  0.14438976739E+01  0.31569677953E+01  0.40614249338E+02  0.13156493821E+03  0.12509102458E+03 0.  0.
         24    2    1    2    0    0 -0.20441225093E+02  0.23743879684E+02  0.19413604568E+03  0.21162078761E+03  0.78185280016E+02 0.  0.
        -11    1    5    5    0    0 -0.13986107887E+02  0.27966123955E+02  0.19968533966E+03  0.20211865371E+03  0.00000000000E+00 0.  1.
         12    1    5    5    0    0 -0.64551172058E+01 -0.42222442710E+01 -0.55492939852E+01  0.95021338950E+01  0.00000000000E+00 0. -1.
         11    1    3    3    0    0  0.36654668899E+02  0.15551948527E+02 -0.35065863155E+02  0.53056975168E+02  0.00000000000E+00 0. -1.
        -12    1    3    3    0    0 -0.17657341480E+02 -0.42452796006E+02 -0.61697317473E+02  0.76945309021E+02  0.00000000000E+00 0.  1.
          5    1    4    4  501    0 -0.10366690164E+02 -0.59293483833E+02  0.28492881350E+02  0.66727072300E+02  0.41800000000E+01 0.  1.
         -5    1    4    4    0  501  0.11810587838E+02  0.62450451629E+02  0.12121367988E+02  0.64837865909E+02  0.41800000000E+01 0.  1.
</event>
<event>
11    1  0.8453735E-009  0.1830153E+03  0.7561462E-02  0.1067230E+00
         22   -1    0    0    0    0  0.00000000000E+00  0.00000000000E+00  0.18462561473E+03  0.18462561473E+03  0.00000000000E+00 0.  1.
         22   -1    0    0    0    0 -0.00000000000E+00 -0.00000000000E+00 -0.12336307286E+04  0.12336307286E+04  0.00000000000E+00 0.  1.
        -24    2    1    2    0    0  0.15243440838E+02  0.16019674581E+02 -0.88832035585E+03  0.89225254884E+03  0.80700457426E+02 0.  0.
         25    2    1    2    0    0  0.57437347903E+02  0.99042597930E+02 -0.28005797393E+03  0.32739621093E+03  0.12508926825E+03 0.  0.
         24    2    1    2    0    0 -0.72680788740E+02 -0.11506227251E+03  0.11937321596E+03  0.19860758352E+03  0.81689558290E+02 0.  0.
        -13    1    5    5    0    0 -0.70121827096E+02 -0.38747489511E+02  0.44399243265E+02  0.91595476860E+02  0.00000000000E+00 0.  1.
         14    1    5    5    0    0 -0.25589616444E+01 -0.76314783000E+02  0.74973972696E+02  0.10701210666E+03  0.00000000000E+00 0. -1.
         11    1    3    3    0    0 -0.26426148414E+02  0.14984913789E+02 -0.16781879729E+03  0.17054629191E+03  0.00000000000E+00 0. -1.
        -12    1    3    3    0    0  0.41669589252E+02  0.10347607920E+01 -0.72050155856E+03  0.72170625693E+03  0.00000000000E+00 0.  1.
          5    1    4    4  501    0 -0.84839070639E+01  0.85866352694E+02 -0.85641048008E+02  0.12164238039E+03  0.41800000000E+01 0.  1.
         -5    1    4    4    0  501  0.65921254967E+02  0.13176245236E+02 -0.19441692592E+03  0.20575383054E+03  0.41800000000E+01 0.  1.
</event>
<event>
11    1  0.8453735E-009  0.1453225E+03  0.7561462E-02  0.1101756E+00
         22   -1    0    0    0    0  0.00000000000E+00  0.00000000000E+00  0.32436333388E+04  0.32436333388E+04  0.00000000000E+00 0.  1.
         22   -1    0    0    0    0 -0.00000000000E+00 -0.00000000000E+00 -0.57673198255E+03  0.57673198255E+03  0.00000000000E+00 0. -1.
         24    2    1    2    0    0 -0.27908308003E+02  0.17364373565E+00 -0.40688803691E+03  0.41965648421E+03  0.98867519204E+02 0.  0.
         25    2    1    2    0    0  0.94646388648E+02  0.31374617686E+02 -0.12316896545E+03  0.20189388046E+03  0.12509292305E+03 0.  0.
        -24    2    1    2    0    0 -0.66738080645E+02 -0.31548261422E+02  0.31969583586E+04  0.31988149567E+04  0.80156822378E+02 0.  0.
        -13    1    3    3    0    0  0.36205447897E+02 -0.10567153609E+02 -0.14689286434E+03  0.15165755104E+03  0.00000000000E+00 0.  1.
         14    1    3    3    0    0 -0.64113755900E+02  0.10740797344E+02 -0.25999517257E+03  0.26799893317E+03  0.00000000000E+00 0. -1.
         13    1    5    5    0    0 -0.36188936705E+02  0.23699302646E+02  0.97369528221E+03  0.97465573342E+03  0.00000000000E+00 0. -1.
        -14    1    5    5    0    0 -0.30549143940E+02 -0.55247564068E+02  0.22232630764E+04  0.22241592233E+04  0.00000000000E+00 0.  1.
          5    1    4    4  501    0  0.12282898703E+03  0.81295804434E+01 -0.93156756471E+02  0.15443025548E+03  0.41800000000E+01 0.  1.
         -5    1    4    4    0  501 -0.28182598379E+02  0.23245037243E+02 -0.30012208983E+02  0.47463624976E+02  0.41800000000E+01 0.  1.
</event>
<event>
11    1  0.8453735E-009  0.1415787E+03  0.7561462E-02  0.1105808E+00
         22   -1    0    0    0    0  0.00000000000E+00  0.00000000000E+00  0.17402960722E+03  0.17402960722E+03  0.00000000000E+00 0. -1.
         22   -1    0    0    0    0 -0.00000000000E+00 -0.00000000000E+00 -0.17056863051E+04  0.17056863051E+04  0.00000000000E+00 0. -1.
         24    2    1    2    0    0 -0.45772783552E+02  0.40601956166E+02 -0.84492047678E+03  0.85073364970E+03  0.78188644273E+02 0.  0.
         25    2    1    2    0    0  0.26861698761E+02 -0.81346639673E+02 -0.83843731334E+03  0.85203488151E+03  0.12508990476E+03 0.  0.
        -24    2    1    2    0    0  0.18911084791E+02  0.40744683507E+02  0.15170109219E+03  0.17694738115E+03  0.79242639800E+02 0.  0.
        -13    1    3    3    0    0 -0.58711218717E+02  0.17925894630E+02 -0.36683316006E+03  0.37193401595E+03  0.00000000000E+00 0.  1.
         14    1    3    3    0    0  0.12938435165E+02  0.22676061536E+02 -0.47808731672E+03  0.47879963375E+03  0.00000000000E+00 0. -1.
         13    1    5    5    0    0  0.17351464077E+02  0.62999518399E+02  0.13154459361E+03  0.14688087939E+03  0.00000000000E+00 0. -1.
        -14    1    5    5    0    0  0.15596207136E+01 -0.22254834892E+02  0.20156498587E+02  0.30066501761E+02  0.00000000000E+00 0.  1.
          5    1    4    4  501    0  0.54559069907E+02 -0.96630621089E+02 -0.74656719408E+03  0.75478090644E+03  0.41800000000E+01 0. -1.
         -5    1    4    4    0  501 -0.27697371146E+02  0.15283981416E+02 -0.91870119252E+02  0.97253975074E+02  0.41800000000E+01 0. -1.
</event>
<event>
11    1  0.8453735E-009  0.1386912E+03  0.7561462E-02  0.1109029E+00
         22   -1    0    0    0    0  0.00000000000E+00  0.00000000000E+00  0.83475627926E+03  0.83475627926E+03  0.00000000000E+00 0.  1.
         22   -1    0    0    0    0 -0.00000000000E+00 -0.00000000000E+00 -0.15826486365E+03  0.15826486365E+03  0.00000000000E+00 0. -1.
        -24    2    1    2    0    0  0.50499749528E+02  0.49763249430E+02 -0.46707902224E+02  0.12468509899E+03  0.91313416773E+02 0.  0.
         25    2    1    2    0    0 -0.53618023216E+02  0.29621830659E+01 -0.26226222076E+01  0.13615627797E+03  0.12509191397E+03 0.  0.
         24    2    1    2    0    0  0.31182736889E+01 -0.52725432496E+02  0.72582194004E+03  0.73217976596E+03  0.80498609753E+02 0.  0.
        -13    1    5    5    0    0  0.10360866039E+02 -0.63768749595E+02  0.70179634215E+03  0.70476372411E+03  0.00000000000E+00 0.  1.
         14    1    5    5    0    0 -0.72425923506E+01  0.11043317099E+02  0.24025597890E+02  0.27416041846E+02  0.00000000000E+00 0. -1.
         13    1    3    3    0    0 -0.33048962610E+01 -0.51216046554E+01 -0.47432766241E+02  0.47822803000E+02  0.00000000000E+00 0. -1.
        -14    1    3    3    0    0  0.53804645789E+02  0.54884854085E+02  0.72486401646E+00  0.76862295986E+02  0.00000000000E+00 0.  1.
          5    1    4    4  501    0 -0.16407520011E+02  0.62963046125E+02  0.24727750505E+01  0.65246753994E+02  0.41800000000E+01 0. -1.
         -5    1    4    4    0  501 -0.37210503206E+02 -0.60000863059E+02 -0.50953972581E+01  0.70909523972E+02  0.41800000000E+01 0. -1.
</event>
<event>
11    1  0.8453735E-009  0.3353122E+03  0.7561462E-02  0.9862631E-01
         22   -1    0    0    0    0  0.00000000000E+00  0.00000000000E+00  0.11424793891E+04  0.11424793891E+04  0.00000000000E+00 0. -1.
         22   -1    0    0    0    0 -0.00000000000E+00 -0.00000000000E+00 -0.48157433366E+03  0.48157433366E+03  0.00000000000E+00 0. -1.
        -24    2    1    2    0    0  0.67451788834E+02  0.12031444387E+02 -0.10047516363E+03  0.14560999055E+03  0.80078157879E+02 0.  0.
         25    2    1    2    0    0  0.24493945476E+03 -0.57222748066E+02 -0.27433713604E+03  0.39265538704E+03  0.12509040478E+03 0.  0.
         24    2    1    2    0    0 -0.31239124359E+03  0.45191303679E+02  0.10357173551E+04  0.10857883452E+04  0.81211746912E+02 0.  0.
        -11    1    5    5    0    0 -0.18819143107E+03 -0.32272954094E+01  0.69157001447E+03  0.71672555074E+03  0.00000000000E+00 0.  1.
         12    1    5    5    0    0 -0.12419981252E+03  0.48418599089E+02  0.34414734063E+03  0.36906279443E+03  0.00000000000E+00 0. -1.
         13    1    3    3    0    0  0.69399493663E+01 -0.93096544304E+01 -0.76084964681E+02  0.76965930212E+02  0.00000000000E+00 0. -1.
        -14    1    3    3    0    0  0.60511839467E+02  0.21341098817E+02 -0.24390198951E+02  0.68644060335E+02  0.00000000000E+00 0.  1.
          5    1    4    4  501    0  0.20033208725E+03 -0.94081605240E+02 -0.23320700846E+03  0.32153891650E+03  0.41800000000E+01 0. -1.
         -5    1    4    4    0  501  0.44607367506E+02  0.36858857174E+02 -0.41130127579E+02  0.71116470544E+02  0.41800000000E+01 0. -1.
</event>
<event>
11    1  0.8453735E-009  0.1629845E+03  0.7561462E-02  0.1084303E+00
         22   -1    0    0    0    0  0.00000000000E+00  0.00000000000E+00  0.15383509889E+04  0.15383509889E+04  0.00000000000E+00 0.  1.
         22   -1    0    0    0    0 -0.00000000000E+00 -0.00000000000E+00 -0.12334615572E+04  0.12334615572E+04  0.00000000000E+00 0. -1.
         24    2    1    2    0    0 -0.23307910427E+02 -0.80500015019E+02 -0.11795926895E+04  0.11852995409E+04  0.80452330204E+02 0.  0.
         25    2    1    2    0    0 -0.27638365864E+02  0.16753978649E+03  0.18445262505E+03  0.28018474015E+03  0.12508900191E+03 0.  0.
        -24    2    1    2    0    0  0.50946276291E+02 -0.87039771473E+02  0.13000294962E+04  0.13063282650E+04  0.79027843948E+02 0.  0.
        -13    1    3    3    0    0 -0.34801497892E+02 -0.96861075513E+01 -0.21241714591E+03  0.21546695526E+03  0.00000000000E+00 0.  1.
         14    1    3    3    0    0  0.11493587465E+02 -0.70813907468E+02 -0.96717554362E+03  0.96983258567E+03  0.00000000000E+00 0. -1.
         13    1    5    5    0    0 -0.19753069712E+02 -0.24073558472E+02  0.44083309475E+03  0.44193159811E+03  0.00000000000E+00 0. -1.
        -14    1    5    5    0    0  0.70699346003E+02 -0.62966213002E+02  0.85919640140E+03  0.86439666687E+03  0.00000000000E+00 0.  1.
          5    1    4    4  501    0 -0.45866433196E+02  0.55191938195E+02  0.11057787103E+02  0.72729820510E+02  0.41800000000E+01 0. -1.
         -5    1    4    4    0  501  0.18228067332E+02  0.11234784830E+03  0.17339483795E+03  0.20745491964E+03  0.41800000000E+01 0. -1.
</event>
<event>
11    1  0.8453735E-009  0.1445287E+03  0.7561462E-02  0.1102604E+00
         22   -1    0    0    0    0  0.00000000000E+00  0.00000000000E+00  0.57588710831E+03  0.57588710831E+03  0.00000000000E+00 0. -1.
         22   -1    0    0    0    0 -0.00000000000E+00 -0.00000000000E+00 -0.18098086159E+04  0.18098086159E+04  0.00000000000E+00 0.  1.
        -24    2    1    2    0    0  0.17325918363E+02  0.76121900487E+02 -0.16140547587E+04  0.16179149725E+04  0.79883433510E+02 0.  0.
         25    2    1    2    0    0 -0.12180418551E+02 -0.81598253839E+01 -0.16802720742E+03  0.20998948956E+03  0.12508995942E+03 0.  0.
         24    2    1    2    0    0 -0.51454998118E+01 -0.67962075104E+02  0.54816045851E+03  0.55779126217E+03  0.77497639092E+02 0.  0.
        -13    1    5    5    0    0  0.22118636684E+02  0.58375953168E+01  0.86436211064E+02  0.89412136710E+02  0.00000000000E+00 0.  1.
         14    1    5    5    0    0 -0.27264136495E+02 -0.73799670420E+02  0.46172424744E+03  0.46837912546E+03  0.00000000000E+00 0. -1.
         13    1    3    3    0    0  0.12601837634E+01 -0.45758332557E+01 -0.55315253409E+01  0.72886271477E+01  0.00000000000E+00 0. -1.
        -14    1    3    3    0    0  0.16065734600E+02  0.80697733743E+02 -0.16085232334E+04  0.16106263454E+04  0.00000000000E+00 0.  1.
          5    1    4    4  501    0  0.21609635071E+02 -0.40001273582E+02 -0.15500324710E+03  0.16158761471E+03  0.41800000000E+01 0. -1.
         -5    1    4    4    0  501 -0.33790053622E+02  0.31841448198E+02 -0.13023960323E+02  0.48401874857E+02  0.41800000000E+01 0. -1.
</event>
<event>
11    1  0.8453735E-009  0.2457905E+03  0.7561462E-02  0.1026166E+00
         22   -1    0    0    0    0  0.00000000000E+00  0.00000000000E+00  0.64280323881E+03  0.64280323881E+03  0.00000000000E+00 0. -1.
         22   -1    0    0    0    0 -0.00000000000E+00 -0.00000000000E+00 -0.13716545392E+04  0.13716545392E+04  0.00000000000E+00 0. -1.
         24    2    1    2    0    0  0.49820478935E+02 -0.20691254979E+03 -0.10210374183E+04  0.10456351301E+04  0.74434751546E+02 0.  0.
         25    2    1    2    0    0 -0.14975429070E+03  0.17100361853E+03 -0.27976974067E+03  0.38155573346E+03  0.12508031343E+03 0.  0.
        -24    2    1    2    0    0  0.99933811768E+02  0.35908931260E+02  0.57195585856E+03  0.58726691452E+03  0.80453133348E+02 0.  0.
        -11    1    3    3    0    0  0.19114751918E+02 -0.13425213682E+03 -0.47672859033E+03  0.49564015053E+03  0.00000000000E+00 0.  1.
         12    1    3    3    0    0  0.30705727018E+02 -0.72660412965E+02 -0.54430882798E+03  0.54999497952E+03  0.00000000000E+00 0. -1.
         11    1    5    5    0    0  0.10239713329E+03  0.29373160830E+02  0.57019933729E+03  0.58006485821E+03  0.00000000000E+00 0. -1.
        -12    1    5    5    0    0 -0.24633215265E+01  0.65357704303E+01  0.17565212694E+01  0.72020563057E+01  0.00000000000E+00 0.  1.
          5    1    4    4  501    0 -0.41036623040E+01  0.45943153768E+02 -0.13009291934E+03  0.13809146782E+03  0.41800000000E+01 0.  1.
         -5    1    4    4    0  501 -0.14565062840E+03  0.12506046476E+03 -0.14967682132E+03  0.24346426563E+03  0.41800000000E+01 0.  1.
</event>
<event>
11    1  0.8453735E-009  0.2483829E+03  0.7561462E-02  0.1024764E+00
         22   -1    0    0    0    0  0.00000000000E+00  0.00000000000E+00  0.14267046118E+04  0.14267046118E+04  0.00000000000E+00 0.  1.
         22   -1    0    0    0    0 -0.00000000000E+00 -0.00000000000E+00 -0.74101101949E+03  0.74101101949E+03  0.00000000000E+00 0. -1.
        -24    2    1    2    0    0 -0.15691374017E+03 -0.14469155325E+03 -0.66709898532E+03  0.70504244352E+03  0.80661164816E+02 0.  0.
         25    2    1    2    0    0  0.19890211869E+03  0.13091471925E+03  0.28784702567E+03  0.39395839524E+03  0.12508633203E+03 0.  0.
         24    2    1    2    0    0 -0.41988378525E+02  0.13776834001E+02  0.10649455520E+04  0.10687147925E+04  0.78034954118E+02 0.  0.
        -11    1    5    5    0    0 -0.18774139080E+02  0.13575058312E+02  0.98966109527E+03  0.98993223708E+03  0.00000000000E+00 0.  1.
         12    1    5    5    0    0 -0.23214239445E+02  0.20177568854E+00  0.75284456690E+02  0.78782555465E+02  0.00000000000E+00 0. -1.
         11    1    3    3    0    0 -0.69235643064E+02 -0.65677201800E+02 -0.42658207538E+03  0.43712622450E+03  0.00000000000E+00 0. -1.
        -12    1    3    3    0    0 -0.87678097106E+02 -0.79014351449E+02 -0.24051690993E+03  0.26791621901E+03  0.00000000000E+00 0.  1.
          5    1    4    4  501    0  0.19482782618E+03  0.15133363810E+03  0.25486017552E+03  0.35472656137E+03  0.41800000000E+01 0. -1.
         -5    1    4    4    0  501  0.40742925148E+01 -0.20418918851E+02  0.32986850144E+02  0.39231833873E+02  0.41800000000E+01 0. -1.
</event>
<event>
11    1  0.8453735E-009  0.1148704E+04  0.7561462E-02  0.8549161E-01
         22   -1    0    0    0    0  0.00000000000E+00  0.00000000000E+00  0.11727942356E+03  0.11727942356E+03  0.00000000000E+00 0. -1.
         22   -1    0    0    0    0 -0.00000000000E+00 -0.00000000000E+00 -0.28127714627E+04  0.28127714627E+04  0.00000000000E+00 0. -1.
        -24    2    1    2    0    0  0.15946317001E+03 -0.28351470610E+03 -0.14012716238E+04  0.14407633441E+04  0.80173304258E+02 0.  0.
         25    2    1    2    0    0 -0.32352140610E+03  0.37161479900E+03 -0.74978057501E+03  0.90586006965E+03  0.12509155080E+03 0.  0.
         24    2    1    2    0    0  0.16405823609E+03 -0.88100092903E+02 -0.54443984027E+03  0.58342747251E+03  0.96416517285E+02 0.  0.
        -13    1    5    5    0    0  0.12168243850E+02 -0.51295807239E+02 -0.11762299032E+03  0.12889722204E+03  0.00000000000E+00 0.  1.
         14    1    5    5    0    0  0.15188999224E+03 -0.36804285663E+02 -0.42681684995E+03  0.45453025047E+03  0.00000000000E+00 0. -1.
         13    1    3    3    0    0  0.78278827625E+02 -0.19125762039E+03 -0.99848056900E+03  0.10196423387E+04  0.00000000000E+00 0. -1.
        -14    1    3    3    0    0  0.81184342385E+02 -0.92257085711E+02 -0.40279105483E+03  0.42112100537E+03  0.00000000000E+00 0.  1.
          5    1    4    4  501    0 -0.19478492224E+03  0.18302257855E+03 -0.30277105367E+03  0.40388886285E+03  0.41800000000E+01 0. -1.
         -5    1    4    4    0  501 -0.12873648387E+03  0.18859222045E+03 -0.44700952134E+03  0.50197120680E+03  0.41800000000E+01 0. -1.
</event>
<event>
11    1  0.8453735E-009  0.1494619E+03  0.7561462E-02  0.1097430E+00
         22   -1    0    0    0    0  0.00000000000E+00  0.00000000000E+00  0.22890094694E+04  0.22890094694E+04  0.00000000000E+00 0. -1.
         22   -1    0    0    0    0 -0.00000000000E+00 -0.00000000000E+00 -0.86719228877E+02  0.86719228877E+02  0.00000000000E+00 0.  1.
        -24    2    1    2    0    0 -0.64188580372E+02 -0.49274371301E+02 -0.20099398990E+02  0.11517222854E+03  0.79451361666E+02 0.  0.
         25    2    1    2    0    0  0.89511434189E+02  0.26578403533E+02  0.31975696184E+03  0.35582471018E+03  0.12509197153E+03 0.  0.
         24    2    1    2    0    0 -0.25322853817E+02  0.22695967768E+02  0.19026326777E+04  0.19047317596E+04  0.82677783242E+02 0.  0.
        -11    1    5    5    0    0  0.84523278961E+01 -0.24139740851E+02  0.31025648511E+03  0.31130893898E+03  0.00000000000E+00 0.  1.
         12    1    5    5    0    0 -0.33775181713E+02  0.46835708620E+02  0.15923761926E+04  0.15934228206E+04  0.00000000000E+00 0. -1.
         11    1    3    3    0    0 -0.70971737075E+01  0.64176813342E+00  0.25639220768E+02  0.26611113891E+02  0.00000000000E+00 0. -1.
        -12    1    3    3    0    0 -0.57091406665E+02 -0.49916139435E+02 -0.45738619758E+02  0.88561114652E+02  0.00000000000E+00 0.  1.
          5    1    4    4  501    0  0.53992586880E+02 -0.24868427156E+02  0.26803127431E+03  0.27457580833E+03  0.41800000000E+01 0. -1.
         -5    1    4    4    0  501  0.35518847308E+02  0.51446830689E+02  0.51725687530E+02  0.81248901855E+02  0.41800000000E+01 0. -1.
</event>
<event>
11    1  0.8453735E-009  0.1393940E+03  0.7561462E-02  0.1108237E+00
         22   -1    0    0    0    0  0.00000000000E+00  0.00000000000E+00  0.31488118626E+03  0.31488118626E+03  0.00000000000E+00 0. -1.
         22   -1    0    0    0    0 -0.00000000000E+00 -0.00000000000E+00 -0.29376134830E+03  0.29376134830E+03  0.00000000000E+00 0. -1.
        -24    2    1    2    0    0 -0.35900316720E+01  0.48856521842E+02 -0.15613498734E+03  0.18268885596E+03  0.81223369589E+02 0.  0.
         25    2    1    2    0    0 -0.10483223212E+02  0.15177181455E+02 -0.78859635228E+02  0.14901960444E+03  0.12509098942E+03 0.  0.
         24    2    1    2    0    0  0.14073254884E+02 -0.64033703298E+02  0.25611446053E+03  0.27693407415E+03  0.82459037562E+02 0.  0.
        -13    1    5    5    0    0  0.44771670113E+01  0.19069476671E+02  0.29879621245E+02  0.35727884498E+02  0.00000000000E+00 0.  1.
         14    1    5    5    0    0  0.95960878731E+01 -0.83103179969E+02  0.22623483928E+03  0.24120618966E+03  0.00000000000E+00 0. -1.
         11    1    3    3    0    0  0.17783550434E+02  0.80336716411E+01 -0.12628930000E+03  0.12778803481E+03  0.00000000000E+00 0. -1.
        -12    1    3    3    0    0 -0.21373582106E+02  0.40822850201E+02 -0.29845687343E+02  0.54900821156E+02  0.00000000000E+00 0.  1.
          5    1    4    4  501    0  0.54756669244E+02 -0.47363059744E+01 -0.19399981532E+02  0.58434211763E+02  0.41800000000E+01 0. -1.
         -5    1    4    4    0  501 -0.65239892456E+02  0.19913487430E+02 -0.59459653696E+02  0.90585392680E+02  0.41800000000E+01 0. -1.
</event>
<event>
11    1  0.8453735E-009  0.1842305E+03  0.7561462E-02  0.1066271E+00
         22   -1    0    0    0    0  0.00000000000E+00  0.00000000000E+00  0.24446338247E+04  0.24446338247E+04  0.00000000000E+00 0.  1.
         22   -1    0    0    0    0 -0.00000000000E+00 -0.00000000000E+00 -0.18700377535E+03  0.18700377535E+03  0.00000000000E+00 0.  1.
         24    2    1    2    0    0  0.12804509955E+03  0.39506095595E+02 -0.13064761478E+03  0.20354342101E+03  0.80030281038E+02 0.  0.
         25    2    1    2    0    0 -0.12528320950E+03 -0.12364586913E+03  0.62873069795E+03  0.66478113991E+03  0.12508992727E+03 0.  0.
        -24    2    1    2    0    0 -0.27618900469E+01  0.84139773538E+02  0.17595469661E+04  0.17633130391E+04  0.78614364086E+02 0.  0.
        -13    1    3    3    0    0  0.12475929529E+03  0.30219332437E+02 -0.14001243554E+03  0.18995149886E+03  0.00000000000E+00 0.  1.
         14    1    3    3    0    0  0.32858042579E+01  0.92867631581E+01  0.93648207690E+01  0.13591922146E+02  0.00000000000E+00 0. -1.
         11    1    5    5    0    0  0.20299397398E+01  0.82378043293E+02  0.90328712482E+03  0.90703797745E+03  0.00000000000E+00 0. -1.
        -12    1    5    5    0    0 -0.47918297867E+01  0.17617302451E+01  0.85625984133E+03  0.85627506165E+03  0.00000000000E+00 0.  1.
          5    1    4    4  501    0 -0.84382960092E+02 -0.53030872852E+01  0.18038320717E+03  0.19925907889E+03  0.41800000000E+01 0. -1.
         -5    1    4    4    0  501 -0.40900249407E+02 -0.11834278185E+03  0.44834749077E+03  0.46552206102E+03  0.41800000000E+01 0. -1.
</event>
<event>
11    1  0.8453735E-009  0.2491322E+03  0.7561462E-02  0.1024363E+00
         22   -1    0    0    0    0  0.00000000000E+00  0.00000000000E+00  0.27840920255E+04  0.27840920255E+04  0.00000000000E+00 0. -1.
         22   -1    0    0    0    0 -0.00000000000E+00 -0.00000000000E+00 -0.14085020644E+03  0.14085020644E+03  0.00000000000E+00 0.  1.
         24    2    1    2    0    0  0.20993426602E+02 -0.27436580871E+02 -0.89826764290E+02  0.12565472797E+03  0.80788446875E+02 0.  0.
         25    2    1    2    0    0 -0.17839688609E+03  0.16532927203E+03  0.66403725166E+03  0.71815855193E+03  0.12508803685E+03 0.  0.
        -24    2    1    2    0    0  0.15740345949E+03 -0.13789269115E+03  0.20690313317E+04  0.20811289521E+04  0.80105057059E+02 0.  0.
        -13    1    3    3    0    0  0.39390563256E+02 -0.41904135950E+01 -0.87342475668E+02  0.95905599917E+02  0.00000000000E+00 0.  1.
         14    1    3    3    0    0 -0.18397136653E+02 -0.23246167276E+02 -0.24842886225E+01  0.29749128055E+02  0.00000000000E+00 0. -1.
         13    1    5    5    0    0  0.99721258882E+02 -0.13050593360E+03  0.16324337457E+04  0.16406754896E+04  0.00000000000E+00 0. -1.
        -14    1    5    5    0    0  0.57682200609E+02 -0.73867575501E+01  0.43659758605E+03  0.44045346247E+03  0.00000000000E+00 0.  1.
          5    1    4    4  501    0 -0.16863073158E+03  0.86805502721E+02  0.40414711534E+03  0.44645703284E+03  0.41800000000E+01 0. -1.
         -5    1    4    4    0  501 -0.97661545159E+01  0.78523769305E+02  0.25989013631E+03  0.27170151908E+03  0.41800000000E+01 0. -1.
</event>
<event>
11    1  0.8453735E-009  0.1341307E+03  0.7561462E-02  0.1114295E+00
         22   -1    0    0    0    0  0.00000000000E+00  0.00000000000E+00  0.63497209055E+02  0.63497209055E+02  0.00000000000E+00 0. -1.
         22   -1    0    0    0    0 -0.00000000000E+00 -0.00000000000E+00 -0.66975077031E+03  0.66975077031E+03  0.00000000000E+00 0. -1.
        -24    2    1    2    0    0 -0.32168785528E+02  0.30771221664E+02 -0.37188997897E+03  0.38297001772E+03  0.79888542168E+02 0.  0.
         25    2    1    2    0    0  0.45060796613E+02 -0.42805737039E+02 -0.23016697637E+03  0.26923388970E+03  0.12508894371E+03 0.  0.
         24    2    1    2    0    0 -0.12892011085E+02  0.12034515375E+02 -0.41966059066E+01  0.81044071935E+02  0.78990484139E+02 0.  0.
        -11    1    5    5    0    0  0.43741712205E+01  0.38565299834E+01 -0.40021057553E+02  0.40443679914E+02  0.00000000000E+00 0.  1.
         12    1    5    5    0    0 -0.17266182305E+02  0.81779853916E+01  0.35824451646E+02  0.40600392020E+02  0.00000000000E+00 0. -1.
         13    1    3    3    0    0 -0.52726665402E+02  0.13241326896E+02 -0.15205573211E+03  0.16148182452E+03  0.00000000000E+00 0. -1.
        -14    1    3    3    0    0  0.20557879874E+02  0.17529894768E+02 -0.21983424686E+03  0.22148819321E+03  0.00000000000E+00 0.  1.
          5    1    4    4  501    0 -0.30964578225E+02  0.12648466077E+02 -0.11821434229E+03  0.12292636789E+03  0.41800000000E+01 0. -1.
         -5    1    4    4    0  501  0.76025374838E+02 -0.55454203116E+02 -0.11195263408E+03  0.14630752182E+03  0.41800000000E+01 0. -1.
</event>
<event>
11    1  0.8453735E-009  0.1392842E+03  0.7561462E-02  0.1108360E+00
         22   -1    0    0    0    0  0.00000000000E+00  0.00000000000E+00  0.10218671784E+04  0.10218671784E+04  0.00000000000E+00 0.  1.
         22   -1    0    0    0    0 -0.00000000000E+00 -0.00000000000E+00 -0.28562133122E+03  0.28562133122E+03  0.00000000000E+00 0.  1.
        -24    2    1    2    0    0 -0.21451304446E+02  0.16394701419E+02 -0.11736059696E+03  0.13585188961E+03  0.62875126209E+02 0.  0.
         25    2    1    2    0    0  0.81509442852E+02 -0.26243901751E+02 -0.11962547938E+03  0.19310717116E+03  0.12509033769E+03 0.  0.
         24    2    1    2    0    0 -0.60058138406E+02  0.98492003313E+01  0.97323192351E+03  0.97852944883E+03  0.81458692281E+02 0.  0.
        -13    1    5    5    0    0 -0.67198289910E+02  0.27534966936E+02  0.89748203647E+03  0.90041534325E+03  0.00000000000E+00 0.  1.
         14    1    5    5    0    0  0.71401515034E+01 -0.17685766604E+02  0.75749887040E+02  0.78114105579E+02  0.00000000000E+00 0. -1.
         11    1    3    3    0    0 -0.70508193669E+01 -0.96829373027E+01  0.25922742748E+01  0.12255334123E+02  0.00000000000E+00 0. -1.
        -12    1    3    3    0    0 -0.14400485079E+02  0.26077638722E+02 -0.11995287123E+03  0.12359655549E+03  0.00000000000E+00 0.  1.
          5    1    4    4  501    0  0.10392576130E+03 -0.52139782765E+02 -0.83923164563E+02  0.14345623290E+03  0.41800000000E+01 0. -1.
         -5    1    4    4    0  501 -0.22416318449E+02  0.25895881014E+02 -0.35702314821E+02  0.49650938258E+02  0.41800000000E+01 0. -1.
</event>
<event>
11    1  0.8453735E-009  0.1345543E+03  0.7561462E-02  0.1113796E+00
         22   -1    0    0    0    0  0.00000000000E+00  0.00000000000E+00  0.29730915591E+04  0.29730915591E+04  0.00000000000E+00 0.  1.
         22   -1    0    0    0    0 -0.00000000000E+00 -0.00000000000E+00 -0.38988277601E+02  0.38988277601E+02  0.00000000000E+00 0. -1.
         24    2    1    2    0    0 -0.29793101966E+02 -0.45911152726E+02  0.12642611815E+03  0.15973950248E+03  0.80855936282E+02 0.  0.
         25    2    1    2    0    0  0.51251672746E+02  0.96179385010E+01  0.19206244966E+03  0.23506276195E+03  0.12508908341E+03 0.  0.
        -24    2    1    2    0    0 -0.21458570780E+02  0.36293214225E+02  0.26156147137E+04  0.26172775723E+04  0.83209928351E+02 0.  0.
        -13    1    3    3    0    0 -0.29374448710E+02 -0.38917413686E+02  0.13791632320E+03  0.14628169923E+03  0.00000000000E+00 0.  1.
         14    1    3    3    0    0 -0.41865325570E+00 -0.69937390396E+01 -0.11490205046E+02  0.13457803250E+02  0.00000000000E+00 0. -1.
         13    1    5    5    0    0 -0.40869395802E+01  0.48932536284E+01  0.13650963461E+02  0.15066380110E+02  0.00000000000E+00 0. -1.
        -14    1    5    5    0    0 -0.17371631200E+02  0.31399960596E+02  0.26019637503E+04  0.26022111922E+04  0.00000000000E+00 0.  1.
          5    1    4    4  501    0  0.32372748873E+02  0.42991373666E+02  0.18186613332E+02  0.56960322891E+02  0.41800000000E+01 0. -1.
         -5    1    4    4    0  501  0.18878923872E+02 -0.33373435166E+02  0.17387583633E+03  0.17810243906E+03  0.41800000000E+01 0. -1.
</event>
<event>
11    1  0.8453735E-009  0.1482995E+03  0.7561462E-02  0.1098629E+00
         22   -1    0    0    0    0  0.00000000000E+00  0.00000000000E+00  0.19313718950E+04  0.19313718950E+04  0.00000000000E+00 0. -1.
         22   -1    0    0    0    0 -0.00000000000E+00 -0.00000000000E+00 -0.55924547926E+02  0.55924547926E+02  0.00000000000E+00 0. -1.
        -24    2    1    2    0    0 -0.73296881249E+02  0.16112599713E+02  0.52532239791E+02  0.12170846591E+03  0.80132800947E+02 0.  0.
         25    2    1    2    0    0  0.10669591965E+03  0.47569053357E+02  0.35847037915E+03  0.39723313052E+03  0.12508522353E+03 0.  0.
         24    2    1    2    0    0 -0.33399038405E+02 -0.63681653070E+02  0.14644447282E+04  0.14683548465E+04  0.79352030543E+02 0.  0.
        -13    1    5    5    0    0  0.14843381662E+02  0.89208627442E+01  0.14432132210E+03  0.14535663654E+03  0.00000000000E+00 0.  1.
         14    1    5    5    0    0 -0.48242420068E+02 -0.72602515814E+02  0.13201234061E+04  0.13229982100E+04  0.00000000000E+00 0. -1.
         13    1    3    3    0    0 -0.20188591182E+02  0.18725757997E+02 -0.18356669330E+02  0.33093814156E+02  0.00000000000E+00 0. -1.
        -14    1    3    3    0    0 -0.53108290067E+02 -0.26131582841E+01  0.70888909121E+02  0.88614651759E+02  0.00000000000E+00 0.  1.
          5    1    4    4  501    0 -0.93603237326E+01  0.39692782302E+02  0.17666213161E+03  0.18135631716E+03  0.41800000000E+01 0. -1.
         -5    1    4    4    0  501  0.11605624339E+03  0.78762710547E+01  0.18180824754E+03  0.21587681337E+03  0.41800000000E+01 0. -1.
</event>
<event>
11    1  0.8453735E-009  0.1501350E+03  0.7561462E-02  0.1096741E+00
         22   -1    0    0    0    0  0.00000000000E+00  0.00000000000E+00  0.23910862702E+03  0.23910862702E+03  0.00000000000E+00 0. -1.
         22   -1    0    0    0    0 -0.00000000000E+00 -0.00000000000E+00 -0.48744612104E+03  0.48744612104E+03  0.00000000000E+00 0.  1.
         24    2    1    2    0    0 -0.10148545543E+01 -0.75336482178E+02 -0.32058368020E+03  0.33767674657E+03  0.74666416033E+02 0.  0.
         25    2    1    2    0    0 -0.33905446287E+02  0.14194547742E+03 -0.73887827920E+02  0.20592814224E+03  0.12509552671E+03 0.  0.
        -24    2    1    2    0    0  0.34920300841E+02 -0.66608995245E+02  0.14613401411E+03  0.18294985925E+03  0.80369865384E+02 0.  0.
        -11    1    3    3    0    0  0.12182290298E+02 -0.65792294845E+02 -0.31233249569E+03  0.31941919498E+03  0.00000000000E+00 0.  1.
         12    1    3    3    0    0 -0.13197144852E+02 -0.95441873329E+01 -0.82511845131E+01  0.18257551587E+02  0.00000000000E+00 0. -1.
         13    1    5    5    0    0 -0.20434438609E+02 -0.41521942992E+02  0.84797586116E+02  0.96603667850E+02  0.00000000000E+00 0. -1.
        -14    1    5    5    0    0  0.55354739451E+02 -0.25087052254E+02  0.61336427995E+02  0.86346191402E+02  0.00000000000E+00 0.  1.
          5    1    4    4  501    0 -0.62179797792E+02  0.20030704319E+02 -0.37894925564E+02  0.75637650363E+02  0.41800000000E+01 0.  1.
         -5    1    4    4    0  501  0.28274351505E+02  0.12191477310E+03 -0.35992902357E+02  0.13029049188E+03  0.41800000000E+01 0.  1.
</event>
<event>
11    1  0.8453735E-009  0.1320473E+03  0.7561462E-02  0.1116779E+00
         22   -1    0    0    0    0  0.00000000000E+00  0.00000000000E+00  0.23591294436E+04  0.23591294436E+04  0.00000000000E+00 0. -1.
         22   -1    0    0    0    0 -0.00000000000E+00 -0.00000000000E+00 -0.34419305546E+02  0.34419305546E+02  0.00000000000E+00 0. -1.
        -24    2    1    2    0    0 -0.38887109359E+02 -0.19834853874E+02  0.90002810789E+02  0.12846163613E+03  0.80599362934E+02 0.  0.
         25    2    1    2    0    0  0.30792191667E+02  0.24018855065E+02  0.28469724404E+03  0.31341110446E+03  0.12509570405E+03 0.  0.
         24    2    1    2    0    0  0.80949176918E+01 -0.41840011903E+01  0.19500100832E+04  0.19516760085E+04  0.80105456138E+02 0.  0.
        -13    1    5    5    0    0  0.34795718273E+02 -0.19365487218E+02  0.60179108347E+03  0.60310718139E+03  0.00000000000E+00 0.  1.
         14    1    5    5    0    0 -0.26700800581E+02  0.15181486028E+02  0.13482189997E+04  0.13485688271E+04  0.00000000000E+00 0. -1.
         11    1    3    3    0    0 -0.48557909370E+02  0.18495495117E+02  0.54957476297E+02  0.75632520142E+02  0.00000000000E+00 0. -1.
        -12    1    3    3    0    0  0.96708000115E+01 -0.38330348992E+02  0.35045334492E+02  0.52829115991E+02  0.00000000000E+00 0.  1.
          5    1    4    4  501    0 -0.26091425915E+02 -0.12777868367E+02  0.10874785068E+02  0.31301274360E+02  0.41800000000E+01 0. -1.
         -5    1    4    4    0  501  0.56883617582E+02  0.36796723432E+02  0.27382245897E+03  0.28210983010E+03  0.41800000000E+01 0. -1.
</event>
<event>
11    1  0.8453735E-009  0.1396630E+03  0.7561462E-02  0.1107935E+00
         22   -1    0    0    0    0  0.00000000000E+00  0.00000000000E+00  0.51142938455E+03  0.51142938455E+03  0.00000000000E+00 0. -1.
         22   -1    0    0    0    0 -0.00000000000E+00 -0.00000000000E+00 -0.16976233250E+03  0.16976233250E+03  0.00000000000E+00 0. -1.
         24    2    1    2    0    0 -0.59319188514E+02 -0.14262880824E+02 -0.11446527492E+03  0.15262876800E+03  0.80442810498E+02 0.  0.
         25    2    1    2    0    0  0.57454046969E+02  0.74106888157E+02  0.20086833932E+03  0.25453513344E+03  0.12508895247E+03 0.  0.
        -24    2    1    2    0    0  0.18651415451E+01 -0.59844007333E+02  0.25526398766E+03  0.27402781561E+03  0.79666532291E+02 0.  0.
        -11    1    3    3    0    0 -0.21867882942E+02 -0.26325716186E+02 -0.29204062327E+01  0.34347873437E+02  0.00000000000E+00 0.  1.
         12    1    3    3    0    0 -0.37451305572E+02  0.12062835362E+02 -0.11154486869E+03  0.11828089456E+03  0.00000000000E+00 0. -1.
         11    1    5    5    0    0 -0.25015596544E+02 -0.17087677394E+02  0.18518398038E+03  0.18764561114E+03  0.00000000000E+00 0. -1.
        -12    1    5    5    0    0  0.26880738089E+02 -0.42756329939E+02  0.70080007280E+02  0.86382204478E+02  0.00000000000E+00 0.  1.
          5    1    4    4  501    0 -0.32700083933E+02  0.51564670086E+02  0.10065729171E+03  0.11780311313E+03  0.41800000000E+01 0. -1.
         -5    1    4    4    0  501  0.90154130902E+02  0.22542218071E+02  0.10021104761E+03  0.13673202031E+03  0.41800000000E+01 0. -1.
</event>
<event>
11    1  0.8453735E-009  0.1803264E+03  0.7561462E-02  0.1069379E+00
         22   -1    0    0    0    0  0.00000000000E+00  0.00000000000E+00  0.38482500573E+03  0.38482500573E+03  0.00000000000E+00 0. -1.
         22   -1    0    0    0    0 -0.00000000000E+00 -0.00000000000E+00 -0.11612995014E+04  0.11612995014E+04  0.00000000000E+00 0.  1.
         24    2    1    2    0    0 -0.80807503224E+02 -0.91568001775E+02 -0.74543229356E+03  0.76232914561E+03  0.10277096106E+03 0.  0.
         25    2    1    2    0    0  0.12009541712E+03  0.96506417623E+02 -0.37686184430E+03  0.42591415481E+03  0.12506646124E+03 0.  0.
        -24    2    1    2    0    0 -0.39287913891E+02 -0.49384158484E+01  0.34581964222E+03  0.35788120669E+03  0.83185365466E+02 0.  0.
        -13    1    3    3    0    0 -0.19493460939E+02 -0.84208965783E+01 -0.42762827650E+03  0.42815516975E+03  0.00000000000E+00 0.  1.
         14    1    3    3    0    0 -0.61314042286E+02 -0.83147105197E+02 -0.31780401706E+03  0.33417397586E+03  0.00000000000E+00 0. -1.
         13    1    5    5    0    0 -0.40608471796E+02 -0.42416423931E+00  0.34953567687E+03  0.35188693823E+03  0.00000000000E+00 0. -1.
        -14    1    5    5    0    0  0.13205579052E+01 -0.45142516091E+01 -0.37160346498E+01  0.59942684532E+01  0.00000000000E+00 0.  1.
          5    1    4    4  501    0  0.14364831409E+03  0.65792959684E+02 -0.28012840638E+03  0.32164102373E+03  0.41800000000E+01 0.  1.
         -5    1    4    4    0  501 -0.23552896974E+02  0.30713457939E+02 -0.96733437911E+02  0.10427313108E+03  0.41800000000E+01 0.  1.
</event>
<event>
11    1  0.8453735E-009  0.1294844E+03  0.7561462E-02  0.1119904E+00
         22   -1    0    0    0    0  0.00000000000E+00  0.00000000000E+00  0.28796699603E+03  0.28796699603E+03  0.00000000000E+00 0. -1.
         22   -1    0    0    0    0 -0.00000000000E+00 -0.00000000000E+00 -0.16152315291E+03  0.16152315291E+03  0.00000000000E+00 0.  1.
        -24    2    1    2    0    0  0.11584465119E+02 -0.14557869072E+02 -0.91246833811E+02  0.12333437697E+03  0.80865644609E+02 0.  0.
         25    2    1    2    0    0 -0.40949957701E+02  0.22213882857E+02  0.59735214658E+02  0.14624247963E+03  0.12509281095E+03 0.  0.
         24    2    1    2    0    0  0.29365492582E+02 -0.76560137842E+01  0.15795546226E+03  0.17991329234E+03  0.80609664437E+02 0.  0.
        -13    1    5    5    0    0  0.21630525676E+02  0.27739125617E+02  0.27875035845E+02  0.44881581461E+02  0.00000000000E+00 0.  1.
         14    1    5    5    0    0  0.77349669061E+01 -0.35395139402E+02  0.13008042642E+03  0.13503171088E+03  0.00000000000E+00 0. -1.
         13    1    3    3    0    0 -0.85454635145E+01  0.16258133669E+01  0.13162795081E+02  0.15777432938E+02  0.00000000000E+00 0. -1.
        -14    1    3    3    0    0  0.20129928633E+02 -0.16183682439E+02 -0.10440962889E+03  0.10755694403E+03  0.00000000000E+00 0.  1.
          5    1    4    4  501    0 -0.46564682004E+02 -0.34417723212E+02  0.67075331604E+02  0.88709761531E+02  0.41800000000E+01 0.  1.
         -5    1    4    4    0  501  0.56147243025E+01  0.56631606069E+02 -0.73401169452E+01  0.57532718097E+02  0.41800000000E+01 0.  1.
</event>
<event>
11    1  0.8453735E-009  0.1314236E+03  0.7561462E-02  0.1117532E+00
         22   -1    0    0    0    0  0.00000000000E+00  0.00000000000E+00  0.40632396416E+03  0.40632396416E+03  0.00000000000E+00 0.  1.
         22   -1    0    0    0    0 -0.00000000000E+00 -0.00000000000E+00 -0.33664935786E+03  0.33664935786E+03  0.00000000000E+00 0. -1.
        -24    2    1    2    0    0 -0.36992978758E+02  0.46056066069E+00 -0.27005506325E+03  0.28420947753E+03  0.80477309426E+02 0.  0.
         25    2    1    2    0    0 -0.72412879137E+01  0.38186300435E+01  0.21471190411E+02  0.12718039582E+03  0.12508726105E+03 0.  0.
         24    2    1    2    0    0  0.44234266671E+02 -0.42791907042E+01  0.31825847914E+03  0.33158344868E+03  0.81756602600E+02 0.  0.
        -13    1    5    5    0    0  0.68381899498E+02 -0.64073501637E+01  0.22726860120E+03  0.23741978731E+03  0.00000000000E+00 0.  1.
         14    1    5    5    0    0 -0.24147632826E+02  0.21281594595E+01  0.90989877942E+02  0.94163661365E+02  0.00000000000E+00 0. -1.
         11    1    3    3    0    0  0.14890935618E+02 -0.17721760145E+02 -0.29742870855E+02  0.37688713336E+02  0.00000000000E+00 0. -1.
        -12    1    3    3    0    0 -0.51883914376E+02  0.18182320806E+02 -0.24031219240E+03  0.24652076419E+03  0.00000000000E+00 0.  1.
          5    1    4    4  501    0 -0.57176082287E+02  0.33930783470E+02  0.72209843752E+01  0.67007592614E+02  0.41800000000E+01 0.  1.
         -5    1    4    4    0  501  0.49934794373E+02 -0.30112153426E+02  0.14250206035E+02  0.60172803201E+02  0.41800000000E+01 0.  1.
</event>
<event>
11    1  0.8453735E-009  0.2898238E+03  0.7561462E-02  0.1004592E+00
         22   -1    0    0    0    0  0.00000000000E+00  0.00000000000E+00  0.54608125824E+03  0.54608125824E+03  0.00000000000E+00 0. -1.
         22   -1    0    0    0    0 -0.00000000000E+00 -0.00000000000E+00 -0.24669634332E+03  0.24669634332E+03  0.00000000000E+00 0.  1.
         24    2    1    2    0    0 -0.10195740721E+03  0.23773312161E+03 -0.47882893169E+02  0.27820602689E+03  0.90517799045E+02 0.  0.
         25    2    1    2    0    0  0.93098581513E+02 -0.25332407120E+03  0.27555661651E+03  0.40548730135E+03  0.12509225287E+03 0.  0.
        -24    2    1    2    0    0  0.88588256919E+01  0.15590949596E+02  0.71711191589E+02  0.10908427332E+03  0.80220491051E+02 0.  0.
        -13    1    3    3    0    0 -0.71490318745E+02  0.23131301461E+03 -0.49137144642E+02  0.24704460202E+03  0.00000000000E+00 0.  1.
         14    1    3    3    0    0 -0.30467088460E+02  0.64201069981E+01  0.12542514728E+01  0.31161424869E+02  0.00000000000E+00 0. -1.
         11    1    5    5    0    0  0.43553101888E+02  0.10192171198E+02  0.27047671755E+02  0.52271690093E+02  0.00000000000E+00 0. -1.
        -12    1    5    5    0    0 -0.34694276196E+02  0.53987783972E+01  0.44663519834E+02  0.56812583227E+02  0.00000000000E+00 0.  1.
          5    1    4    4  501    0  0.98386500514E+02 -0.11200710919E+03  0.18449553266E+03  0.23723737050E+03  0.41800000000E+01 0.  1.
         -5    1    4    4    0  501 -0.52879190008E+01 -0.14131696201E+03  0.91061083852E+02  0.16824993085E+03  0.41800000000E+01 0.  1.
</event>
<event>
11    1  0.8453735E-009  0.1520102E+03  0.7561462E-02  0.1094842E+00
         22   -1    0    0    0    0  0.00000000000E+00  0.00000000000E+00  0.66612219319E+03  0.66612219319E+03  0.00000000000E+00 0. -1.
         22   -1    0    0    0    0 -0.00000000000E+00 -0.00000000000E+00 -0.74052229601E+03  0.74052229601E+03  0.00000000000E+00 0. -1.
        -24    2    1    2    0    0 -0.13170477464E+02 -0.85338219378E+02 -0.65934899649E+03  0.66973735752E+03  0.79692883741E+02 0.  0.
         25    2    1    2    0    0  0.65522940862E+02  0.76905202827E+02  0.17866958369E+02  0.16178015288E+03  0.12508366666E+03 0.  0.
         24    2    1    2    0    0 -0.52352463398E+02  0.84330165513E+01  0.56708193531E+03  0.57512697880E+03  0.79857524345E+02 0.  0.
        -13    1    5    5    0    0  0.17308661957E+02  0.14236871620E+02  0.21557571257E+03  0.21673755129E+03  0.00000000000E+00 0.  1.
         14    1    5    5    0    0 -0.69661125356E+02 -0.58038550691E+01  0.35150622274E+03  0.35838942750E+03  0.00000000000E+00 0. -1.
         11    1    3    3    0    0 -0.11271003920E+02 -0.60099572519E+02 -0.61962882200E+03  0.62263863613E+03  0.00000000000E+00 0. -1.
        -12    1    3    3    0    0 -0.18994735443E+01 -0.25238646859E+02 -0.39720174491E+02  0.47098721391E+02  0.00000000000E+00 0.  1.
          5    1    4    4  501    0  0.91112758581E+02  0.71965111009E+02 -0.17665824468E+02  0.11751623604E+03  0.41800000000E+01 0. -1.
         -5    1    4    4    0  501 -0.25589817719E+02  0.49400918181E+01  0.35532782837E+02  0.44263916842E+02  0.41800000000E+01 0. -1.
</event>
<event>
11    1  0.8453735E-009  0.1340807E+03  0.7561462E-02  0.1114354E+00
         22   -1    0    0    0    0  0.00000000000E+00  0.00000000000E+00  0.11880002693E+04  0.11880002693E+04  0.00000000000E+00 0. -1.
         22   -1    0    0    0    0 -0.00000000000E+00 -0.00000000000E+00 -0.17058893782E+04  0.17058893782E+04  0.00000000000E+00 0.  1.
         24    2    1    2    0    0  0.38797915738E+02  0.32319415557E+02 -0.13739916867E+04  0.13772545719E+04  0.80169681349E+02 0.  0.
         25    2    1    2    0    0 -0.42192449978E+02  0.51694318630E+01 -0.31528921550E+03  0.34184993152E+03  0.12508861023E+03 0.  0.
        -24    2    1    2    0    0  0.33945342398E+01 -0.37488847420E+02  0.11713917933E+04  0.11747851441E+04  0.80897867200E+02 0.  0.
        -13    1    3    3    0    0  0.58304847172E+02  0.33952042494E+01 -0.97138596335E+03  0.97314010934E+03  0.00000000000E+00 0.  1.
         14    1    3    3    0    0 -0.19506931434E+02  0.28924211307E+02 -0.40260572333E+03  0.40411446253E+03  0.00000000000E+00 0. -1.
         13    1    5    5    0    0  0.41959672679E+02 -0.15079944449E+02  0.56880019751E+03  0.57054507583E+03  0.00000000000E+00 0. -1.
        -14    1    5    5    0    0 -0.38565138440E+02 -0.22408902971E+02  0.60259159575E+03  0.60424006827E+03  0.00000000000E+00 0.  1.
          5    1    4    4  501    0 -0.82281500916E+02 -0.17507815435E+02 -0.17669609678E+03  0.19574409828E+03  0.41800000000E+01 0. -1.
         -5    1    4    4    0  501  0.40089050938E+02  0.22677247298E+02 -0.13859311873E+03  0.14610583325E+03  0.41800000000E+01 0. -1.
</event>
<event>
11    1  0.8453735E-009  0.1294612E+03  0.7561462E-02  0.1119933E+00
         22   -1    0    0    0    0  0.00000000000E+00  0.00000000000E+00  0.71062323286E+03  0.71062323286E+03  0.00000000000E+00 0.  1.
         22   -1    0    0    0    0 -0.00000000000E+00 -0.00000000000E+00 -0.43336900773E+03  0.43336900773E+03  0.00000000000E+00 0.  1.
        -24    2    1    2    0    0 -0.30618075156E+02  0.96456537034E+01 -0.36445705176E+03  0.37471041370E+03  0.80922471526E+02 0.  0.
         25    2    1    2    0    0  0.54303347448E+02  0.48517126104E+00  0.15012372275E+02  0.13719440672E+03  0.12509134654E+03 0.  0.
         24    2    1    2    0    0 -0.23685272293E+02 -0.10130824964E+02  0.62669890461E+03  0.63208742017E+03  0.78226363575E+02 0.  0.
        -11    1    5    5    0    0  0.69472415909E+01 -0.31458250146E+02  0.46592888643E+03  0.46704133958E+03  0.00000000000E+00 0.  1.
         12    1    5    5    0    0 -0.30632513883E+02  0.21327425182E+02  0.16077001818E+03  0.16504608059E+03  0.00000000000E+00 0. -1.
         11    1    3    3    0    0 -0.12568661744E+02 -0.14358252498E+02 -0.15833877112E+02  0.24796014543E+02  0.00000000000E+00 0. -1.
        -12    1    3    3    0    0 -0.18049413412E+02  0.24003906202E+02 -0.34862317464E+03  0.34991439916E+03  0.00000000000E+00 0.  1.
          5    1    4    4  501    0  0.30174917145E+02  0.62441601106E+02  0.33169783141E+01  0.69555401792E+02  0.41800000000E+01 0. -1.
         -5    1    4    4    0  501  0.24128430303E+02 -0.61956429845E+02  0.11695393961E+02  0.67639004930E+02  0.41800000000E+01 0. -1.
</event>
<event>
11    1  0.8453735E-009  0.1416588E+03  0.7561462E-02  0.1105720E+00
         22   -1    0    0    0    0  0.00000000000E+00  0.00000000000E+00  0.33115252271E+03  0.33115252271E+03  0.00000000000E+00 0.  1.
         22   -1    0    0    0    0 -0.00000000000E+00 -0.00000000000E+00 -0.20603668277E+03  0.20603668277E+03  0.00000000000E+00 0. -1.
        -24    2    1    2    0    0  0.58025094668E+02  0.24661989207E+02 -0.97652783555E+02  0.14169552024E+03  0.81033505404E+02 0.  0.
         25    2    1    2    0    0 -0.36481153314E+02 -0.86339392536E+02  0.77084049026E+01  0.15650030662E+03  0.12509021231E+03 0.  0.
         24    2    1    2    0    0 -0.21543941353E+02  0.61677403330E+02  0.21506021859E+03  0.23899337861E+03  0.81232345210E+02 0.  0.
        -13    1    5    5    0    0  0.23526237383E+02  0.35660725681E+02  0.14838908310E+03  0.15441661564E+03  0.00000000000E+00 0.  1.
         14    1    5    5    0    0 -0.45070178736E+02  0.26016677648E+02  0.66671135489E+02  0.84576762970E+02  0.00000000000E+00 0. -1.
         13    1    3    3    0    0  0.41658825950E+02  0.38116229552E+02 -0.17987161354E+02  0.59260802462E+02  0.00000000000E+00 0. -1.
        -14    1    3    3    0    0  0.16366268717E+02 -0.13454240345E+02 -0.79665622202E+02  0.82434717782E+02  0.00000000000E+00 0.  1.
          5    1    4    4  501    0  0.34640904823E+02 -0.76840482792E+02  0.60054368049E+01  0.84604903841E+02  0.41800000000E+01 0.  1.
         -5    1    4    4    0  501 -0.71122058138E+02 -0.94989097442E+01  0.17029680977E+01  0.71895402777E+02  0.41800000000E+01 0.  1.
</event>
<event>
11    1  0.8453735E-009  0.1311044E+03  0.7561462E-02  0.1117919E+00
         22   -1    0    0    0    0  0.00000000000E+00  0.00000000000E+00  0.68569063792E+03  0.68569063792E+03  0.00000000000E+00 0.  1.
         22   -1    0    0    0    0 -0.00000000000E+00 -0.00000000000E+00 -0.99020496276E+02  0.99020496276E+02  0.00000000000E+00 0. -1.
         24    2    1    2    0    0 -0.22201777525E+02  0.12849568306E+02 -0.57484586808E+02  0.10250057821E+03  0.80894131319E+02 0.  0.
         25    2    1    2    0    0  0.46713031422E+02  0.14226538997E+02  0.34508069947E+03  0.37028646801E+03  0.12508747949E+03 0.  0.
        -24    2    1    2    0    0 -0.24511253897E+02 -0.27076107303E+02  0.29907402897E+03  0.31192408797E+03  0.80730692412E+02 0.  0.
        -13    1    3    3    0    0  0.18772250233E+02  0.94309690927E+01  0.10163387475E+02  0.23337416348E+02  0.00000000000E+00 0.  1.
         14    1    3    3    0    0 -0.40974027758E+02  0.34185992136E+01 -0.67647974283E+02  0.79163161862E+02  0.00000000000E+00 0. -1.
         11    1    5    5    0    0  0.15656586094E+02  0.12334604045E+02  0.24211718266E+02  0.31360459921E+02  0.00000000000E+00 0. -1.
        -12    1    5    5    0    0 -0.40167839991E+02 -0.39410711348E+02  0.27486231071E+03  0.28056362805E+03  0.00000000000E+00 0.  1.
          5    1    4    4  501    0 -0.14623857730E+02  0.35618422985E+02  0.31219160478E+02  0.49745729986E+02  0.41800000000E+01 0.  1.
         -5    1    4    4    0  501  0.61336889153E+02 -0.21391883988E+02  0.31386153900E+03  0.32054073802E+03  0.41800000000E+01 0.  1.
</event>
<event>
11    1  0.8453735E-009  0.1316123E+03  0.7561462E-02  0.1117304E+00
         22   -1    0    0    0    0  0.00000000000E+00  0.00000000000E+00  0.23616401429E+03  0.23616401429E+03  0.00000000000E+00 0.  1.
         22   -1    0    0    0    0 -0.00000000000E+00 -0.00000000000E+00 -0.81684787202E+03  0.81684787202E+03  0.00000000000E+00 0. -1.
         24    2    1    2    0    0  0.26622568373E+02  0.32307531043E+02 -0.70022944244E+03  0.70601012075E+03  0.79852869951E+02 0.  0.
         25    2    1    2    0    0 -0.44750422693E+02  0.31082498479E+01 -0.62250990262E+02  0.14674789270E+03  0.12508995433E+03 0.  0.
        -24    2    1    2    0    0  0.18127854320E+02 -0.35415780890E+02  0.18179657497E+03  0.20025387285E+03  0.73950809900E+02 0.  0.
        -13    1    3    3    0    0 -0.24015612438E+02 -0.63134250689E+00 -0.10451011088E+03  0.10723577533E+03  0.00000000000E+00 0.  1.
         14    1    3    3    0    0  0.50638180810E+02  0.32938873550E+02 -0.59571933156E+03  0.59877434542E+03  0.00000000000E+00 0. -1.
         11    1    5    5    0    0  0.36678733825E+02  0.69799432084E+01  0.90474993602E+02  0.97876317817E+02  0.00000000000E+00 0. -1.
        -12    1    5    5    0    0 -0.18550879505E+02 -0.42395724099E+02  0.91321581363E+02  0.10237755503E+03  0.00000000000E+00 0.  1.
          5    1    4    4  501    0  0.35002141798E+02 -0.51561953518E+01  0.11794952594E+02  0.37527717592E+02  0.41800000000E+01 0.  1.
         -5    1    4    4    0  501 -0.79752564491E+02  0.82644451997E+01 -0.74045942856E+02  0.10922017511E+03  0.41800000000E+01 0.  1.
</event>
<event>
11    1  0.8453735E-009  0.2818105E+03  0.7561462E-02  0.1008197E+00
         22   -1    0    0    0    0  0.00000000000E+00  0.00000000000E+00  0.12553762528E+04  0.12553762528E+04  0.00000000000E+00 0.  1.
         22   -1    0    0    0    0 -0.00000000000E+00 -0.00000000000E+00 -0.30193362146E+03  0.30193362146E+03  0.00000000000E+00 0.  1.
        -24    2    1    2    0    0  0.91262124108E+02  0.94314652135E+02 -0.11744774216E+03  0.19361226015E+03  0.80422050697E+02 0.  0.
         25    2    1    2    0    0 -0.33300378349E+03 -0.92739920234E+02  0.13174296348E+03  0.39050705214E+03  0.12508931498E+03 0.  0.
         24    2    1    2    0    0  0.24174165938E+03 -0.15747319006E+01  0.93914741007E+03  0.97319056201E+03  0.81611901585E+02 0.  0.
        -13    1    5    5    0    0  0.75880310129E+02 -0.12025516346E+01  0.45830524428E+03  0.46454597677E+03  0.00000000000E+00 0.  1.
         14    1    5    5    0    0  0.16586134925E+03 -0.37218026597E+00  0.48084216579E+03  0.50864458524E+03  0.00000000000E+00 0. -1.
         13    1    3    3    0    0 -0.13925580130E+02  0.60449277756E+01 -0.20549964833E+02  0.25549246337E+02  0.00000000000E+00 0. -1.
        -14    1    3    3    0    0  0.10518770424E+03  0.88269724359E+02 -0.96897777332E+02  0.16806301382E+03  0.00000000000E+00 0.  1.
          5    1    4    4  501    0 -0.12202673371E+03 -0.68334613724E+02 -0.11742216133E+01  0.13992495978E+03  0.41800000000E+01 0. -1.
         -5    1    4    4    0  501 -0.21097704978E+03 -0.24405306510E+02  0.13291718509E+03  0.25058209236E+03  0.41800000000E+01 0. -1.
</event>
<event>
11    1  0.8453735E-009  0.1639347E+03  0.7561462E-02  0.1083434E+00
         22   -1    0    0    0    0  0.00000000000E+00  0.00000000000E+00  0.99764398973E+03  0.99764398973E+03  0.00000000000E+00 0. -1.
         22   -1    0    0    0    0 -0.00000000000E+00 -0.00000000000E+00 -0.72104497048E+03  0.72104497048E+03  0.00000000000E+00 0.  1.
         24    2    1    2    0    0  0.16218811529E+02 -0.15729377392E+01 -0.67813248204E+03  0.68307486383E+03  0.80387078639E+02 0.  0.
         25    2    1    2    0    0 -0.20401359100E+02  0.10712083754E+03  0.16294773742E+03  0.23257157387E+03  0.12508590071E+03 0.  0.
        -24    2    1    2    0    0  0.41825475713E+01 -0.10554789980E+03  0.79178376387E+03  0.80304252252E+03  0.82449447436E+02 0.  0.
        -11    1    3    3    0    0  0.42130134787E+02  0.18326706816E+02 -0.48778855017E+03  0.48994743200E+03  0.00000000000E+00 0.  1.
         12    1    3    3    0    0 -0.25911323258E+02 -0.19899644555E+02 -0.19034393187E+03  0.19312743183E+03  0.00000000000E+00 0. -1.
         11    1    5    5    0    0 -0.48893768502E+01 -0.10212371747E+03  0.78391686118E+03  0.79055600998E+03  0.00000000000E+00 0. -1.
        -12    1    5    5    0    0  0.90719244215E+01 -0.34241823383E+01  0.78669026969E+01  0.12486512541E+02  0.00000000000E+00 0.  1.
          5    1    4    4  501    0 -0.71482017019E+02  0.47412167088E+02  0.70033332193E+02  0.11081395383E+03  0.41800000000E+01 0.  1.
         -5    1    4    4    0  501  0.51080657919E+02  0.59708670455E+02  0.92914405222E+02  0.12175762004E+03  0.41800000000E+01 0.  1.
</event>
<event>
11    1  0.8453735E-009  0.1637875E+03  0.7561462E-02  0.1083568E+00
         22   -1    0    0    0    0  0.00000000000E+00  0.00000000000E+00  0.72341243053E+03  0.72341243053E+03  0.00000000000E+00 0. -1.
         22   -1    0    0    0    0 -0.00000000000E+00 -0.00000000000E+00 -0.30768527622E+04  0.30768527622E+04  0.00000000000E+00 0. -1.
         24    2    1    2    0    0 -0.92646350656E+01  0.37901265645E+02 -0.28731221008E+04  0.28744953586E+04  0.79816169387E+02 0.  0.
         25    2    1    2    0    0  0.94152295607E+02  0.25930218798E+02 -0.16460952496E+03  0.22865023835E+03  0.12509038643E+03 0.  0.
        -24    2    1    2    0    0 -0.84887660541E+02 -0.63831484443E+02  0.68429129406E+03  0.69711959584E+03  0.80254485563E+02 0.  0.
        -11    1    3    3    0    0  0.27629511207E+02  0.42830171169E+02 -0.14855474434E+04  0.14864215486E+04  0.00000000000E+00 0.  1.
         12    1    3    3    0    0 -0.36894146272E+02 -0.49289055232E+01 -0.13875746574E+04  0.13880738100E+04  0.00000000000E+00 0. -1.
         13    1    5    5    0    0 -0.99146122080E+02 -0.65073718536E+02  0.62202675128E+03  0.63323125450E+03  0.00000000000E+00 0. -1.
        -14    1    5    5    0    0  0.14258461539E+02  0.12422340929E+01  0.62264542777E+02  0.63888341333E+02  0.00000000000E+00 0.  1.
          5    1    4    4  501    0  0.11783407561E+03  0.28396515593E+01 -0.94910871178E+02  0.15138850307E+03  0.41800000000E+01 0. -1.
         -5    1    4    4    0  501 -0.23681779999E+02  0.23090567238E+02 -0.69698653782E+02  0.77261735279E+02  0.41800000000E+01 0. -1.
</event>
<event>
11    1  0.8453735E-009  0.1775166E+03  0.7561462E-02  0.1071669E+00
         22   -1    0    0    0    0  0.00000000000E+00  0.00000000000E+00  0.10653873134E+03  0.10653873134E+03  0.00000000000E+00 0.  1.
         22   -1    0    0    0    0 -0.00000000000E+00 -0.00000000000E+00 -0.11701368890E+04  0.11701368890E+04  0.00000000000E+00 0. -1.
         24    2    1    2    0    0 -0.90838552050E+02  0.30216038183E+02 -0.68062702009E+03  0.69197666245E+03  0.80086886557E+02 0.  0.
         25    2    1    2    0    0  0.12841566712E+03 -0.14091889534E+03 -0.38075834205E+03  0.44381455078E+03  0.12508285980E+03 0.  0.
        -24    2    1    2    0    0 -0.37577115072E+02  0.11070285716E+03 -0.22127955695E+01  0.14088440716E+03  0.78589805671E+02 0.  0.
        -13    1    3    3    0    0 -0.15609349984E+02 -0.22134598686E+02 -0.81569895361E+02  0.85949055231E+02  0.00000000000E+00 0.  1.
         14    1    3    3    0    0 -0.75229202066E+02  0.52350636870E+02 -0.59905712473E+03  0.60602760722E+03  0.00000000000E+00 0. -1.
         13    1    5    5    0    0 -0.27841021283E+02  0.65854204834E+02 -0.39562552871E+02  0.81713489400E+02  0.00000000000E+00 0. -1.
        -14    1    5    5    0    0 -0.97360937892E+01  0.44848652326E+02  0.37349757301E+02  0.59170917757E+02  0.00000000000E+00 0.  1.
          5    1    4    4  501    0  0.89195757803E+02 -0.54598134437E+02 -0.30475752482E+03  0.32222889509E+03  0.41800000000E+01 0. -1.
         -5    1    4    4    0  501  0.39219909319E+02 -0.86320760906E+02 -0.76000817225E+02  0.12158565569E+03  0.41800000000E+01 0. -1.
</event>
<event>
11    1  0.8453735E-009  0.1306534E+03  0.7561462E-02  0.1118469E+00
         22   -1    0    0    0    0  0.00000000000E+00  0.00000000000E+00  0.45295322627E+03  0.45295322627E+03  0.00000000000E+00 0. -1.
         22   -1    0    0    0    0 -0.00000000000E+00 -0.00000000000E+00 -0.66636944655E+03  0.66636944655E+03  0.00000000000E+00 0.  1.
         24    2    1    2    0    0  0.67763374327E+01 -0.18058650146E+01 -0.57092451698E+03  0.57664027180E+03  0.80684689204E+02 0.  0.
         25    2    1    2    0    0  0.29961243321E+02  0.11672756708E+02 -0.40214028024E+02  0.13527179272E+03  0.12508941004E+03 0.  0.
        -24    2    1    2    0    0 -0.36737580753E+02 -0.98668916933E+01  0.39772232472E+03  0.40741060831E+03  0.79707909175E+02 0.  0.
        -11    1    3    3    0    0 -0.72497891542E+01  0.35864022624E+02 -0.36499201793E+03  0.36682142892E+03  0.00000000000E+00 0.  1.
         12    1    3    3    0    0  0.14026126587E+02 -0.37669887638E+02 -0.20593249905E+03  0.20981884288E+03  0.00000000000E+00 0. -1.
         13    1    5    5    0    0 -0.21921944239E+02  0.22954590350E+02  0.32201260512E+03  0.32357317984E+03  0.00000000000E+00 0. -1.
        -14    1    5    5    0    0 -0.14815636515E+02 -0.32821482043E+02  0.75709719605E+02  0.83837428464E+02  0.00000000000E+00 0.  1.
          5    1    4    4  501    0  0.48145497010E+02  0.56368327501E+02 -0.44642366138E+02  0.86635965292E+02  0.41800000000E+01 0.  1.
         -5    1    4    4    0  501 -0.18184253690E+02 -0.44695570793E+02  0.44283381139E+01  0.48635827424E+02  0.41800000000E+01 0.  1.
</event>
<event>
11    1  0.8453735E-009  0.1349430E+03  0.7561462E-02  0.1113340E+00
         22   -1    0    0    0    0  0.00000000000E+00  0.00000000000E+00  0.24274381466E+03  0.24274381466E+03  0.00000000000E+00 0.  1.
         22   -1    0    0    0    0 -0.00000000000E+00 -0.00000000000E+00 -0.64816081751E+03  0.64816081751E+03  0.00000000000E+00 0. -1.
         24    2    1    2    0    0  0.42743316187E+02 -0.30572922614E+02 -0.52061220010E+03  0.52946595081E+03  0.80842040414E+02 0.  0.
         25    2    1    2    0    0 -0.42123419226E+02 -0.25281066573E+01 -0.72675015417E+02  0.15070050591E+03  0.12509280893E+03 0.  0.
        -24    2    1    2    0    0 -0.61989696089E+00  0.33101029271E+02  0.18787021267E+03  0.21073817545E+03  0.89550540884E+02 0.  0.
        -11    1    3    3    0    0  0.15251319778E+02  0.59562985813E+01 -0.16361432087E+02  0.23146850924E+02  0.00000000000E+00 0.  1.
         12    1    3    3    0    0  0.27491996409E+02 -0.36529221195E+02 -0.50425076801E+03  0.50631909989E+03  0.00000000000E+00 0. -1.
         11    1    5    5    0    0 -0.33665235225E+02  0.11380167114E+01  0.26245962103E+02  0.42702384846E+02  0.00000000000E+00 0. -1.
        -12    1    5    5    0    0  0.33045338264E+02  0.31963012560E+02  0.16162425057E+03  0.16803579061E+03  0.00000000000E+00 0.  1.
          5    1    4    4  501    0 -0.28328993774E+02  0.37204963686E+02  0.18297508830E+02  0.50388614195E+02  0.41800000000E+01 0.  1.
         -5    1    4    4    0  501 -0.13794425451E+02 -0.39733070343E+02 -0.90972524247E+02  0.10031189172E+03  0.41800000000E+01 0.  1.
</event>
<event>
11    1  0.8453735E-009  0.1471436E+03  0.7561462E-02  0.1099834E+00
         22   -1    0    0    0    0  0.00000000000E+00  0.00000000000E+00  0.15585663257E+03  0.15585663257E+03  0.00000000000E+00 0.  1.
         22   -1    0    0    0    0 -0.00000000000E+00 -0.00000000000E+00 -0.44569585481E+04  0.44569585481E+04  0.00000000000E+00 0.  1.
         24    2    1    2    0    0  0.35056598873E+02  0.21415955628E+02 -0.39842031694E+04  0.39852203475E+04  0.80116880699E+02 0.  0.
         25    2    1    2    0    0 -0.49739911288E+02 -0.96170958785E+02 -0.43534573418E+03  0.46572312259E+03  0.12509678873E+03 0.  0.
        -24    2    1    2    0    0  0.14683312414E+02  0.74755003157E+02  0.11844698812E+03  0.16187171054E+03  0.79805084540E+02 0.  0.
        -11    1    3    3    0    0  0.44123628108E+02  0.51652147696E+01 -0.37550614344E+04  0.37553242137E+04  0.00000000000E+00 0.  1.
         12    1    3    3    0    0 -0.90670292346E+01  0.16250740858E+02 -0.22914173499E+03  0.22989613375E+03  0.00000000000E+00 0. -1.
         13    1    5    5    0    0  0.38379701721E+02  0.61881055230E+02  0.50073376712E+02  0.88371995314E+02  0.00000000000E+00 0. -1.
        -14    1    5    5    0    0 -0.23696389306E+02  0.12873947927E+02  0.68373611409E+02  0.73499715227E+02  0.00000000000E+00 0.  1.
          5    1    4    4  501    0  0.25084150495E+02 -0.50065571426E+02 -0.69014299117E+02  0.88973152866E+02  0.41800000000E+01 0.  1.
         -5    1    4    4    0  501 -0.74824061783E+02 -0.46105387359E+02 -0.36633143507E+03  0.37674996972E+03  0.41800000000E+01 0.  1.
</event>
<event>
11    1  0.8453735E-009  0.1253189E+03  0.7561462E-02  0.1125158E+00
         22   -1    0    0    0    0  0.00000000000E+00  0.00000000000E+00  0.11530174098E+03  0.11530174098E+03  0.00000000000E+00 0. -1.
         22   -1    0    0    0    0 -0.00000000000E+00 -0.00000000000E+00 -0.81575457162E+03  0.81575457162E+03  0.00000000000E+00 0.  1.
         24    2    1    2    0    0  0.75469274153E+01 -0.14333344867E+01 -0.68346972985E+03  0.68993908305E+03  0.93947092201E+02 0.  0.
         25    2    1    2    0    0  0.40217165857E+01  0.33102977117E+02 -0.58921393760E+02  0.14223105601E+03  0.12508381730E+03 0.  0.
        -24    2    1    2    0    0 -0.11568644001E+02 -0.31669642630E+02  0.41938292965E+02  0.98886173551E+02  0.82962974359E+02 0.  0.
        -11    1    3    3    0    0  0.78214247914E+01  0.34506432998E+02 -0.56574420622E+03  0.56684951749E+03  0.00000000000E+00 0.  1.
         12    1    3    3    0    0 -0.27449737606E+00 -0.35939767484E+02 -0.11772552362E+03  0.12308956555E+03  0.00000000000E+00 0. -1.
         11    1    5    5    0    0 -0.71965791314E+01 -0.48480840410E+02  0.57507267797E+02  0.75559701478E+02  0.00000000000E+00 0. -1.
        -12    1    5    5    0    0 -0.43720648696E+01  0.16811197780E+02 -0.15568974832E+02  0.23326472073E+02  0.00000000000E+00 0.  1.
          5    1    4    4  501    0  0.32146501545E+02  0.59376270143E+01 -0.87577380630E+02  0.93573088942E+02  0.41800000000E+01 0. -1.
         -5    1    4    4    0  501 -0.28124784960E+02  0.27165350102E+02  0.28655986870E+02  0.48657967063E+02  0.41800000000E+01 0. -1.
</event>
<event>
11    1  0.8453735E-009  0.1901451E+03  0.7561462E-02  0.1061720E+00
         22   -1    0    0    0    0  0.00000000000E+00  0.00000000000E+00  0.74185201636E+03  0.74185201636E+03  0.00000000000E+00 0. -1.
         22   -1    0    0    0    0 -0.00000000000E+00 -0.00000000000E+00 -0.12767287092E+03  0.12767287092E+03  0.00000000000E+00 0. -1.
         24    2    1    2    0    0 -0.40365245276E+02 -0.11839236657E+03  0.49863439219E+02  0.15644882267E+03  0.79647762407E+02 0.  0.
         25    2    1    2    0    0  0.17280072113E+03  0.11728318426E+03  0.19538535223E+03  0.31215226283E+03  0.12509262485E+03 0.  0.
        -24    2    1    2    0    0 -0.13243547586E+03  0.11091823125E+01  0.36893035399E+03  0.40092380177E+03  0.84201562845E+02 0.  0.
        -11    1    3    3    0    0  0.21697662262E+02 -0.56262007589E+02  0.24000785178E+02  0.64901769889E+02  0.00000000000E+00 0.  1.
         12    1    3    3    0    0 -0.62062907538E+02 -0.62130358981E+02  0.25862654041E+02  0.91547052783E+02  0.00000000000E+00 0. -1.
         11    1    5    5    0    0 -0.11928201570E+03 -0.70096860325E+01  0.21297408528E+03  0.24420339058E+03  0.00000000000E+00 0. -1.
        -12    1    5    5    0    0 -0.13153460156E+02  0.81188683450E+01  0.15595626871E+03  0.15672041120E+03  0.00000000000E+00 0.  1.
          5    1    4    4  501    0  0.26516765005E+01 -0.10924008452E+02 -0.10434598884E+02  0.15897125614E+02  0.41800000000E+01 0. -1.
         -5    1    4    4    0  501  0.17014904463E+03  0.12820719271E+03  0.20581995111E+03  0.29625513722E+03  0.41800000000E+01 0. -1.
</event>
<event>
11    1  0.8453735E-009  0.1486840E+03  0.7561462E-02  0.1098231E+00
         22   -1    0    0    0    0  0.00000000000E+00  0.00000000000E+00  0.11368408132E+03  0.11368408132E+03  0.00000000000E+00 0. -1.
         22   -1    0    0    0    0 -0.00000000000E+00 -0.00000000000E+00 -0.15770870876E+04  0.15770870876E+04  0.00000000000E+00 0. -1.
        -24    2    1    2    0    0  0.42456025236E+02  0.21608471012E+02 -0.12912220013E+04  0.12946394504E+04  0.81040791030E+02 0.  0.
         25    2    1    2    0    0 -0.61531797484E+02  0.57714690505E+02 -0.22428604549E+03  0.27031212250E+03  0.12508903136E+03 0.  0.
         24    2    1    2    0    0  0.19075772249E+02 -0.79323161516E+02  0.52105040539E+02  0.12581959598E+03  0.80371552457E+02 0.  0.
        -13    1    5    5    0    0 -0.16432855241E+02  0.81192015264E+01  0.68098171194E+00  0.18341861980E+02  0.00000000000E+00 0.  1.
         14    1    5    5    0    0  0.35508627489E+02 -0.87442363043E+02  0.51424058827E+02  0.10747773401E+03  0.00000000000E+00 0. -1.
         11    1    3    3    0    0  0.19774934599E+02  0.23585141602E+02 -0.12070618125E+04  0.12074541508E+04  0.00000000000E+00 0. -1.
        -12    1    3    3    0    0  0.22681090637E+02 -0.19766705901E+01 -0.84160188777E+02  0.87185299644E+02  0.00000000000E+00 0.  1.
          5    1    4    4  501    0 -0.63509269616E+02 -0.16941700530E+02 -0.57147825444E+02  0.87199741382E+02  0.41800000000E+01 0.  1.
         -5    1    4    4    0  501  0.19774721318E+01  0.74656391035E+02 -0.16713822005E+03  0.18311238112E+03  0.41800000000E+01 0.  1.
</event>
<event>
11    1  0.8453735E-009  0.1419928E+03  0.7561462E-02  0.1105353E+00
         22   -1    0    0    0    0  0.00000000000E+00  0.00000000000E+00  0.80880707026E+02  0.80880707026E+02  0.00000000000E+00 0.  1.
         22   -1    0    0    0    0 -0.00000000000E+00 -0.00000000000E+00 -0.20241171721E+04  0.20241171721E+04  0.00000000000E+00 0.  1.
        -24    2    1    2    0    0 -0.12722707007E+02 -0.36550631566E+02 -0.15832452594E+04  0.15857739502E+04  0.80719599338E+02 0.  0.
         25    2    1    2    0    0 -0.35806190167E+02  0.80773803624E+02 -0.38289808564E+03  0.41238849588E+03  0.12508731726E+03 0.  0.
         24    2    1    2    0    0  0.48528897174E+02 -0.44223172058E+02  0.22906879969E+02  0.10683543306E+03  0.81106977507E+02 0.  0.
        -11    1    5    5    0    0  0.43443276785E+02 -0.25488364641E+01  0.42210945289E+02  0.60626551669E+02  0.00000000000E+00 0.  1.
         12    1    5    5    0    0  0.50856203886E+01 -0.41674335594E+02 -0.19304065319E+02  0.46208881395E+02  0.00000000000E+00 0. -1.
         13    1    3    3    0    0  0.19798925109E+01 -0.35304666941E+02 -0.25428372640E+03  0.25673050655E+03  0.00000000000E+00 0. -1.
        -14    1    3    3    0    0 -0.14702599518E+02 -0.12459646255E+01 -0.13289615330E+04  0.13290434437E+04  0.00000000000E+00 0.  1.
          5    1    4    4  501    0  0.32231549417E+02  0.46012862222E+02 -0.27123835455E+03  0.27702666595E+03  0.41800000000E+01 0. -1.
         -5    1    4    4    0  501 -0.68037739583E+02  0.34760941402E+02 -0.11165973109E+03  0.13536182993E+03  0.41800000000E+01 0. -1.
</event>
<event>
11    1  0.8453735E-009  0.1542815E+03  0.7561462E-02  0.1092583E+00
         22   -1    0    0    0    0  0.00000000000E+00  0.00000000000E+00  0.96041060537E+03  0.96041060537E+03  0.00000000000E+00 0.  1.
         22   -1    0    0    0    0 -0.00000000000E+00 -0.00000000000E+00 -0.12268206403E+03  0.12268206403E+03  0.00000000000E+00 0. -1.
        -24    2    1    2    0    0 -0.44135505433E+02 -0.15539618352E+02 -0.58854804933E+02  0.11026536648E+03  0.80654450604E+02 0.  0.
         25    2    1    2    0    0  0.83061327363E+02 -0.64996336940E+02  0.16769067187E+03  0.23429115718E+03  0.12509387268E+03 0.  0.
         24    2    1    2    0    0 -0.38925821930E+02  0.80535955292E+02  0.72889267440E+03  0.73853614574E+03  0.78420966984E+02 0.  0.
        -13    1    5    5    0    0 -0.37625305421E+02  0.59101827400E+02  0.26371598171E+03  0.27286408452E+03  0.00000000000E+00 0.  1.
         14    1    5    5    0    0 -0.13005165091E+01  0.21434127892E+02  0.46517669269E+03  0.46567206122E+03  0.00000000000E+00 0. -1.
         11    1    3    3    0    0 -0.56999742113E+02  0.11803228655E+02 -0.54490527178E+02  0.79733959890E+02  0.00000000000E+00 0. -1.
        -12    1    3    3    0    0  0.12864236680E+02 -0.27342847007E+02 -0.43642777551E+01  0.30531406587E+02  0.00000000000E+00 0.  1.
          5    1    4    4  501    0  0.46594239202E+02 -0.60588581874E+02  0.16053570646E+02  0.78212460074E+02  0.41800000000E+01 0.  1.
         -5    1    4    4    0  501  0.36467088161E+02 -0.44077550664E+01  0.15163710122E+03  0.15607869710E+03  0.41800000000E+01 0.  1.
</event>
<event>
11    1  0.1445953E-008  0.1650709E+03  0.7561462E-02  0.1082403E+00
         22   -1    0    0    0    0  0.00000000000E+00  0.00000000000E+00  0.35131498439E+03  0.35131498439E+03  0.00000000000E+00 0.  1.
         22   -1    0    0    0    0 -0.00000000000E+00 -0.00000000000E+00 -0.72160612221E+03  0.72160612221E+03  0.00000000000E+00 0.  1.
         24    2    1    2    0    0  0.98568330413E+01 -0.21735282898E+02 -0.41251415763E+03  0.42085954058E+03  0.79907715374E+02 0.  0.
         25    2    1    2    0    0  0.18930962306E+02  0.12463005232E+03 -0.26343251708E+03  0.31770267999E+03  0.12508905045E+03 0.  0.
        -24    2    1    2    0    0 -0.28787795347E+02 -0.10289476942E+03  0.30565553688E+03  0.33435888603E+03  0.83393565132E+02 0.  0.
        -11    1    3    3    0    0  0.39035291616E+00 -0.58849758181E+01 -0.39613563649E+03  0.39617953987E+03  0.00000000000E+00 0.  1.
         12    1    3    3    0    0  0.94664801251E+01 -0.15850307080E+02 -0.16378521140E+02  0.24680000714E+02  0.00000000000E+00 0. -1.
         13    1    5    5    0    0  0.38409008347E-01  0.14555438237E+02  0.30201960820E+02  0.33526417866E+02  0.00000000000E+00 0. -1.
        -14    1    5    5    0    0 -0.28826204355E+02 -0.11745020766E+03  0.27545357606E+03  0.30083246817E+03  0.00000000000E+00 0.  1.
          5    1    4    4  501    0 -0.23292169740E+02  0.50141797297E+01  0.11889672001E+01  0.24218860679E+02  0.41800000000E+01 0.  1.
         -5    1    4    4    0  501  0.42223132046E+02  0.11961587259E+03 -0.26462148428E+03  0.29348381931E+03  0.41800000000E+01 0.  1.
</event>
<event>
11    1  0.8453735E-009  0.1555914E+03  0.7561462E-02  0.1091299E+00
         22   -1    0    0    0    0  0.00000000000E+00  0.00000000000E+00  0.12671626875E+03  0.12671626875E+03  0.00000000000E+00 0. -1.
         22   -1    0    0    0    0 -0.00000000000E+00 -0.00000000000E+00 -0.31279261581E+04  0.31279261581E+04  0.00000000000E+00 0.  1.
        -24    2    1    2    0    0  0.84929540222E+01  0.47552204847E+02 -0.25142169782E+04  0.25159610691E+04  0.80248021889E+02 0.  0.
         25    2    1    2    0    0 -0.39143989656E+02 -0.13217907916E+03 -0.56547257653E+03  0.59532357170E+03  0.12508940530E+03 0.  0.
         24    2    1    2    0    0  0.30651035633E+02  0.84626874318E+02  0.78479665401E+02  0.14335778609E+03  0.79317104762E+02 0.  0.
        -13    1    5    5    0    0  0.33927483471E+02  0.83337527537E+02  0.30143987178E+02  0.94894033498E+02  0.00000000000E+00 0.  1.
         14    1    5    5    0    0 -0.32764478374E+01  0.12893467809E+01  0.48335678223E+02  0.48463752587E+02  0.00000000000E+00 0. -1.
         11    1    3    3    0    0 -0.26698750997E+02  0.25176496473E+02 -0.51354003442E+03  0.51484953747E+03  0.00000000000E+00 0. -1.
        -12    1    3    3    0    0  0.35191705019E+02  0.22375708373E+02 -0.20006769438E+04  0.20011115316E+04  0.00000000000E+00 0.  1.
          5    1    4    4  501    0 -0.83246675713E+02 -0.66586033555E+02 -0.34155819712E+03  0.35783122181E+03  0.41800000000E+01 0.  1.
         -5    1    4    4    0  501  0.44102686058E+02 -0.65593045609E+02 -0.22391437940E+03  0.23749234988E+03  0.41800000000E+01 0.  1.
</event>
<event>
11    1  0.8453735E-009  0.1306864E+03  0.7561462E-02  0.1118429E+00
         22   -1    0    0    0    0  0.00000000000E+00  0.00000000000E+00  0.83738494980E+03  0.83738494980E+03  0.00000000000E+00 0. -1.
         22   -1    0    0    0    0 -0.00000000000E+00 -0.00000000000E+00 -0.74576516694E+03  0.74576516694E+03  0.00000000000E+00 0.  1.
        -24    2    1    2    0    0 -0.21874539047E+02  0.20617893451E+02 -0.72717109314E+03  0.73227489011E+03  0.80901934468E+02 0.  0.
         25    2    1    2    0    0  0.30734297400E+01  0.20766550884E+02  0.33604805244E+03  0.35918871609E+03  0.12509014596E+03 0.  0.
         24    2    1    2    0    0  0.18801109307E+02 -0.41384444335E+02  0.48274282356E+03  0.49168651054E+03  0.81540401030E+02 0.  0.
        -11    1    5    5    0    0  0.22964739485E+02 -0.65999939438E+00  0.38542576242E+03  0.38610987193E+03  0.00000000000E+00 0.  1.
         12    1    5    5    0    0 -0.41636301779E+01 -0.40724444941E+02  0.97317061140E+02  0.10557663861E+03  0.00000000000E+00 0. -1.
         11    1    3    3    0    0 -0.14062488064E+02 -0.12498455306E+02 -0.39387727776E+02  0.43650407271E+02  0.00000000000E+00 0. -1.
        -12    1    3    3    0    0 -0.78120509830E+01  0.33116348757E+02 -0.68778336537E+03  0.68862448284E+03  0.00000000000E+00 0.  1.
          5    1    4    4  501    0  0.37291725478E+02 -0.38926120471E+02  0.19248136990E+03  0.19993115265E+03  0.41800000000E+01 0.  1.
         -5    1    4    4    0  501 -0.34218295738E+02  0.59692671356E+02  0.14356668254E+03  0.15925756344E+03  0.41800000000E+01 0.  1.
</event>
<event>
11    1  0.8453735E-009  0.1459013E+03  0.7561462E-02  0.1101142E+00
         22   -1    0    0    0    0  0.00000000000E+00  0.00000000000E+00  0.24160242480E+03  0.24160242480E+03  0.00000000000E+00 0.  1.
         22   -1    0    0    0    0 -0.00000000000E+00 -0.00000000000E+00 -0.54916513957E+03  0.54916513957E+03  0.00000000000E+00 0.  1.
        -24    2    1    2    0    0  0.18677224726E+02  0.30875116369E+02 -0.41710353054E+03  0.42580763826E+03  0.77683190436E+02 0.  0.
         25    2    1    2    0    0  0.58525287619E+02 -0.21831044388E+02 -0.68468183166E+02  0.15568166082E+03  0.12508830329E+03 0.  0.
         24    2    1    2    0    0 -0.77202512345E+02 -0.90440719812E+01  0.17800899893E+03  0.20927826529E+03  0.77898430490E+02 0.  0.
        -13    1    5    5    0    0 -0.60374242155E+02 -0.41343421163E+02  0.12754508117E+03  0.14704446715E+03  0.00000000000E+00 0.  1.
         14    1    5    5    0    0 -0.16828270190E+02  0.32299349182E+02  0.50463917763E+02  0.62233798142E+02  0.00000000000E+00 0. -1.
         13    1    3    3    0    0 -0.58251536957E+01 -0.77691545031E+01 -0.45486622513E+01  0.10722989581E+02  0.00000000000E+00 0. -1.
        -14    1    3    3    0    0  0.24502378422E+02  0.38644270872E+02 -0.41255486829E+03  0.41508464868E+03  0.00000000000E+00 0.  1.
          5    1    4    4  501    0  0.95106613786E+02 -0.33885977146E+02 -0.48162359469E+02  0.11194021933E+03  0.41800000000E+01 0. -1.
         -5    1    4    4    0  501 -0.36581326167E+02  0.12054932759E+02 -0.20305823697E+02  0.43741441494E+02  0.41800000000E+01 0. -1.
</event>
<event>
11    1  0.8453735E-009  0.1458700E+03  0.7561462E-02  0.1101175E+00
         22   -1    0    0    0    0  0.00000000000E+00  0.00000000000E+00  0.73832129496E+03  0.73832129496E+03  0.00000000000E+00 0.  1.
         22   -1    0    0    0    0 -0.00000000000E+00 -0.00000000000E+00 -0.22472268572E+03  0.22472268572E+03  0.00000000000E+00 0. -1.
         24    2    1    2    0    0 -0.71851781212E+01 -0.18492722673E+01 -0.15857905631E+03  0.17830163420E+03  0.81173327308E+02 0.  0.
         25    2    1    2    0    0 -0.18344734170E+02 -0.69082085102E+02  0.49319232815E+02  0.15228118548E+03  0.12509320114E+03 0.  0.
        -24    2    1    2    0    0  0.25529912291E+02  0.70931357369E+02  0.62285843274E+03  0.63246116100E+03  0.79821419817E+02 0.  0.
        -11    1    3    3    0    0 -0.77713451842E+01  0.31236274500E+02 -0.25201478887E+02  0.40880474419E+02  0.00000000000E+00 0.  1.
         12    1    3    3    0    0  0.58616706300E+00 -0.33085546768E+02 -0.13337757743E+03  0.13742115979E+03  0.00000000000E+00 0. -1.
         11    1    5    5    0    0 -0.90055882889E+01  0.31956835193E+02  0.73629231500E+02  0.80768828562E+02  0.00000000000E+00 0. -1.
        -12    1    5    5    0    0  0.34535500580E+02  0.38974522176E+02  0.54922920124E+03  0.55169233244E+03  0.00000000000E+00 0.  1.
          5    1    4    4  501    0 -0.41574570778E+02 -0.96714358215E+02  0.48371111068E+02  0.11592820540E+03  0.41800000000E+01 0.  1.
         -5    1    4    4    0  501  0.23229836607E+02  0.27632273113E+02  0.94812174720E+00  0.36352980085E+02  0.41800000000E+01 0.  1.
</event>
<event>
11    1  0.8453735E-009  0.1418555E+03  0.7561462E-02  0.1105504E+00
         22   -1    0    0    0    0  0.00000000000E+00  0.00000000000E+00  0.15401206990E+04  0.15401206990E+04  0.00000000000E+00 0. -1.
         22   -1    0    0    0    0 -0.00000000000E+00 -0.00000000000E+00 -0.41172859333E+02  0.41172859333E+02  0.00000000000E+00 0. -1.
         24    2    1    2    0    0  0.41688011819E+02  0.58765121306E+02  0.63243171617E+02  0.12718749683E+03  0.83580684261E+02 0.  0.
         25    2    1    2    0    0 -0.11400748814E+02 -0.32123282503E+02  0.62106717733E+03  0.63445631230E+03  0.12509392911E+03 0.  0.
        -24    2    1    2    0    0 -0.30287263005E+02 -0.26641838804E+02  0.81463749077E+03  0.81964974926E+03  0.81020764129E+02 0.  0.
        -11    1    3    3    0    0 -0.44492316555E+01  0.10451354795E+02  0.59179030702E+02  0.60259307615E+02  0.00000000000E+00 0.  1.
         12    1    3    3    0    0  0.46137243474E+02  0.48313766511E+02  0.40641409146E+01  0.66928189212E+02  0.00000000000E+00 0. -1.
         11    1    5    5    0    0 -0.13353173698E+02  0.22165733586E+02  0.51052362661E+03  0.51117902962E+03  0.00000000000E+00 0. -1.
        -12    1    5    5    0    0 -0.16934089307E+02 -0.48807572389E+02  0.30411386415E+03  0.30847071964E+03  0.00000000000E+00 0.  1.
          5    1    4    4  501    0 -0.39987477396E+02 -0.70058350298E+02  0.43062050567E+03  0.43813087439E+03  0.41800000000E+01 0. -1.
         -5    1    4    4    0  501  0.28586728582E+02  0.37935067795E+02  0.19044667166E+03  0.19632543790E+03  0.41800000000E+01 0. -1.
</event>
<event>
11    1  0.8453735E-009  0.1598827E+03  0.7561462E-02  0.1087188E+00
         22   -1    0    0    0    0  0.00000000000E+00  0.00000000000E+00  0.32235425252E+03  0.32235425252E+03  0.00000000000E+00 0. -1.
         22   -1    0    0    0    0 -0.00000000000E+00 -0.00000000000E+00 -0.27938415829E+03  0.27938415829E+03  0.00000000000E+00 0. -1.
         24    2    1    2    0    0 -0.87790182822E+02  0.31960590378E+00 -0.84055231562E+02  0.14517499507E+03  0.79393191736E+02 0.  0.
         25    2    1    2    0    0  0.11710795551E+03 -0.17763718507E+02 -0.11013397255E+03  0.20446600816E+03  0.12508810353E+03 0.  0.
        -24    2    1    2    0    0 -0.29317772684E+02  0.17444112604E+02  0.23715929834E+03  0.25209740758E+03  0.78388400009E+02 0.  0.
        -13    1    3    3    0    0 -0.30491917659E+02  0.38797028857E+02 -0.34658166182E+02  0.60300538752E+02  0.00000000000E+00 0.  1.
         14    1    3    3    0    0 -0.57298265163E+02 -0.38477422954E+02 -0.49397065380E+02  0.84874456322E+02  0.00000000000E+00 0. -1.
         13    1    5    5    0    0 -0.18433350350E+02  0.18621055001E+02  0.23947763269E+03  0.24090676340E+03  0.00000000000E+00 0. -1.
        -14    1    5    5    0    0 -0.10884422334E+02 -0.11769423969E+01 -0.23183343430E+01  0.11190644176E+02  0.00000000000E+00 0.  1.
          5    1    4    4  501    0  0.13761933077E+03 -0.28130949138E+02 -0.67603530056E+02  0.15594274647E+03  0.41800000000E+01 0.  1.
         -5    1    4    4    0  501 -0.20511375262E+02  0.10367230631E+02 -0.42530442496E+02  0.48523261689E+02  0.41800000000E+01 0.  1.
</event>
<event>
11    1  0.8453735E-009  0.1481769E+03  0.7561462E-02  0.1098756E+00
         22   -1    0    0    0    0  0.00000000000E+00  0.00000000000E+00  0.13616870732E+04  0.13616870732E+04  0.00000000000E+00 0.  1.
         22   -1    0    0    0    0 -0.00000000000E+00 -0.00000000000E+00 -0.17854988039E+04  0.17854988039E+04  0.00000000000E+00 0. -1.
         24    2    1    2    0    0 -0.47541459636E+02  0.32742461749E+02 -0.17398802115E+04  0.17427189547E+04  0.80956443444E+02 0.  0.
         25    2    1    2    0    0  0.17902347919E+02  0.43962086052E+02  0.66103786626E+02  0.14923889489E+03  0.12509747428E+03 0.  0.
        -24    2    1    2    0    0  0.29639111717E+02 -0.76704547801E+02  0.12499646941E+04  0.12552280274E+04  0.80147361643E+02 0.  0.
        -13    1    3    3    0    0  0.18893065605E+02 -0.29466861408E+01 -0.62422795393E+03  0.62452075174E+03  0.00000000000E+00 0.  1.
         14    1    3    3    0    0 -0.66434525241E+02  0.35689147890E+02 -0.11156522575E+04  0.11181982030E+04  0.00000000000E+00 0. -1.
         13    1    5    5    0    0 -0.16399592743E+02  0.44013507529E+00  0.43825356408E+03  0.43856051668E+03  0.00000000000E+00 0. -1.
        -14    1    5    5    0    0  0.46038704460E+02 -0.77144682876E+02  0.81171113006E+03  0.81666751072E+03  0.00000000000E+00 0.  1.
          5    1    4    4  501    0  0.15523758524E+02  0.42696582031E+02  0.10266252946E+03  0.11234345798E+03  0.41800000000E+01 0.  1.
         -5    1    4    4    0  501  0.23785893951E+01  0.12655040207E+01 -0.36558742830E+02  0.36895436917E+02  0.41800000000E+01 0.  1.
</event>
<event>
11    1  0.8453735E-009  0.1283844E+03  0.7561462E-02  0.1121270E+00
         22   -1    0    0    0    0  0.00000000000E+00  0.00000000000E+00  0.79386136542E+03  0.79386136542E+03  0.00000000000E+00 0. -1.
         22   -1    0    0    0    0 -0.00000000000E+00 -0.00000000000E+00 -0.10603293106E+03  0.10603293106E+03  0.00000000000E+00 0.  1.
        -24    2    1    2    0    0  0.18480089355E+02  0.55760294222E+01 -0.50571777996E+02  0.97836601605E+02  0.81497791856E+02 0.  0.
         25    2    1    2    0    0 -0.45690541157E+02 -0.51717302618E+01  0.12459783791E+03  0.18244590169E+03  0.12509002153E+03 0.  0.
         24    2    1    2    0    0  0.27210451802E+02 -0.40429916035E+00  0.61380237444E+03  0.61961179318E+03  0.80155144745E+02 0.  0.
        -11    1    5    5    0    0  0.10364181046E+02  0.39722179459E+02  0.28471835921E+03  0.28766267026E+03  0.00000000000E+00 0.  1.
         12    1    5    5    0    0  0.16846270756E+02 -0.40126478619E+02  0.32908401523E+03  0.33194912292E+03  0.00000000000E+00 0. -1.
         13    1    3    3    0    0  0.17882218757E+02  0.31792110385E+02  0.45853789767E+01  0.36763266052E+02  0.00000000000E+00 0. -1.
        -14    1    3    3    0    0  0.59787059723E+00 -0.26216080963E+02 -0.55157156973E+02  0.61073335553E+02  0.00000000000E+00 0.  1.
          5    1    4    4  501    0 -0.18166432769E+02  0.48762332634E+02  0.10731333816E+03  0.11933737600E+03  0.41800000000E+01 0. -1.
         -5    1    4    4    0  501 -0.27524108388E+02 -0.53934062896E+02  0.17284499752E+02  0.63108525689E+02  0.41800000000E+01 0. -1.
</event>
<event>
11    1  0.8453735E-009  0.1883128E+03  0.7561462E-02  0.1063110E+00
         22   -1    0    0    0    0  0.00000000000E+00  0.00000000000E+00  0.32071446715E+03  0.32071446715E+03  0.00000000000E+00 0.  1.
         22   -1    0    0    0    0 -0.00000000000E+00 -0.00000000000E+00 -0.33712360600E+03  0.33712360600E+03  0.00000000000E+00 0. -1.
        -24    2    1    2    0    0  0.72453767086E+02 -0.61977000058E+01 -0.21528663083E+03  0.24153077418E+03  0.81858546357E+02 0.  0.
         25    2    1    2    0    0  0.88991579516E+02 -0.39346476021E+02  0.25530066451E+02  0.16051919181E+03  0.12508789009E+03 0.  0.
         24    2    1    2    0    0 -0.16144534660E+03  0.45544176027E+02  0.17334742553E+03  0.25578810717E+03  0.85084392952E+02 0.  0.
        -13    1    5    5    0    0 -0.12927236367E+03  0.53850203899E+02  0.17297674169E+03  0.22255817584E+03  0.00000000000E+00 0.  1.
         14    1    5    5    0    0 -0.32172982935E+02 -0.83060278716E+01  0.37068384140E+00  0.33229931334E+02  0.00000000000E+00 0. -1.
         13    1    3    3    0    0  0.12776426705E+01 -0.33297591661E+02 -0.67075259662E+02  0.74896277878E+02  0.00000000000E+00 0. -1.
        -14    1    3    3    0    0  0.71176124415E+02  0.27099891655E+02 -0.14821137117E+03  0.16663449630E+03  0.00000000000E+00 0.  1.
          5    1    4    4  501    0  0.17067087800E+02  0.35484080183E+01 -0.46591043627E+02  0.49920681403E+02  0.41800000000E+01 0.  1.
         -5    1    4    4    0  501  0.71924491716E+02 -0.42894884040E+02  0.72121110078E+02  0.11059851041E+03  0.41800000000E+01 0.  1.
</event>
<event>
11    1  0.8453735E-009  0.1960957E+03  0.7561462E-02  0.1057319E+00
         22   -1    0    0    0    0  0.00000000000E+00  0.00000000000E+00  0.41548829286E+04  0.41548829286E+04  0.00000000000E+00 0. -1.
         22   -1    0    0    0    0 -0.00000000000E+00 -0.00000000000E+00 -0.46002011382E+03  0.46002011382E+03  0.00000000000E+00 0.  1.
        -24    2    1    2    0    0 -0.81990214965E+02  0.14943952220E+02 -0.12200684315E+03  0.16819737821E+03  0.80367724891E+02 0.  0.
         25    2    1    2    0    0  0.11919524320E+02 -0.14887489169E+03 -0.28283643476E+03  0.34343919432E+03  0.12509285726E+03 0.  0.
         24    2    1    2    0    0  0.70070690644E+02  0.13393093947E+03  0.40997060927E+04  0.41032664699E+04  0.79738812334E+02 0.  0.
        -11    1    5    5    0    0 -0.40099719871E+01 -0.83327580835E+01  0.13443650554E+03  0.13475417898E+03  0.00000000000E+00 0.  1.
         12    1    5    5    0    0  0.74080662632E+02  0.14226369755E+03  0.39652695871E+04  0.39685122909E+04  0.00000000000E+00 0. -1.
         11    1    3    3    0    0 -0.60157765026E+02 -0.36187605930E+01 -0.21985138641E+02  0.64151371320E+02  0.00000000000E+00 0. -1.
        -12    1    3    3    0    0 -0.21832449938E+02  0.18562712813E+02 -0.10002170451E+03  0.10404600689E+03  0.00000000000E+00 0.  1.
          5    1    4    4  501    0 -0.15340529371E+02 -0.17547792518E+01  0.68231377982E+01  0.17390764820E+02  0.41800000000E+01 0. -1.
         -5    1    4    4    0  501  0.27260053691E+02 -0.14712011244E+03 -0.28965957255E+03  0.32604842950E+03  0.41800000000E+01 0. -1.
</event>
<event>
11    1  0.8453735E-009  0.1379927E+03  0.7561462E-02  0.1109821E+00
         22   -1    0    0    0    0  0.00000000000E+00  0.00000000000E+00  0.93014875763E+02  0.93014875763E+02  0.00000000000E+00 0.  1.
         22   -1    0    0    0    0 -0.00000000000E+00 -0.00000000000E+00 -0.91086658212E+03  0.91086658212E+03  0.00000000000E+00 0.  1.
         24    2    1    2    0    0  0.52771327726E+02 -0.35841187240E+02 -0.75224479496E+03  0.75934747943E+03  0.81651449679E+02 0.  0.
         25    2    1    2    0    0 -0.58917974538E+01 -0.18244271079E+00 -0.79650202791E+02  0.14841106620E+03  0.12508774201E+03 0.  0.
        -24    2    1    2    0    0 -0.46879530273E+02  0.36023629951E+02  0.14043291394E+02  0.96122912259E+02  0.74478238128E+02 0.  0.
        -11    1    3    3    0    0  0.12761346617E+02 -0.55941319555E+02 -0.48432681819E+03  0.48771379929E+03  0.00000000000E+00 0.  1.
         12    1    3    3    0    0  0.40009981110E+02  0.20100132315E+02 -0.26791797678E+03  0.27163368014E+03  0.00000000000E+00 0. -1.
         11    1    5    5    0    0  0.38480342277E+00  0.43871831649E+02 -0.58185363190E+01  0.44257666577E+02  0.00000000000E+00 0. -1.
        -12    1    5    5    0    0 -0.47264333695E+02 -0.78482016985E+01  0.19861827713E+02  0.51865245682E+02  0.00000000000E+00 0.  1.
          5    1    4    4  501    0 -0.36875764078E+02  0.51363534410E+02 -0.29075445630E+02  0.69720073021E+02  0.41800000000E+01 0. -1.
         -5    1    4    4    0  501  0.30983966624E+02 -0.51545977121E+02 -0.50574757161E+02  0.78690993176E+02  0.41800000000E+01 0. -1.
</event>
<event>
11    1  0.8453735E-009  0.2806412E+03  0.7561462E-02  0.1008734E+00
         22   -1    0    0    0    0  0.00000000000E+00  0.00000000000E+00  0.19743306308E+03  0.19743306308E+03  0.00000000000E+00 0. -1.
         22   -1    0    0    0    0 -0.00000000000E+00 -0.00000000000E+00 -0.23668011699E+04  0.23668011699E+04  0.00000000000E+00 0.  1.
        -24    2    1    2    0    0  0.14878030498E+01  0.91598238147E+02 -0.12356302564E+04  0.12415657415E+04  0.79441231326E+02 0.  0.
         25    2    1    2    0    0 -0.13464208355E+03 -0.29639344864E+03 -0.99820901877E+03  0.10573770898E+04  0.12508995871E+03 0.  0.
         24    2    1    2    0    0  0.13315428050E+03  0.20479521050E+03  0.64471168368E+02  0.26529140164E+03  0.80943533267E+02 0.  0.
        -11    1    5    5    0    0  0.19182557824E+02  0.33547372164E+02 -0.19282025352E+02  0.43187882623E+02  0.00000000000E+00 0.  1.
         12    1    5    5    0    0  0.11397172268E+03  0.17124783833E+03  0.83753193720E+02  0.22210351902E+03  0.00000000000E+00 0. -1.
         13    1    3    3    0    0  0.49755912742E+01  0.40584234069E+02 -0.17538270685E+03  0.18008589735E+03  0.00000000000E+00 0. -1.
        -14    1    3    3    0    0 -0.34877882244E+01  0.51014004078E+02 -0.10602475496E+04  0.10614798442E+04  0.00000000000E+00 0.  1.
          5    1    4    4  501    0 -0.58834832913E+02 -0.19992700879E+03 -0.45507634583E+03  0.50054400340E+03  0.41800000000E+01 0.  1.
         -5    1    4    4    0  501 -0.75807250637E+02 -0.96466439854E+02 -0.54313267294E+03  0.55683308638E+03  0.41800000000E+01 0.  1.
</event>
<event>
11    1  0.8453735E-009  0.1827653E+03  0.7561462E-02  0.1067428E+00
         22   -1    0    0    0    0  0.00000000000E+00  0.00000000000E+00  0.22631289216E+04  0.22631289216E+04  0.00000000000E+00 0. -1.
         22   -1    0    0    0    0 -0.00000000000E+00 -0.00000000000E+00 -0.27440990529E+03  0.27440990529E+03  0.00000000000E+00 0.  1.
         24    2    1    2    0    0  0.11410372035E+01  0.20798721907E+02 -0.25047909963E+03  0.26418220042E+03  0.81354574987E+02 0.  0.
         25    2    1    2    0    0  0.84628656076E+02  0.85910177750E+02  0.55069918824E+03  0.57745642481E+03  0.12507501171E+03 0.  0.
        -24    2    1    2    0    0 -0.85769693280E+02 -0.10670889966E+03  0.16884989277E+04  0.16959002017E+04  0.79408032423E+02 0.  0.
        -13    1    3    3    0    0  0.73233649245E+01 -0.20607873051E+02 -0.18614517485E+03  0.18742556449E+03  0.00000000000E+00 0.  1.
         14    1    3    3    0    0 -0.61823277211E+01  0.41406594958E+02 -0.64333924775E+02  0.76756635928E+02  0.00000000000E+00 0. -1.
         11    1    5    5    0    0 -0.39291993223E+02 -0.92775626516E+02  0.13730260749E+04  0.13767177561E+04  0.00000000000E+00 0. -1.
        -12    1    5    5    0    0 -0.46477700057E+02 -0.13933273140E+02  0.31547285279E+03  0.31918244555E+03  0.00000000000E+00 0.  1.
          5    1    4    4  501    0 -0.61781747486E+01  0.23702598395E+02  0.11969641436E+02  0.27581293117E+02  0.41800000000E+01 0. -1.
         -5    1    4    4    0  501  0.90806830825E+02  0.62207579355E+02  0.53872954680E+03  0.54987513169E+03  0.41800000000E+01 0. -1.
</event>
<event>
11    1  0.8453735E-009  0.2112555E+03  0.7561462E-02  0.1046838E+00
         22   -1    0    0    0    0  0.00000000000E+00  0.00000000000E+00  0.31287762619E+03  0.31287762619E+03  0.00000000000E+00 0. -1.
         22   -1    0    0    0    0 -0.00000000000E+00 -0.00000000000E+00 -0.14462914470E+04  0.14462914470E+04  0.00000000000E+00 0. -1.
         24    2    1    2    0    0 -0.15130766640E+03  0.60107837803E+02 -0.10863142446E+04  0.11013977433E+04  0.80569155556E+02 0.  0.
         25    2    1    2    0    0  0.20301536580E+03 -0.69875950769E+02 -0.29823172733E+03  0.38818717264E+03  0.12509688473E+03 0.  0.
        -24    2    1    2    0    0 -0.51707699403E+02  0.97681129664E+01  0.25113215115E+03  0.26958415723E+03  0.82699203603E+02 0.  0.
        -13    1    3    3    0    0 -0.47589395790E+02 -0.14674444154E+02 -0.41847212181E+03  0.42142497154E+03  0.00000000000E+00 0.  1.
         14    1    3    3    0    0 -0.10371827061E+03  0.74782281957E+02 -0.66784212283E+03  0.67997277179E+03  0.00000000000E+00 0. -1.
         13    1    5    5    0    0 -0.69425554555E+02  0.11416997783E+02  0.23587366619E+03  0.24614353915E+03  0.00000000000E+00 0. -1.
        -14    1    5    5    0    0  0.17717855153E+02 -0.16488848164E+01  0.15258484958E+02  0.23440618071E+02  0.00000000000E+00 0.  1.
          5    1    4    4  501    0  0.12125868225E+03  0.72179540749E+01 -0.88979971013E+02  0.15063424087E+03  0.41800000000E+01 0. -1.
         -5    1    4    4    0  501  0.81756683553E+02 -0.77093904844E+02 -0.20925175632E+03  0.23755293177E+03  0.41800000000E+01 0. -1.
</event>
<event>
11    1  0.8453735E-009  0.1376510E+03  0.7561462E-02  0.1110210E+00
         22   -1    0    0    0    0  0.00000000000E+00  0.00000000000E+00  0.11342383416E+04  0.11342383416E+04  0.00000000000E+00 0. -1.
         22   -1    0    0    0    0 -0.00000000000E+00 -0.00000000000E+00 -0.39972662065E+03  0.39972662065E+03  0.00000000000E+00 0. -1.
        -24    2    1    2    0    0 -0.43411682506E+02  0.17536111389E+02 -0.26574995614E+03  0.28044140216E+03  0.76369178837E+02 0.  0.
         25    2    1    2    0    0  0.87203614113E+02  0.19025788678E+02 -0.76906526840E+02  0.17183925156E+03  0.12509062139E+03 0.  0.
         24    2    1    2    0    0 -0.43791931607E+02 -0.36561900068E+02  0.10771682039E+04  0.10816843085E+04  0.80592170403E+02 0.  0.
        -11    1    5    5    0    0  0.21557360522E+02 -0.16980516383E+02  0.20106021892E+03  0.20292429466E+03  0.00000000000E+00 0.  1.
         12    1    5    5    0    0 -0.65349292129E+02 -0.19581383685E+02  0.87610798499E+03  0.87876001384E+03  0.00000000000E+00 0. -1.
         11    1    3    3    0    0 -0.20079428857E+02 -0.25680618056E+02 -0.16700711580E+03  0.17015890907E+03  0.00000000000E+00 0. -1.
        -12    1    3    3    0    0 -0.23332253649E+02  0.43216729445E+02 -0.98742840334E+02  0.11028249309E+03  0.00000000000E+00 0.  1.
          5    1    4    4  501    0  0.95512625447E+02 -0.86679678405E+00 -0.10111233935E+03  0.13915671211E+03  0.41800000000E+01 0. -1.
         -5    1    4    4    0  501 -0.83090113341E+01  0.19892585463E+02  0.24205812512E+02  0.32682539453E+02  0.41800000000E+01 0. -1.
</event>
<event>
11    1  0.8453735E-009  0.5022593E+03  0.7561462E-02  0.9388487E-01
         22   -1    0    0    0    0  0.00000000000E+00  0.00000000000E+00  0.21167504075E+04  0.21167504075E+04  0.00000000000E+00 0.  1.
         22   -1    0    0    0    0 -0.00000000000E+00 -0.00000000000E+00 -0.88500387799E+03  0.88500387799E+03  0.00000000000E+00 0. -1.
         24    2    1    2    0    0  0.44171526374E+02  0.22212931011E+01 -0.61220769286E+03  0.61916726528E+03  0.81325182491E+02 0.  0.
         25    2    1    2    0    0 -0.49685960719E+03 -0.16555572903E+03  0.70305870597E+02  0.54301775245E+03  0.12508874994E+03 0.  0.
        -24    2    1    2    0    0  0.45268808082E+03  0.16333443592E+03  0.17736483517E+04  0.18395692677E+04  0.81129394345E+02 0.  0.
        -11    1    3    3    0    0 -0.90215965187E+01 -0.29277350835E+02 -0.21783309379E+03  0.21997683793E+03  0.00000000000E+00 0.  1.
         12    1    3    3    0    0  0.53193122893E+02  0.31498643936E+02 -0.39437459907E+03  0.39919042735E+03  0.00000000000E+00 0. -1.
         13    1    5    5    0    0  0.37572083037E+03  0.16326154631E+03  0.14383513448E+04  0.14955517598E+04  0.00000000000E+00 0. -1.
        -14    1    5    5    0    0  0.76967250444E+02  0.72889613218E-01  0.33529700689E+03  0.34401750796E+03  0.00000000000E+00 0.  1.
          5    1    4    4  501    0 -0.11889863153E+03 -0.95720488397E+02  0.26083146532E+01  0.15272056896E+03  0.41800000000E+01 0.  1.
         -5    1    4    4    0  501 -0.37796097566E+03 -0.69835240629E+02  0.67697555943E+02  0.39029718348E+03  0.41800000000E+01 0.  1.
</event>
<event>
11    1  0.8453735E-009  0.1401253E+03  0.7561462E-02  0.1107419E+00
         22   -1    0    0    0    0  0.00000000000E+00  0.00000000000E+00  0.18722336255E+03  0.18722336255E+03  0.00000000000E+00 0. -1.
         22   -1    0    0    0    0 -0.00000000000E+00 -0.00000000000E+00 -0.19124911770E+04  0.19124911770E+04  0.00000000000E+00 0. -1.
        -24    2    1    2    0    0 -0.60363931367E+02  0.18820838712E+02 -0.18303979734E+04  0.18331097035E+04  0.77048139967E+02 0.  0.
         25    2    1    2    0    0  0.38587077321E+02 -0.65622070880E+02  0.53224109053E+02  0.15580682243E+03  0.12509093256E+03 0.  0.
         24    2    1    2    0    0  0.21776854045E+02  0.46801232169E+02  0.51906049936E+02  0.11079801357E+03  0.83170758607E+02 0.  0.
        -13    1    5    5    0    0  0.71100233616E+01  0.26586118011E+02 -0.20428040787E+02  0.34273589738E+02  0.00000000000E+00 0.  1.
         14    1    5    5    0    0  0.14666830684E+02  0.20215114158E+02  0.72334090723E+02  0.76524423836E+02  0.00000000000E+00 0. -1.
         11    1    3    3    0    0 -0.24849156605E+02  0.15466003448E+02 -0.15707473074E+04  0.15710199813E+04  0.00000000000E+00 0. -1.
        -12    1    3    3    0    0 -0.35514774762E+02  0.33548352639E+01 -0.25965066601E+03  0.26208972224E+03  0.00000000000E+00 0.  1.
          5    1    4    4  501    0 -0.25762159972E+01  0.40856127543E+01  0.72258297197E+02  0.72540078813E+02  0.41800000000E+01 0.  1.
         -5    1    4    4    0  501  0.41163293319E+02 -0.69707683635E+02 -0.19034188144E+02  0.83266743619E+02  0.41800000000E+01 0.  1.
</event>
<event>
11    1  0.8453735E-009  0.1705370E+03  0.7561462E-02  0.1077565E+00
         22   -1    0    0    0    0  0.00000000000E+00  0.00000000000E+00  0.23767567375E+03  0.23767567375E+03  0.00000000000E+00 0.  1.
         22   -1    0    0    0    0 -0.00000000000E+00 -0.00000000000E+00 -0.82940965272E+03  0.82940965272E+03  0.00000000000E+00 0.  1.
        -24    2    1    2    0    0 -0.46689264514E+02  0.14641968680E+02 -0.70284516615E+03  0.70909967225E+03  0.80229314674E+02 0.  0.
         25    2    1    2    0    0  0.14932812821E+03 -0.24782285746E+02  0.15758368507E+02  0.19700430467E+03  0.12509723547E+03 0.  0.
         24    2    1    2    0    0 -0.10263886369E+03  0.10140317066E+02  0.95352818673E+02  0.16098134955E+03  0.78646503435E+02 0.  0.
        -11    1    5    5    0    0 -0.11426090352E+03  0.86770255945E+01  0.73351942557E+02  0.13605643066E+03  0.00000000000E+00 0.  1.
         12    1    5    5    0    0  0.11622039828E+02  0.14632914716E+01  0.22000876116E+02  0.24924918888E+02  0.00000000000E+00 0. -1.
         11    1    3    3    0    0 -0.53223880852E+01  0.10631877253E+02 -0.11615878303E+02  0.16622071399E+02  0.00000000000E+00 0. -1.
        -12    1    3    3    0    0 -0.41366876429E+02  0.40100914268E+01 -0.69122928785E+03  0.69247760085E+03  0.00000000000E+00 0.  1.
          5    1    4    4  501    0  0.61626703423E+02 -0.69598162650E+02 -0.13841936071E+02  0.94078830845E+02  0.41800000000E+01 0. -1.
         -5    1    4    4    0  501  0.87701424784E+02  0.44815876904E+02  0.29600304577E+02  0.10292547383E+03  0.41800000000E+01 0. -1.
</event>
<event>
11    1  0.8453735E-009  0.3388999E+03  0.7561462E-02  0.9849517E-01
         22   -1    0    0    0    0  0.00000000000E+00  0.00000000000E+00  0.94153314405E+03  0.94153314405E+03  0.00000000000E+00 0. -1.
         22   -1    0    0    0    0 -0.00000000000E+00 -0.00000000000E+00 -0.20950254186E+03  0.20950254186E+03  0.00000000000E+00 0. -1.
         24    2    1    2    0    0  0.10510474045E+03 -0.31535478198E+02 -0.16599912077E+02  0.13634098455E+03  0.79194786052E+02 0.  0.
         25    2    1    2    0    0  0.17912515744E+03  0.21995115296E+03  0.21900399515E+03  0.37957593344E+03  0.12510318795E+03 0.  0.
        -24    2    1    2    0    0 -0.28422989789E+03 -0.18841567476E+03  0.52962651912E+03  0.63511876792E+03  0.81144921286E+02 0.  0.
        -11    1    3    3    0    0  0.50857700006E+02 -0.35847103773E+02 -0.43221356822E+02  0.75760188650E+02  0.00000000000E+00 0.  1.
         12    1    3    3    0    0  0.54247040443E+02  0.43116255750E+01  0.26621444744E+02  0.60580795903E+02  0.00000000000E+00 0. -1.
         11    1    5    5    0    0 -0.23541427426E+03 -0.16771308671E+03  0.38754361309E+03  0.48346417864E+03  0.00000000000E+00 0. -1.
        -12    1    5    5    0    0 -0.48815623636E+02 -0.20702588047E+02  0.14208290603E+03  0.15165458928E+03  0.00000000000E+00 0.  1.
          5    1    4    4  501    0  0.11192656694E+03  0.11504370204E+03  0.47279876567E+02  0.16737822109E+03  0.41800000000E+01 0.  1.
         -5    1    4    4    0  501  0.67198590502E+02  0.10490745092E+03  0.17172411858E+03  0.21219771235E+03  0.41800000000E+01 0.  1.
</event>
<event>
11    1  0.8453735E-009  0.2504032E+03  0.7561462E-02  0.1023685E+00
         22   -1    0    0    0    0  0.00000000000E+00  0.00000000000E+00  0.48645216808E+03  0.48645216808E+03  0.00000000000E+00 0. -1.
         22   -1    0    0    0    0 -0.00000000000E+00 -0.00000000000E+00 -0.72918609665E+03  0.72918609665E+03  0.00000000000E+00 0. -1.
        -24    2    1    2    0    0 -0.16974220645E+03 -0.14291868185E+03 -0.57876636341E+03  0.62489167240E+03  0.79252334650E+02 0.  0.
         25    2    1    2    0    0  0.20377605013E+03  0.46421708181E+02  0.14920986757E+02  0.24402853304E+03  0.12509050920E+03 0.  0.
         24    2    1    2    0    0 -0.34033843679E+02  0.96496973670E+02  0.32111144809E+03  0.34671805929E+03  0.81430228425E+02 0.  0.
        -11    1    5    5    0    0 -0.85241854676E+00 -0.14687918444E+02  0.38415283650E+02  0.41136304932E+02  0.00000000000E+00 0.  1.
         12    1    5    5    0    0 -0.33181425132E+02  0.11118489211E+03  0.28269616444E+03  0.30558175436E+03  0.00000000000E+00 0. -1.
         11    1    3    3    0    0 -0.10110263948E+03 -0.46092678063E+02 -0.34931334992E+03  0.36655981110E+03  0.00000000000E+00 0. -1.
        -12    1    3    3    0    0 -0.68639566969E+02 -0.96826003788E+02 -0.22945301349E+03  0.25833186130E+03  0.00000000000E+00 0.  1.
          5    1    4    4  501    0  0.44875841905E+02  0.45276422723E+02 -0.40551190329E+02  0.75668137802E+02  0.41800000000E+01 0. -1.
         -5    1    4    4    0  501  0.15890020823E+03  0.11452854574E+01  0.55472177085E+02  0.16836039524E+03  0.41800000000E+01 0. -1.
</event>
<event>
11    1  0.8453735E-009  0.1726320E+03  0.7561462E-02  0.1075764E+00
         22   -1    0    0    0    0  0.00000000000E+00  0.00000000000E+00  0.14975960242E+04  0.14975960242E+04  0.00000000000E+00 0. -1.
         22   -1    0    0    0    0 -0.00000000000E+00 -0.00000000000E+00 -0.87561104549E+02  0.87561104549E+02  0.00000000000E+00 0. -1.
         24    2    1    2    0    0  0.13475788841E+02  0.33587326621E+02 -0.41903929586E+01  0.87278022304E+02  0.79310707914E+02 0.  0.
         25    2    1    2    0    0 -0.11804922879E+03 -0.84509720258E+02  0.20565140086E+03  0.28110275427E+03  0.12509495012E+03 0.  0.
        -24    2    1    2    0    0  0.10457343995E+03  0.50922393637E+02  0.12085739117E+04  0.12167763522E+04  0.79781555070E+02 0.  0.
        -11    1    3    3    0    0 -0.30392976005E+01  0.55735698235E+02  0.92077106244E+01  0.56572849695E+02  0.00000000000E+00 0.  1.
         12    1    3    3    0    0  0.16515086442E+02 -0.22148371614E+02 -0.13398103583E+02  0.30705172609E+02  0.00000000000E+00 0. -1.
         13    1    5    5    0    0  0.84290111413E+02  0.70562140492E+02  0.84732666551E+03  0.85442747886E+03  0.00000000000E+00 0. -1.
        -14    1    5    5    0    0  0.20283328539E+02 -0.19639746855E+02  0.36124724622E+03  0.36234887329E+03  0.00000000000E+00 0.  1.
          5    1    4    4  501    0 -0.11182151862E+03 -0.39275885016E+02  0.69542510841E+02  0.13747829059E+03  0.41800000000E+01 0. -1.
         -5    1    4    4    0  501 -0.62277101729E+01 -0.45233835241E+02  0.13610889002E+03  0.14362446368E+03  0.41800000000E+01 0. -1.
</event>
<event>
11    1  0.8453735E-009  0.1656016E+03  0.7561462E-02  0.1081924E+00
         22   -1    0    0    0    0  0.00000000000E+00  0.00000000000E+00  0.16779122765E+04  0.16779122765E+04  0.00000000000E+00 0. -1.
         22   -1    0    0    0    0 -0.00000000000E+00 -0.00000000000E+00 -0.71729619680E+03  0.71729619680E+03  0.00000000000E+00 0. -1.
         24    2    1    2    0    0 -0.18871597787E+02  0.10684081318E+03 -0.69126582339E+03  0.70419120644E+03  0.79156301574E+02 0.  0.
         25    2    1    2    0    0 -0.38157068504E+01 -0.11241751951E+03  0.37063025957E+03  0.40702113252E+03  0.12508858738E+03 0.  0.
        -24    2    1    2    0    0  0.22687304637E+02  0.55767063287E+01  0.12812516435E+04  0.12839961343E+04  0.80588370968E+02 0.  0.
        -13    1    3    3    0    0 -0.66683858485E+01 -0.79573290904E+01 -0.16898227765E+03  0.16930090554E+03  0.00000000000E+00 0.  1.
         14    1    3    3    0    0 -0.12203211938E+02  0.11479814227E+03 -0.52228354574E+03  0.53489030090E+03  0.00000000000E+00 0. -1.
         11    1    5    5    0    0  0.55221358018E+01  0.28197925207E+02  0.11125714843E+04  0.11129424624E+04  0.00000000000E+00 0. -1.
        -12    1    5    5    0    0  0.17165168835E+02 -0.22621218878E+02  0.16868015919E+03  0.17105367190E+03  0.00000000000E+00 0.  1.
          5    1    4    4  501    0 -0.59457666570E+02 -0.77773416892E+02  0.26612111874E+03  0.28358744812E+03  0.41800000000E+01 0. -1.
         -5    1    4    4    0  501  0.55641959720E+02 -0.34644102619E+02  0.10450914083E+03  0.12343368440E+03  0.41800000000E+01 0. -1.
</event>
<event>
11    1  0.8453735E-009  0.1619057E+03  0.7561462E-02  0.1085299E+00
         22   -1    0    0    0    0  0.00000000000E+00  0.00000000000E+00  0.28539209830E+03  0.28539209830E+03  0.00000000000E+00 0. -1.
         22   -1    0    0    0    0 -0.00000000000E+00 -0.00000000000E+00 -0.11417051781E+04  0.11417051781E+04  0.00000000000E+00 0. -1.
        -24    2    1    2    0    0  0.85437412779E+01  0.19071645964E+02 -0.10138480855E+04  0.10172003570E+04  0.79824197869E+02 0.  0.
         25    2    1    2    0    0  0.91755485037E+02  0.11387865283E+02 -0.50826209649E+02  0.16364505742E+03  0.12509056207E+03 0.  0.
         24    2    1    2    0    0 -0.10029922631E+03 -0.30459511247E+02  0.20836121534E+03  0.24625186203E+03  0.78980167579E+02 0.  0.
        -11    1    5    5    0    0 -0.26108420130E+02  0.21940739737E+02  0.95339280257E+02  0.10125524195E+03  0.00000000000E+00 0.  1.
         12    1    5    5    0    0 -0.74190806185E+02 -0.52400250984E+02  0.11302193508E+03  0.14499662008E+03  0.00000000000E+00 0. -1.
         11    1    3    3    0    0 -0.45998224628E+01  0.48244027630E+02 -0.71609623029E+03  0.71773425138E+03  0.00000000000E+00 0. -1.
        -12    1    3    3    0    0  0.13143563741E+02 -0.29172381665E+02 -0.29775185520E+03  0.29946610559E+03  0.00000000000E+00 0.  1.
          5    1    4    4  501    0 -0.11640772956E+02 -0.30950083893E+02 -0.38866366846E+02  0.51200411715E+02  0.41800000000E+01 0.  1.
         -5    1    4    4    0  501  0.10339625799E+03  0.42337949175E+02 -0.11959842803E+02  0.11244464570E+03  0.41800000000E+01 0.  1.
</event>
<event>
11    1  0.8453735E-009  0.1292685E+03  0.7561462E-02  0.1120171E+00
         22   -1    0    0    0    0  0.00000000000E+00  0.00000000000E+00  0.47150733759E+03  0.47150733759E+03  0.00000000000E+00 0.  1.
         22   -1    0    0    0    0 -0.00000000000E+00 -0.00000000000E+00 -0.66661349665E+03  0.66661349665E+03  0.00000000000E+00 0. -1.
         24    2    1    2    0    0  0.11455925284E+02 -0.30902718000E+02 -0.62948610651E+03  0.63535692706E+03  0.79620664854E+02 0.  0.
         25    2    1    2    0    0  0.13044636368E+02  0.20673656141E+02  0.11310367458E+03  0.17040555945E+03  0.12509216959E+03 0.  0.
        -24    2    1    2    0    0 -0.24500561651E+02  0.10229061859E+02  0.32127627286E+03  0.33235834773E+03  0.80862331005E+02 0.  0.
        -13    1    3    3    0    0 -0.85851161070E+01  0.12129822964E+02 -0.25544924163E+02  0.29553002795E+02  0.00000000000E+00 0.  1.
         14    1    3    3    0    0  0.20041041391E+02 -0.43032540964E+02 -0.60394118234E+03  0.60580392426E+03  0.00000000000E+00 0. -1.
         13    1    5    5    0    0 -0.46693949747E+02 -0.10772081634E+02  0.12788931880E+03  0.13657247361E+03  0.00000000000E+00 0. -1.
        -14    1    5    5    0    0  0.22193388096E+02  0.21001143493E+02  0.19338695406E+03  0.19578587412E+03  0.00000000000E+00 0.  1.
          5    1    4    4  501    0 -0.39749282378E+02  0.43667221773E+01  0.10742490009E+03  0.11470246410E+03  0.41800000000E+01 0.  1.
         -5    1    4    4    0  501  0.52793918746E+02  0.16306933964E+02  0.56787744919E+01  0.55703095350E+02  0.41800000000E+01 0.  1.
</event>
<event>
11    1  0.8453735E-009  0.1896988E+03  0.7561462E-02  0.1062057E+00
         22   -1    0    0    0    0  0.00000000000E+00  0.00000000000E+00  0.39848319848E+03  0.39848319848E+03  0.00000000000E+00 0. -1.
         22   -1    0    0    0    0 -0.00000000000E+00 -0.00000000000E+00 -0.70935072763E+03  0.70935072763E+03  0.00000000000E+00 0. -1.
        -24    2    1    2    0    0 -0.13262252220E+03 -0.37926289507E+02 -0.53929136045E+03  0.56062800985E+03  0.66644258180E+02 0.  0.
         25    2    1    2    0    0  0.15934541674E+03  0.86284298040E+02 -0.72461813257E+02  0.23180236898E+03  0.12508270047E+03 0.  0.
         24    2    1    2    0    0 -0.26722894540E+02 -0.48358008533E+02  0.30088564456E+03  0.31540354729E+03  0.76776405609E+02 0.  0.
        -11    1    5    5    0    0  0.47381275039E+01 -0.18593826905E+02  0.10632343724E+02  0.21936886385E+02  0.00000000000E+00 0.  1.
         12    1    5    5    0    0 -0.31461022044E+02 -0.29764181628E+02  0.29025330083E+03  0.29346666090E+03  0.00000000000E+00 0. -1.
         11    1    3    3    0    0 -0.14446281278E+02 -0.14028792574E+02 -0.19099537100E+03  0.19205398670E+03  0.00000000000E+00 0. -1.
        -12    1    3    3    0    0 -0.11817624093E+03 -0.23897496933E+02 -0.34829598945E+03  0.36857402315E+03  0.00000000000E+00 0.  1.
          5    1    4    4  501    0  0.43184586298E+02  0.57860569379E+02 -0.84865257439E+02  0.11150039598E+03  0.41800000000E+01 0. -1.
         -5    1    4    4    0  501  0.11616083045E+03  0.28423728661E+02  0.12403444181E+02  0.12030197300E+03  0.41800000000E+01 0. -1.
</event>
<event>
11    1  0.8453735E-009  0.1721269E+03  0.7561462E-02  0.1076195E+00
         22   -1    0    0    0    0  0.00000000000E+00  0.00000000000E+00  0.28741045887E+03  0.28741045887E+03  0.00000000000E+00 0. -1.
         22   -1    0    0    0    0 -0.00000000000E+00 -0.00000000000E+00 -0.65378554693E+03  0.65378554693E+03  0.00000000000E+00 0. -1.
         24    2    1    2    0    0 -0.29364745827E+02  0.14539753567E+02 -0.52494558341E+03  0.53194550269E+03  0.79526470811E+02 0.  0.
         25    2    1    2    0    0 -0.30790209534E+02  0.93253051476E+02 -0.38228203771E+02  0.16356853568E+03  0.12509636961E+03 0.  0.
        -24    2    1    2    0    0  0.60154955361E+02 -0.10779280504E+03  0.19679869912E+03  0.24568196743E+03  0.79949944763E+02 0.  0.
        -11    1    3    3    0    0 -0.29547054122E+02  0.16528554424E+02 -0.78428456074E+02  0.85423909070E+02  0.00000000000E+00 0.  1.
         12    1    3    3    0    0  0.18230829466E+00 -0.19888008572E+01 -0.44651712733E+03  0.44652159362E+03  0.00000000000E+00 0. -1.
         13    1    5    5    0    0  0.68499837104E+02 -0.46784226412E+02  0.13495523411E+03  0.15841056384E+03  0.00000000000E+00 0. -1.
        -14    1    5    5    0    0 -0.83448817430E+01 -0.61008578631E+02  0.61843465017E+02  0.87271403582E+02  0.00000000000E+00 0.  1.
          5    1    4    4  501    0  0.29255093867E+02  0.81253380850E+02 -0.51690870410E+02  0.10073425882E+03  0.41800000000E+01 0.  1.
         -5    1    4    4    0  501 -0.60045303401E+02  0.11999670626E+02  0.13462666640E+02  0.62834276861E+02  0.41800000000E+01 0.  1.
</event>
<event>
11    1  0.8453735E-009  0.1709069E+03  0.7561462E-02  0.1077245E+00
         22   -1    0    0    0    0  0.00000000000E+00  0.00000000000E+00  0.51554697807E+03  0.51554697807E+03  0.00000000000E+00 0.  1.
         22   -1    0    0    0    0 -0.00000000000E+00 -0.00000000000E+00 -0.61428753945E+03  0.61428753945E+03  0.00000000000E+00 0. -1.
        -24    2    1    2    0    0  0.21042756935E+02  0.11332775775E+03 -0.53566602742E+03  0.55379685259E+03  0.80416930442E+02 0.  0.
         25    2    1    2    0    0 -0.14190860717E+02 -0.13296694432E+03  0.63444593451E+02  0.19378861566E+03  0.12508885767E+03 0.  0.
         24    2    1    2    0    0 -0.68518962187E+01  0.19639186564E+02  0.37348087259E+03  0.38224904927E+03  0.78700237255E+02 0.  0.
        -11    1    5    5    0    0  0.23957410306E+02 -0.59018416855E+01  0.27268814427E+03  0.27380214256E+03  0.00000000000E+00 0.  1.
         12    1    5    5    0    0 -0.30809306525E+02  0.25541028249E+02  0.10079272832E+03  0.10844690671E+03  0.00000000000E+00 0. -1.
         13    1    3    3    0    0  0.30199584278E+02  0.43907607881E+02 -0.37176593076E+03  0.37556597316E+03  0.00000000000E+00 0. -1.
        -14    1    3    3    0    0 -0.91568273428E+01  0.69420149872E+02 -0.16390009666E+03  0.17823087942E+03  0.00000000000E+00 0.  1.
          5    1    4    4  501    0  0.54805585492E+02 -0.44211885402E+02  0.21795843046E+02  0.73830035799E+02  0.41800000000E+01 0.  1.
         -5    1    4    4    0  501 -0.68996446209E+02 -0.88755058915E+02  0.41648750404E+02  0.11995857986E+03  0.41800000000E+01 0.  1.
</event>
<event>
11    1  0.8453735E-009  0.1880562E+03  0.7561462E-02  0.1063306E+00
         22   -1    0    0    0    0  0.00000000000E+00  0.00000000000E+00  0.23656675347E+03  0.23656675347E+03  0.00000000000E+00 0. -1.
         22   -1    0    0    0    0 -0.00000000000E+00 -0.00000000000E+00 -0.10424613212E+04  0.10424613212E+04  0.00000000000E+00 0.  1.
        -24    2    1    2    0    0  0.54380370239E+02 -0.23909667488E+02 -0.82429847176E+03  0.83100386515E+03  0.87008944893E+02 0.  0.
         25    2    1    2    0    0 -0.18528550599E+03  0.28114715730E+02 -0.10695461824E+03  0.24941399027E+03  0.12508753819E+03 0.  0.
         24    2    1    2    0    0  0.13090513575E+03 -0.42050482428E+01  0.12535852231E+03  0.19861021920E+03  0.81101313539E+02 0.  0.
        -11    1    5    5    0    0  0.35082203823E+02  0.25918700615E+02  0.83659775415E+01  0.44413169746E+02  0.00000000000E+00 0.  1.
         12    1    5    5    0    0  0.95822931929E+02 -0.30123748858E+02  0.11699254477E+03  0.15419704946E+03  0.00000000000E+00 0. -1.
         11    1    3    3    0    0  0.23352109172E+02 -0.16403260829E+02 -0.64453498767E+02  0.70488591076E+02  0.00000000000E+00 0. -1.
        -12    1    3    3    0    0  0.31028261067E+02 -0.75064066582E+01 -0.75984497299E+03  0.76051527408E+03  0.00000000000E+00 0.  1.
          5    1    4    4  501    0 -0.63159605522E+02 -0.32324471838E+02  0.74235937402E+01  0.71460404375E+02  0.41800000000E+01 0. -1.
         -5    1    4    4    0  501 -0.12212590047E+03  0.60439187569E+02 -0.11437821198E+03  0.17795358590E+03  0.41800000000E+01 0. -1.
</event>
<event>
11    1  0.8453735E-009  0.1433089E+03  0.7561462E-02  0.1103919E+00
         22   -1    0    0    0    0  0.00000000000E+00  0.00000000000E+00  0.61126235081E+03  0.61126235081E+03  0.00000000000E+00 0. -1.
         22   -1    0    0    0    0 -0.00000000000E+00 -0.00000000000E+00 -0.44192594673E+03  0.44192594673E+03  0.00000000000E+00 0.  1.
        -24    2    1    2    0    0 -0.66322966500E+02  0.12613571748E+02 -0.37521833599E+03  0.38973227740E+03  0.80898765803E+02 0.  0.
         25    2    1    2    0    0  0.10822500162E+03 -0.45389051242E+02  0.80982265478E+02  0.18967932838E+03  0.12508918157E+03 0.  0.
         24    2    1    2    0    0 -0.41902035116E+02  0.32775479493E+02  0.46357247459E+03  0.47377669177E+03  0.82066447862E+02 0.  0.
        -11    1    5    5    0    0 -0.53342474102E+02  0.18128221835E+02  0.15987887050E+03  0.16951491145E+03  0.00000000000E+00 0.  1.
         12    1    5    5    0    0  0.11440438986E+02  0.14647257658E+02  0.30369360408E+03  0.30426178032E+03  0.00000000000E+00 0. -1.
         13    1    3    3    0    0  0.14416935979E+02  0.39336575905E+01 -0.17974444418E+02  0.23375250955E+02  0.00000000000E+00 0. -1.
        -14    1    3    3    0    0 -0.80739902479E+02  0.86799141577E+01 -0.35724389157E+03  0.36635702644E+03  0.00000000000E+00 0.  1.
          5    1    4    4  501    0  0.12663219477E+03 -0.54081177016E+01  0.66236319712E+02  0.14307229969E+03  0.41800000000E+01 0.  1.
         -5    1    4    4    0  501 -0.18407193157E+02 -0.39980933540E+02  0.14745945766E+02  0.46607028689E+02  0.41800000000E+01 0.  1.
</event>
<event>
11    1  0.8453735E-009  0.1457063E+03  0.7561462E-02  0.1101349E+00
         22   -1    0    0    0    0  0.00000000000E+00  0.00000000000E+00  0.17571489167E+03  0.17571489167E+03  0.00000000000E+00 0. -1.
         22   -1    0    0    0    0 -0.00000000000E+00 -0.00000000000E+00 -0.79947434765E+03  0.79947434765E+03  0.00000000000E+00 0. -1.
        -24    2    1    2    0    0  0.18912418658E+02  0.34529884096E+02 -0.65334516516E+03  0.65953167626E+03  0.81068703415E+02 0.  0.
         25    2    1    2    0    0 -0.90119572613E+02 -0.33478449601E+02 -0.64894387157E+02  0.17058857809E+03  0.12508731964E+03 0.  0.
         24    2    1    2    0    0  0.71207153955E+02 -0.10514344951E+01  0.94480096339E+02  0.14506898496E+03  0.83946158370E+02 0.  0.
        -13    1    5    5    0    0 -0.40723910984E+01 -0.11183427327E+02 -0.10240516515E+02  0.15701006163E+02  0.00000000000E+00 0.  1.
         14    1    5    5    0    0  0.75279545054E+02  0.10131992832E+02  0.10472061285E+03  0.12936797880E+03  0.00000000000E+00 0. -1.
         13    1    3    3    0    0  0.38443675496E+02 -0.11488866237E+02 -0.29505014857E+03  0.29776584828E+03  0.00000000000E+00 0. -1.
        -14    1    3    3    0    0 -0.19531256839E+02  0.46018750333E+02 -0.35829501659E+03  0.36176582798E+03  0.00000000000E+00 0.  1.
          5    1    4    4  501    0 -0.20858974705E+02  0.12761932825E+02  0.33455078892E+02  0.41649471292E+02  0.41800000000E+01 0.  1.
         -5    1    4    4    0  501 -0.69260597908E+02 -0.46240382427E+02 -0.98349466050E+02  0.12893910680E+03  0.41800000000E+01 0.  1.
</event>
<event>
11    1  0.8453735E-009  0.2399970E+03  0.7561462E-02  0.1029367E+00
         22   -1    0    0    0    0  0.00000000000E+00  0.00000000000E+00  0.24560462577E+04  0.24560462577E+04  0.00000000000E+00 0. -1.
         22   -1    0    0    0    0 -0.00000000000E+00 -0.00000000000E+00 -0.20753310349E+03  0.20753310349E+03  0.00000000000E+00 0. -1.
        -24    2    1    2    0    0  0.13610425920E+03  0.14757600863E+03 -0.10627723615E+03  0.24035479476E+03  0.78565442451E+02 0.  0.
         25    2    1    2    0    0 -0.16455995729E+03 -0.17176204880E+03  0.51143409128E+03  0.57774936359E+03  0.12508923397E+03 0.  0.
         24    2    1    2    0    0  0.28455698092E+02  0.24186040177E+02  0.18433562991E+04  0.18454752028E+04  0.80134809049E+02 0.  0.
        -13    1    5    5    0    0 -0.16548758986E+02 -0.16118028647E+02  0.27973427590E+03  0.28068651087E+03  0.00000000000E+00 0.  1.
         14    1    5    5    0    0  0.45004457078E+02  0.40304068824E+02  0.15636220232E+04  0.15647886920E+04  0.00000000000E+00 0. -1.
         13    1    3    3    0    0  0.12153961399E+03  0.88195336934E+02 -0.96333051019E+02  0.17841062733E+03  0.00000000000E+00 0. -1.
        -14    1    3    3    0    0  0.14564645207E+02  0.59380671693E+02 -0.99441851271E+01  0.61944167430E+02  0.00000000000E+00 0.  1.
          5    1    4    4  501    0 -0.16512629114E+03 -0.14016786957E+03  0.49815102025E+03  0.54321785231E+03  0.41800000000E+01 0. -1.
         -5    1    4    4    0  501  0.56633385392E+00 -0.31594179236E+02  0.13283071023E+02  0.34531511282E+02  0.41800000000E+01 0. -1.
</event>
<event>
11    1  0.8453735E-009  0.1339991E+03  0.7561462E-02  0.1114451E+00
         22   -1    0    0    0    0  0.00000000000E+00  0.00000000000E+00  0.11808768395E+04  0.11808768395E+04  0.00000000000E+00 0. -1.
         22   -1    0    0    0    0 -0.00000000000E+00 -0.00000000000E+00 -0.75644890159E+02  0.75644890159E+02  0.00000000000E+00 0.  1.
        -24    2    1    2    0    0 -0.34424257411E+02  0.31797025208E+02 -0.15173469740E+01  0.91671022246E+02  0.78773051657E+02 0.  0.
         25    2    1    2    0    0  0.11491255493E+02 -0.61194623070E+02  0.15343662802E+03  0.20752279982E+03  0.12508430270E+03 0.  0.
         24    2    1    2    0    0  0.22933001919E+02  0.29397597862E+02  0.95331266827E+03  0.95732790757E+03  0.79256153009E+02 0.  0.
        -11    1    5    5    0    0 -0.90036314278E+01  0.49190159710E+02  0.53782416521E+03  0.54014402698E+03  0.00000000000E+00 0.  1.
         12    1    5    5    0    0  0.31936633346E+02 -0.19792561848E+02  0.41548850306E+03  0.41718388060E+03  0.00000000000E+00 0. -1.
         11    1    3    3    0    0 -0.30586434037E+02  0.21838158508E+02  0.36375953163E+02  0.52303394561E+02  0.00000000000E+00 0. -1.
        -12    1    3    3    0    0 -0.38378233746E+01  0.99588667003E+01 -0.37893300137E+02  0.39367627684E+02  0.00000000000E+00 0.  1.
          5    1    4    4  501    0 -0.49147248922E+02 -0.61555046501E+02  0.89705126240E+02  0.11945274338E+03  0.41800000000E+01 0. -1.
         -5    1    4    4    0  501  0.60638504415E+02  0.36042343068E+00  0.63731501784E+02  0.88070056446E+02  0.41800000000E+01 0. -1.
</event>
<event>
11    1  0.8453735E-009  0.1328327E+03  0.7561462E-02  0.1115837E+00
         22   -1    0    0    0    0  0.00000000000E+00  0.00000000000E+00  0.64023210688E+02  0.64023210688E+02  0.00000000000E+00 0. -1.
         22   -1    0    0    0    0 -0.00000000000E+00 -0.00000000000E+00 -0.17654257368E+04  0.17654257368E+04  0.00000000000E+00 0. -1.
        -24    2    1    2    0    0 -0.43077427655E+02  0.38219990927E+00 -0.13295488516E+04  0.13328680604E+04  0.83554215280E+02 0.  0.
         25    2    1    2    0    0  0.12577659830E+02 -0.36999740531E+02 -0.37325355996E+03  0.39559141708E+03  0.12508865222E+03 0.  0.
         24    2    1    2    0    0  0.30499767825E+02  0.36617540621E+02  0.13998854274E+01  0.10098947000E+03  0.89027148965E+02 0.  0.
        -11    1    5    5    0    0 -0.24753329209E+02  0.34320561616E+02 -0.12202950789E+02  0.44040211903E+02  0.00000000000E+00 0.  1.
         12    1    5    5    0    0  0.55253097034E+02  0.22969790059E+01  0.13602836216E+02  0.56949258095E+02  0.00000000000E+00 0. -1.
         11    1    3    3    0    0 -0.90899539994E+01  0.23483773099E+02 -0.10512318121E+04  0.10515333745E+04  0.00000000000E+00 0. -1.
        -12    1    3    3    0    0 -0.33987473656E+02 -0.23101573190E+02 -0.27831703950E+03  0.28133468597E+03  0.00000000000E+00 0.  1.
          5    1    4    4  501    0 -0.27083708626E+02  0.37033114924E+02 -0.15486561948E+03  0.16157292895E+03  0.41800000000E+01 0. -1.
         -5    1    4    4    0  501  0.39661368456E+02 -0.74032855455E+02 -0.21838794049E+03  0.23401848812E+03  0.41800000000E+01 0. -1.
</event>
<event>
11    1  0.8453735E-009  0.1258867E+03  0.7561462E-02  0.1124429E+00
         22   -1    0    0    0    0  0.00000000000E+00  0.00000000000E+00  0.11007653524E+04  0.11007653524E+04  0.00000000000E+00 0. -1.
         22   -1    0    0    0    0 -0.00000000000E+00 -0.00000000000E+00 -0.54981077874E+02  0.54981077874E+02  0.00000000000E+00 0.  1.
        -24    2    1    2    0    0  0.21159625158E+01  0.11237839135E+02  0.92549593203E+02  0.14283243556E+03  0.10818923755E+03 0.  0.
         25    2    1    2    0    0  0.35846408071E+01  0.50698645458E+02  0.14280700036E+03  0.19653201254E+03  0.12509112799E+03 0.  0.
         24    2    1    2    0    0 -0.57006033229E+01 -0.61936484593E+02  0.81042768095E+03  0.81638198216E+03  0.76275092505E+02 0.  0.
        -11    1    5    5    0    0 -0.15635310067E+02  0.14457194621E+02  0.19016003372E+03  0.19134866558E+03  0.00000000000E+00 0.  1.
         12    1    5    5    0    0  0.99347067441E+01 -0.76393679213E+02  0.62026764724E+03  0.62503331658E+03  0.00000000000E+00 0. -1.
         11    1    3    3    0    0  0.60745110975E+01 -0.19291634307E+02  0.10695013550E+03  0.10884575473E+03  0.00000000000E+00 0. -1.
        -12    1    3    3    0    0 -0.39585485817E+01  0.30529473442E+02 -0.14400542298E+02  0.33986680832E+02  0.00000000000E+00 0.  1.
          5    1    4    4  501    0 -0.47256312351E+02  0.39426347533E+01  0.11018698017E+03  0.12003060620E+03  0.41800000000E+01 0. -1.
         -5    1    4    4    0  501  0.50840953158E+02  0.46756010705E+02  0.32620020190E+02  0.76501406342E+02  0.41800000000E+01 0. -1.
</event>
<event>
11    1  0.8453735E-009  0.1723529E+03  0.7561462E-02  0.1076002E+00
         22   -1    0    0    0    0  0.00000000000E+00  0.00000000000E+00  0.28427307119E+03  0.28427307119E+03  0.00000000000E+00 0.  1.
         22   -1    0    0    0    0 -0.00000000000E+00 -0.00000000000E+00 -0.55739803881E+03  0.55739803881E+03  0.00000000000E+00 0.  1.
         24    2    1    2    0    0 -0.92558303542E+01 -0.41455194457E+02 -0.36539062955E+03  0.37633766135E+03  0.79470243769E+02 0.  0.
         25    2    1    2    0    0 -0.96888547065E+02  0.91494338166E+02 -0.11333103652E+03  0.21505836554E+03  0.12509025654E+03 0.  0.
        -24    2    1    2    0    0  0.10614437742E+03 -0.50039143709E+02  0.20559669844E+03  0.25027508311E+03  0.81222349474E+02 0.  0.
        -13    1    3    3    0    0  0.24027392662E+02 -0.27051968526E+02 -0.29444917651E+03  0.29666385379E+03  0.00000000000E+00 0.  1.
         14    1    3    3    0    0 -0.33283223016E+02 -0.14403225931E+02 -0.70941453047E+02  0.79673807566E+02  0.00000000000E+00 0. -1.
         13    1    5    5    0    0  0.43152139272E+02 -0.14340716727E+02  0.17499425272E+02  0.48723640718E+02  0.00000000000E+00 0. -1.
        -14    1    5    5    0    0  0.62992238147E+02 -0.35698426982E+02  0.18809727317E+03  0.20155144239E+03  0.00000000000E+00 0.  1.
          5    1    4    4  501    0  0.20119485742E+02  0.48546809349E+02 -0.58726813886E+02  0.78917029047E+02  0.41800000000E+01 0. -1.
         -5    1    4    4    0  501 -0.11700803281E+03  0.42947528817E+02 -0.54604222631E+02  0.13614133649E+03  0.41800000000E+01 0. -1.
</event>
<event>
11    1  0.8453735E-009  0.1724666E+03  0.7561462E-02  0.1075905E+00
         22   -1    0    0    0    0  0.00000000000E+00  0.00000000000E+00  0.12638891150E+04  0.12638891150E+04  0.00000000000E+00 0. -1.
         22   -1    0    0    0    0 -0.00000000000E+00 -0.00000000000E+00 -0.28199113559E+03  0.28199113559E+03  0.00000000000E+00 0. -1.
         24    2    1    2    0    0  0.54135612895E+02  0.10804012120E+03 -0.22377288660E+03  0.26622727444E+03  0.78735789225E+02 0.  0.
         25    2    1    2    0    0 -0.50454619012E+02 -0.87153120453E+02  0.14726920994E+03  0.21789366845E+03  0.12509234815E+03 0.  0.
        -24    2    1    2    0    0 -0.36809938833E+01 -0.20887000748E+02  0.10584016560E+04  0.10617593077E+04  0.81663611397E+02 0.  0.
        -13    1    3    3    0    0 -0.20932105653E+01  0.57125296252E+02 -0.14953760274E+03  0.16009114790E+03  0.00000000000E+00 0.  1.
         14    1    3    3    0    0  0.56228823461E+02  0.50914824949E+02 -0.74235283868E+02  0.10613612655E+03  0.00000000000E+00 0. -1.
         11    1    5    5    0    0  0.28474404836E+02 -0.35050172762E+02  0.75091435707E+03  0.75227101366E+03  0.00000000000E+00 0. -1.
        -12    1    5    5    0    0 -0.32155398719E+02  0.14163172014E+02  0.30748729896E+03  0.30948829401E+03  0.00000000000E+00 0.  1.
          5    1    4    4  501    0 -0.16020878335E+02 -0.10160350220E+03  0.14803438442E+03  0.18030971014E+03  0.41800000000E+01 0.  1.
         -5    1    4    4    0  501 -0.34433740677E+02  0.14450381749E+02 -0.76517447147E+00  0.37583958303E+02  0.41800000000E+01 0.  1.
</event>
<event>
11    1  0.8453735E-009  0.1361298E+03  0.7561462E-02  0.1111959E+00
         22   -1    0    0    0    0  0.00000000000E+00  0.00000000000E+00  0.67516077116E+03  0.67516077116E+03  0.00000000000E+00 0.  1.
         22   -1    0    0    0    0 -0.00000000000E+00 -0.00000000000E+00 -0.14979508572E+03  0.14979508572E+03  0.00000000000E+00 0. -1.
         24    2    1    2    0    0  0.41980895077E+02  0.38287436592E+02 -0.95579392706E+02  0.13523538672E+03  0.76973152195E+02 0.  0.
         25    2    1    2    0    0 -0.32086919067E+02 -0.12374677136E+02  0.10510657029E+03  0.16696927881E+03  0.12509454799E+03 0.  0.
        -24    2    1    2    0    0 -0.98939760094E+01 -0.25912759456E+02  0.51583850785E+03  0.52275119136E+03  0.80062975325E+02 0.  0.
        -11    1    3    3    0    0  0.19897452557E+02  0.18829224002E+02  0.71999698541E+01  0.28324686418E+02  0.00000000000E+00 0.  1.
         12    1    3    3    0    0  0.22083442520E+02  0.19458212590E+02 -0.10277936256E+03  0.10691070030E+03  0.00000000000E+00 0. -1.
         11    1    5    5    0    0 -0.35396930223E+02 -0.40891857068E+02  0.37123053496E+03  0.37514956581E+03  0.00000000000E+00 0. -1.
        -12    1    5    5    0    0  0.25502954213E+02  0.14979097613E+02  0.14460797289E+03  0.14760162555E+03  0.00000000000E+00 0.  1.
          5    1    4    4  501    0 -0.39942688360E+02  0.23505463207E+02 -0.86728488460E+01  0.47335144038E+02  0.41800000000E+01 0.  1.
         -5    1    4    4    0  501  0.78557692922E+01 -0.35880140343E+02  0.11377941914E+03  0.11963413477E+03  0.41800000000E+01 0.  1.
</event>
<event>
11    1  0.8453735E-009  0.1341919E+03  0.7561462E-02  0.1114223E+00
         22   -1    0    0    0    0  0.00000000000E+00  0.00000000000E+00  0.40163709195E+03  0.40163709195E+03  0.00000000000E+00 0.  1.
         22   -1    0    0    0    0 -0.00000000000E+00 -0.00000000000E+00 -0.96355739090E+02  0.96355739090E+02  0.00000000000E+00 0.  1.
         24    2    1    2    0    0 -0.44882278909E+01 -0.22226010150E+02 -0.33813825539E+02  0.89562065339E+02  0.79773736489E+02 0.  0.
         25    2    1    2    0    0  0.43840487042E+02 -0.11512993804E+02  0.16849034590E+03  0.21468459100E+03  0.12508373045E+03 0.  0.
        -24    2    1    2    0    0 -0.39352259151E+02  0.33739003954E+02  0.17060483250E+03  0.19374617470E+03  0.75793473651E+02 0.  0.
        -13    1    3    3    0    0 -0.29035102768E+02 -0.19739533436E+02 -0.49231567164E+02  0.60468451100E+02  0.00000000000E+00 0.  1.
         14    1    3    3    0    0  0.24546874877E+02 -0.24864767133E+01  0.15417741625E+02  0.29093614239E+02  0.00000000000E+00 0. -1.
         13    1    5    5    0    0 -0.29093612319E+01  0.23311230561E+02  0.14748937950E+03  0.14934856852E+03  0.00000000000E+00 0. -1.
        -14    1    5    5    0    0 -0.36442897919E+02  0.10427773393E+02  0.23115452999E+02  0.44397606175E+02  0.00000000000E+00 0.  1.
          5    1    4    4  501    0  0.41229968311E+02 -0.33945180785E+02  0.99451877858E+01  0.54484536756E+02  0.41800000000E+01 0. -1.
         -5    1    4    4    0  501  0.26105187315E+01  0.22432186981E+02  0.15854515811E+03  0.16020005425E+03  0.41800000000E+01 0. -1.
</event>
<event>
11    1  0.8453735E-009  0.1533728E+03  0.7561462E-02  0.1093481E+00
         22   -1    0    0    0    0  0.00000000000E+00  0.00000000000E+00  0.73291830005E+02  0.73291830005E+02  0.00000000000E+00 0.  1.
         22   -1    0    0    0    0 -0.00000000000E+00 -0.00000000000E+00 -0.10252797535E+04  0.10252797535E+04  0.00000000000E+00 0.  1.
        -24    2    1    2    0    0 -0.89326057071E+02  0.63824665962E+01 -0.56001603501E+03  0.57300446382E+03  0.81830775017E+02 0.  0.
         25    2    1    2    0    0  0.81652069720E+02  0.78684759851E+02 -0.36908028451E+03  0.40586484260E+03  0.12509061567E+03 0.  0.
         24    2    1    2    0    0  0.76739873504E+01 -0.85067226447E+02 -0.22891604013E+02  0.11970227711E+03  0.80680149446E+02 0.  0.
        -13    1    5    5    0    0 -0.23032647779E+01 -0.97610031588E+02 -0.30039085560E+02  0.10215365856E+03  0.00000000000E+00 0.  1.
         14    1    5    5    0    0  0.99772521283E+01  0.12542805140E+02  0.71474815470E+01  0.17548618558E+02  0.00000000000E+00 0. -1.
         11    1    3    3    0    0  0.73138898294E-01 -0.25894472396E+02 -0.10254904757E+03  0.10576784108E+03  0.00000000000E+00 0. -1.
        -12    1    3    3    0    0 -0.89399195969E+02  0.32276938992E+02 -0.45746698745E+03  0.46723662274E+03  0.00000000000E+00 0.  1.
          5    1    4    4  501    0 -0.22508834961E+02  0.22720402568E+02 -0.21665391077E+02  0.38855191605E+02  0.41800000000E+01 0.  1.
         -5    1    4    4    0  501  0.10416090468E+03  0.55964357283E+02 -0.34741489343E+03  0.36700965100E+03  0.41800000000E+01 0.  1.
</event>
<event>
11    1  0.8453735E-009  0.1713866E+03  0.7561462E-02  0.1076831E+00
         22   -1    0    0    0    0  0.00000000000E+00  0.00000000000E+00  0.59907152617E+03  0.59907152617E+03  0.00000000000E+00 0.  1.
         22   -1    0    0    0    0 -0.00000000000E+00 -0.00000000000E+00 -0.33468990391E+03  0.33468990391E+03  0.00000000000E+00 0.  1.
         24    2    1    2    0    0  0.37798769947E+02  0.20953070269E+01 -0.25382300069E+03  0.26750695588E+03  0.75503102231E+02 0.  0.
         25    2    1    2    0    0 -0.13741997608E+03  0.50093925197E+02  0.82617242452E+02  0.20944413868E+03  0.12509031661E+03 0.  0.
        -24    2    1    2    0    0  0.99621206134E+02 -0.52189232224E+02  0.43558738049E+03  0.45681033551E+03  0.79317185497E+02 0.  0.
        -13    1    3    3    0    0  0.18752637981E+02 -0.10899280752E+02 -0.23924925851E+03  0.24023043823E+03  0.00000000000E+00 0.  1.
         14    1    3    3    0    0  0.19046131966E+02  0.12994587779E+02 -0.14573742175E+02  0.27276517655E+02  0.00000000000E+00 0. -1.
         11    1    5    5    0    0  0.71861095005E+02 -0.35435489145E+02  0.15623038533E+03  0.17557797176E+03  0.00000000000E+00 0. -1.
        -12    1    5    5    0    0  0.27760111128E+02 -0.16753743079E+02  0.27935699516E+03  0.28123236375E+03  0.00000000000E+00 0.  1.
          5    1    4    4  501    0 -0.50705505198E+02 -0.36582438159E+02  0.20910735259E+01  0.62699027326E+02  0.41800000000E+01 0. -1.
         -5    1    4    4    0  501 -0.86714470882E+02  0.86676363357E+02  0.80526168927E+02  0.14674511136E+03  0.41800000000E+01 0. -1.
</event>
<event>
11    1  0.8453735E-009  0.1355502E+03  0.7561462E-02  0.1112632E+00
         22   -1    0    0    0    0  0.00000000000E+00  0.00000000000E+00  0.22632818963E+03  0.22632818963E+03  0.00000000000E+00 0.  1.
         22   -1    0    0    0    0 -0.00000000000E+00 -0.00000000000E+00 -0.32050667620E+03  0.32050667620E+03  0.00000000000E+00 0.  1.
        -24    2    1    2    0    0 -0.11669550295E+02  0.27892545501E+02 -0.17599737864E+03  0.19265351777E+03  0.72291964456E+02 0.  0.
         25    2    1    2    0    0 -0.39998454259E+02 -0.38255044715E+02 -0.85219333516E+02  0.16116485729E+03  0.12509377135E+03 0.  0.
         24    2    1    2    0    0  0.51668004554E+02  0.10362499214E+02  0.16703822558E+03  0.19301649077E+03  0.81096441468E+02 0.  0.
        -13    1    5    5    0    0  0.64257949941E+02  0.29950853986E+02  0.10445549955E+03  0.12624218460E+03  0.00000000000E+00 0.  1.
         14    1    5    5    0    0 -0.12589945387E+02 -0.19588354773E+02  0.62582726025E+02  0.66774306169E+02  0.00000000000E+00 0. -1.
         13    1    3    3    0    0  0.19797012071E+02  0.11378050043E+02 -0.13955717307E+02  0.26760862379E+02  0.00000000000E+00 0. -1.
        -14    1    3    3    0    0 -0.31466562366E+02  0.16514495458E+02 -0.16204166133E+03  0.16589265539E+03  0.00000000000E+00 0.  1.
          5    1    4    4  501    0  0.19882660630E+02  0.18800980957E+02  0.14735216616E+02  0.31359146790E+02  0.41800000000E+01 0.  1.
         -5    1    4    4    0  501 -0.59881114889E+02 -0.57056025672E+02 -0.99954550132E+02  0.12980571050E+03  0.41800000000E+01 0.  1.
</event>
<event>
11    1  0.8453735E-009  0.1605947E+03  0.7561462E-02  0.1086519E+00
         22   -1    0    0    0    0  0.00000000000E+00  0.00000000000E+00  0.78637435618E+03  0.78637435618E+03  0.00000000000E+00 0. -1.
         22   -1    0    0    0    0 -0.00000000000E+00 -0.00000000000E+00 -0.14598047940E+03  0.14598047940E+03  0.00000000000E+00 0. -1.
        -24    2    1    2    0    0 -0.94143226203E+02  0.28237452025E+02 -0.79830422524E+02  0.15140896297E+03  0.83014920173E+02 0.  0.
         25    2    1    2    0    0  0.13485393469E+03  0.20065730405E+02  0.33483484567E+03  0.38256000171E+03  0.12509821660E+03 0.  0.
         24    2    1    2    0    0 -0.40710708482E+02 -0.48303182431E+02  0.38538945364E+03  0.39838587090E+03  0.78712844811E+02 0.  0.
        -13    1    5    5    0    0 -0.28357573249E+02 -0.25965394355E+02  0.55540646348E+02  0.67550847969E+02  0.00000000000E+00 0.  1.
         14    1    5    5    0    0 -0.12353135234E+02 -0.22337788076E+02  0.32984880729E+03  0.33083502293E+03  0.00000000000E+00 0. -1.
         13    1    3    3    0    0 -0.10484696709E+03  0.30916195052E+02 -0.85710245625E+02  0.13890624115E+03  0.00000000000E+00 0. -1.
        -14    1    3    3    0    0  0.10703740891E+02 -0.26787430268E+01  0.58798231011E+01  0.12502721823E+02  0.00000000000E+00 0.  1.
          5    1    4    4  501    0  0.65739790443E+02  0.41961893428E+02  0.28236563693E+03  0.29296816528E+03  0.41800000000E+01 0. -1.
         -5    1    4    4    0  501  0.69114144242E+02 -0.21896163023E+02  0.52469208738E+02  0.89591836431E+02  0.41800000000E+01 0. -1.
</event>
<event>
11    1  0.8453735E-009  0.2063614E+03  0.7561462E-02  0.1050114E+00
         22   -1    0    0    0    0  0.00000000000E+00  0.00000000000E+00  0.49784803057E+03  0.49784803057E+03  0.00000000000E+00 0.  1.
         22   -1    0    0    0    0 -0.00000000000E+00 -0.00000000000E+00 -0.91607450575E+03  0.91607450575E+03  0.00000000000E+00 0.  1.
         24    2    1    2    0    0  0.34632316562E+02 -0.16388286939E+03 -0.77314258323E+03  0.79537334023E+03  0.82536683506E+02 0.  0.
         25    2    1    2    0    0  0.36863284102E+01  0.14550909295E+03 -0.54160366437E+02  0.19941836302E+03  0.12509137887E+03 0.  0.
        -24    2    1    2    0    0 -0.38318644972E+02  0.18373776442E+02  0.40907647448E+03  0.41913083307E+03  0.80753817475E+02 0.  0.
        -11    1    3    3    0    0  0.22333170580E+02 -0.12582442693E+03 -0.70392773933E+03  0.71543330864E+03  0.00000000000E+00 0.  1.
         12    1    3    3    0    0  0.12299145982E+02 -0.38058442466E+02 -0.69214843901E+02  0.79940031593E+02  0.00000000000E+00 0. -1.
         11    1    5    5    0    0  0.17037530054E+01  0.31075374768E+02  0.60510466481E+02  0.68044825262E+02  0.00000000000E+00 0. -1.
        -12    1    5    5    0    0 -0.40022397978E+02 -0.12701598326E+02  0.34856600800E+03  0.35108600780E+03  0.00000000000E+00 0.  1.
          5    1    4    4  501    0  0.58576143773E+02  0.66686355423E+02 -0.52607984553E+02  0.10326328998E+03  0.41800000000E+01 0.  1.
         -5    1    4    4    0  501 -0.54889815362E+02  0.78822737527E+02 -0.15523818845E+01  0.96155073040E+02  0.41800000000E+01 0.  1.
</event>
<event>
11    1  0.8453735E-009  0.1554732E+03  0.7561462E-02  0.1091414E+00
         22   -1    0    0    0    0  0.00000000000E+00  0.00000000000E+00  0.21525426112E+04  0.21525426112E+04  0.00000000000E+00 0. -1.
         22   -1    0    0    0    0 -0.00000000000E+00 -0.00000000000E+00 -0.75994988571E+02  0.75994988571E+02  0.00000000000E+00 0. -1.
         24    2    1    2    0    0  0.56495927410E+02  0.31857907047E+02 -0.90118377865E+01  0.10504545107E+03  0.82137795892E+02 0.  0.
         25    2    1    2    0    0 -0.91590550181E+02 -0.11037507271E+03  0.52578825093E+03  0.55916123849E+03  0.12504607254E+03 0.  0.
        -24    2    1    2    0    0  0.35094622771E+02  0.78517165661E+02  0.15597712095E+04  0.15643309102E+04  0.82755017096E+02 0.  0.
        -11    1    3    3    0    0  0.36947525050E+02 -0.11611934618E+02 -0.33726341596E+02  0.51355844365E+02  0.00000000000E+00 0.  1.
         12    1    3    3    0    0  0.19548402360E+02  0.43469841665E+02  0.24714503810E+02  0.53689606701E+02  0.00000000000E+00 0. -1.
         11    1    5    5    0    0  0.54528878645E+01  0.33339953473E+02  0.12045486098E+04  0.12050222570E+04  0.00000000000E+00 0. -1.
        -12    1    5    5    0    0  0.29641734906E+02  0.45177212188E+02  0.35522259974E+03  0.35930865327E+03  0.00000000000E+00 0.  1.
          5    1    4    4  501    0 -0.18683301082E+02 -0.99273356534E+02  0.40625547786E+03  0.41864692850E+03  0.41800000000E+01 0. -1.
         -5    1    4    4    0  501 -0.72907249099E+02 -0.11101716174E+02  0.11953277307E+03  0.14051430999E+03  0.41800000000E+01 0. -1.
</event>
<event>
11    1  0.8453735E-009  0.1574121E+03  0.7561462E-02  0.1089537E+00
         22   -1    0    0    0    0  0.00000000000E+00  0.00000000000E+00  0.34975654598E+03  0.34975654598E+03  0.00000000000E+00 0. -1.
         22   -1    0    0    0    0 -0.00000000000E+00 -0.00000000000E+00 -0.19909167785E+04  0.19909167785E+04  0.00000000000E+00 0.  1.
         24    2    1    2    0    0  0.43611237065E+02  0.84159740827E+02 -0.19085279242E+04  0.19126304198E+04  0.81801486698E+02 0.  0.
         25    2    1    2    0    0 -0.95664810790E+02 -0.11833060737E+03  0.75043106768E+02  0.21079072542E+03  0.12508946153E+03 0.  0.
        -24    2    1    2    0    0  0.52053573725E+02  0.34170866540E+02  0.19232458497E+03  0.21725217922E+03  0.79577262688E+02 0.  0.
        -13    1    3    3    0    0  0.65621524719E+02  0.70136745523E+02 -0.13001421349E+04  0.13036851301E+04  0.00000000000E+00 0.  1.
         14    1    3    3    0    0 -0.22010287654E+02  0.14022995304E+02 -0.60838578932E+03  0.60894528967E+03  0.00000000000E+00 0. -1.
         11    1    5    5    0    0  0.22420668481E+01 -0.15168773363E+02  0.10080099223E+03  0.10196057367E+03  0.00000000000E+00 0. -1.
        -12    1    5    5    0    0  0.49811506877E+02  0.49339639903E+02  0.91523592740E+02  0.11529160555E+03  0.00000000000E+00 0.  1.
          5    1    4    4  501    0 -0.47966004522E+01 -0.16443464899E+02 -0.32482807904E+02  0.36959438890E+02  0.41800000000E+01 0. -1.
         -5    1    4    4    0  501 -0.90868210338E+02 -0.10188714247E+03  0.10752591467E+03  0.17383128653E+03  0.41800000000E+01 0. -1.
</event>
<event>
11    1  0.8453735E-009  0.1751443E+03  0.7561462E-02  0.1073640E+00
         22   -1    0    0    0    0  0.00000000000E+00  0.00000000000E+00  0.14117670759E+04  0.14117670759E+04  0.00000000000E+00 0.  1.
         22   -1    0    0    0    0 -0.00000000000E+00 -0.00000000000E+00 -0.83546844702E+03  0.83546844702E+03  0.00000000000E+00 0.  1.
        -24    2    1    2    0    0 -0.70359690307E+02 -0.97806244628E+02 -0.74906766405E+03  0.76302270113E+03  0.81146346845E+02 0.  0.
         25    2    1    2    0    0  0.87206861013E+02  0.13925776821E+03  0.59673850449E+02  0.21495648435E+03  0.12509020393E+03 0.  0.
         24    2    1    2    0    0 -0.16847170706E+02 -0.41451523586E+02  0.12656924425E+04  0.12692563375E+04  0.83858423523E+02 0.  0.
        -13    1    5    5    0    0  0.31062710226E+02 -0.33820834050E+02  0.68769290495E+03  0.68922439909E+03  0.00000000000E+00 0.  1.
         14    1    5    5    0    0 -0.47909880932E+02 -0.76306895360E+01  0.57799953757E+03  0.58003193838E+03  0.00000000000E+00 0. -1.
         11    1    3    3    0    0  0.10319117524E+02 -0.50771027574E+02 -0.27834219500E+03  0.28312286899E+03  0.00000000000E+00 0. -1.
        -12    1    3    3    0    0 -0.80678807831E+02 -0.47035217054E+02 -0.47072546906E+03  0.47989983215E+03  0.00000000000E+00 0.  1.
          5    1    4    4  501    0  0.85084471203E+02  0.26104957816E+02  0.47735461763E+02  0.10107909167E+03  0.41800000000E+01 0.  1.
         -5    1    4    4    0  501  0.21223898104E+01  0.11315281040E+03  0.11938388686E+02  0.11387739268E+03  0.41800000000E+01 0.  1.
</event>
<event>
11    1  0.8453735E-009  0.1524777E+03  0.7561462E-02  0.1094374E+00
         22   -1    0    0    0    0  0.00000000000E+00  0.00000000000E+00  0.10008101812E+04  0.10008101812E+04  0.00000000000E+00 0. -1.
         22   -1    0    0    0    0 -0.00000000000E+00 -0.00000000000E+00 -0.29402131564E+03  0.29402131564E+03  0.00000000000E+00 0.  1.
         24    2    1    2    0    0 -0.91889411553E+01  0.24359494432E+02 -0.21086945382E+03  0.22735850498E+03  0.80920588380E+02 0.  0.
         25    2    1    2    0    0 -0.21219039496E+01 -0.10945513510E+03  0.27295688889E+02  0.16846592108E+03  0.12510308892E+03 0.  0.
        -24    2    1    2    0    0  0.11310845105E+02  0.85095640665E+02  0.89036263050E+03  0.89900707079E+03  0.89993867909E+02 0.  0.
        -11    1    3    3    0    0 -0.19635220328E+02 -0.16962366601E+02 -0.15463555201E+03  0.15679737786E+03  0.00000000000E+00 0.  1.
         12    1    3    3    0    0  0.10446279173E+02  0.41321861033E+02 -0.56233901810E+02  0.70561127121E+02  0.00000000000E+00 0. -1.
         11    1    5    5    0    0 -0.28378984479E+02  0.12190172889E+02  0.43826729889E+03  0.43935429024E+03  0.00000000000E+00 0. -1.
        -12    1    5    5    0    0  0.39689829584E+02  0.72905467776E+02  0.45209533161E+03  0.45965278055E+03  0.00000000000E+00 0.  1.
          5    1    4    4  501    0  0.10088274326E+00 -0.39438686970E+02 -0.50161869818E+02  0.63946116308E+02  0.41800000000E+01 0.  1.
         -5    1    4    4    0  501 -0.22227866929E+01 -0.70016448127E+02  0.77457558707E+02  0.10451980477E+03  0.41800000000E+01 0.  1.
</event>
<event>
11    1  0.8453735E-009  0.1392342E+03  0.7561462E-02  0.1108417E+00
         22   -1    0    0    0    0  0.00000000000E+00  0.00000000000E+00  0.16697718814E+04  0.16697718814E+04  0.00000000000E+00 0.  1.
         22   -1    0    0    0    0 -0.00000000000E+00 -0.00000000000E+00 -0.61038556947E+03  0.61038556947E+03  0.00000000000E+00 0.  1.
         24    2    1    2    0    0 -0.55662055065E+01  0.52939756916E+02 -0.57630274755E+03  0.58417454477E+03  0.79381618934E+02 0.  0.
         25    2    1    2    0    0 -0.17059898596E+01  0.10772297645E+02  0.10994887496E+03  0.16689075349E+03  0.12507923767E+03 0.  0.
        -24    2    1    2    0    0  0.72721953660E+01 -0.63712054561E+02  0.15257401845E+04  0.15290921526E+04  0.78278923075E+02 0.  0.
        -13    1    3    3    0    0 -0.29008338738E+01  0.32125523010E+02 -0.54796295971E+03  0.54891153138E+03  0.00000000000E+00 0.  1.
         14    1    3    3    0    0 -0.26653716327E+01  0.20814233906E+02 -0.28339787836E+02  0.35263013393E+02  0.00000000000E+00 0. -1.
         13    1    5    5    0    0 -0.70286479071E+00  0.15749518366E+02  0.49973653838E+03  0.49998514892E+03  0.00000000000E+00 0. -1.
        -14    1    5    5    0    0  0.79750601567E+01 -0.79461572927E+02  0.10260036461E+04  0.10291070037E+04  0.00000000000E+00 0.  1.
          5    1    4    4  501    0 -0.24328722347E+02 -0.38926206990E+02  0.23460465848E+01  0.46153143514E+02  0.41800000000E+01 0. -1.
         -5    1    4    4    0  501  0.22622732487E+02  0.49698504635E+02  0.10760282838E+03  0.12073760998E+03  0.41800000000E+01 0. -1.
</event>
<event>
11    1  0.8453735E-009  0.1511196E+03  0.7561462E-02  0.1095740E+00
         22   -1    0    0    0    0  0.00000000000E+00  0.00000000000E+00  0.10112193056E+04  0.10112193056E+04  0.00000000000E+00 0.  1.
         22   -1    0    0    0    0 -0.00000000000E+00 -0.00000000000E+00 -0.18294460591E+03  0.18294460591E+03  0.00000000000E+00 0. -1.
         24    2    1    2    0    0  0.15221416459E+02 -0.40946913445E+01 -0.15088003923E+03  0.17199138849E+03  0.81041924079E+02 0.  0.
         25    2    1    2    0    0  0.33691886948E+02  0.74839236826E+02  0.32843762981E+03  0.36090891385E+03  0.12509161767E+03 0.  0.
        -24    2    1    2    0    0 -0.48913303408E+02 -0.70744545482E+02  0.65071710915E+03  0.66126360921E+03  0.80246512491E+02 0.  0.
        -13    1    3    3    0    0  0.10782125564E+02 -0.12436975214E+02  0.39060143855E+01  0.16917137244E+02  0.00000000000E+00 0.  1.
         14    1    3    3    0    0  0.44392908950E+01  0.83422838690E+01 -0.15478605362E+03  0.15507425124E+03  0.00000000000E+00 0. -1.
         13    1    5    5    0    0 -0.42501210612E+02 -0.29929601408E+02  0.14822267098E+03  0.15707353099E+03  0.00000000000E+00 0. -1.
        -14    1    5    5    0    0 -0.64120927953E+01 -0.40814944074E+02  0.50249443817E+03  0.50419007823E+03  0.00000000000E+00 0.  1.
          5    1    4    4  501    0 -0.37577411192E+02  0.26839649995E+02  0.20673638760E+03  0.21187221385E+03  0.41800000000E+01 0.  1.
         -5    1    4    4    0  501  0.71269298140E+02  0.47999586831E+02  0.12170124221E+03  0.14903670001E+03  0.41800000000E+01 0.  1.
</event>
<event>
11    1  0.8453735E-009  0.1333398E+03  0.7561462E-02  0.1115232E+00
         22   -1    0    0    0    0  0.00000000000E+00  0.00000000000E+00  0.43307585406E+03  0.43307585406E+03  0.00000000000E+00 0. -1.
         22   -1    0    0    0    0 -0.00000000000E+00 -0.00000000000E+00 -0.41165533405E+03  0.41165533405E+03  0.00000000000E+00 0.  1.
         24    2    1    2    0    0  0.45342837230E+01 -0.16652487713E+02 -0.29003511699E+03  0.30121922759E+03  0.79465646091E+02 0.  0.
         25    2    1    2    0    0  0.41795487454E+02  0.13527102671E+02 -0.70963545525E+02  0.15037461420E+03  0.12508738755E+03 0.  0.
        -24    2    1    2    0    0 -0.46329771177E+02  0.31253850419E+01  0.38241918253E+03  0.39313734632E+03  0.78462259558E+02 0.  0.
        -11    1    3    3    0    0  0.33622917888E+02 -0.32114266603E+02 -0.20037702428E+03  0.20570070147E+03  0.00000000000E+00 0.  1.
         12    1    3    3    0    0 -0.29088634165E+02  0.15461778890E+02 -0.89658092709E+02  0.95518526120E+02  0.00000000000E+00 0. -1.
         11    1    5    5    0    0 -0.59865677566E+02 -0.19352557550E+02  0.22877038562E+03  0.23726422017E+03  0.00000000000E+00 0. -1.
        -12    1    5    5    0    0  0.13535906389E+02  0.22477942592E+02  0.15364879691E+03  0.15587312615E+03  0.00000000000E+00 0.  1.
          5    1    4    4  501    0  0.48917526255E+02  0.28852095022E+02  0.18000628993E+02  0.59723218317E+02  0.41800000000E+01 0. -1.
         -5    1    4    4    0  501 -0.71220388003E+01 -0.15324992351E+02 -0.88964174518E+02  0.90651395880E+02  0.41800000000E+01 0. -1.
</event>
<event>
11    1  0.8453735E-009  0.1425137E+03  0.7561462E-02  0.1104783E+00
         22   -1    0    0    0    0  0.00000000000E+00  0.00000000000E+00  0.69006694202E+02  0.69006694202E+02  0.00000000000E+00 0. -1.
         22   -1    0    0    0    0 -0.00000000000E+00 -0.00000000000E+00 -0.13906428103E+04  0.13906428103E+04  0.00000000000E+00 0.  1.
         24    2    1    2    0    0 -0.17578734069E+02 -0.31967684601E+02 -0.11212401023E+04  0.11247052002E+04  0.80321078688E+02 0.  0.
         25    2    1    2    0    0 -0.33094462879E+01  0.90057545961E+02 -0.16917781807E+03  0.22888929929E+03  0.12509141929E+03 0.  0.
        -24    2    1    2    0    0  0.20888180357E+02 -0.58089861359E+02 -0.31218195785E+02  0.10605500504E+03  0.80388682505E+02 0.  0.
        -11    1    3    3    0    0  0.83318051689E+01 -0.33962983780E+02 -0.10044596356E+04  0.10050681881E+04  0.00000000000E+00 0.  1.
         12    1    3    3    0    0 -0.25910539238E+02  0.19952991785E+01 -0.11678046667E+03  0.11963701208E+03  0.00000000000E+00 0. -1.
         13    1    5    5    0    0 -0.25559692848E+02 -0.73410614234E+00  0.85098541274E+00  0.25584389507E+02  0.00000000000E+00 0. -1.
        -14    1    5    5    0    0  0.46447873204E+02 -0.57355755217E+02 -0.32069181198E+02  0.80470615534E+02  0.00000000000E+00 0.  1.
          5    1    4    4  501    0 -0.15312378558E+02  0.11939827917E+03 -0.11850489599E+03  0.16897130164E+03  0.41800000000E+01 0.  1.
         -5    1    4    4    0  501  0.12002932270E+02 -0.29340733213E+02 -0.50672922086E+02  0.59917997641E+02  0.41800000000E+01 0.  1.
</event>
<event>
11    1  0.8453735E-009  0.1535294E+03  0.7561462E-02  0.1093326E+00
         22   -1    0    0    0    0  0.00000000000E+00  0.00000000000E+00  0.80915997325E+03  0.80915997325E+03  0.00000000000E+00 0.  1.
         22   -1    0    0    0    0 -0.00000000000E+00 -0.00000000000E+00 -0.16380426659E+03  0.16380426659E+03  0.00000000000E+00 0. -1.
         24    2    1    2    0    0 -0.81713879242E+02  0.28933874517E+02 -0.11041855697E+03  0.16231966987E+03  0.81492885258E+02 0.  0.
         25    2    1    2    0    0  0.10940448930E+03 -0.41685780228E+02  0.28868560413E+03  0.33569920675E+03  0.12509009884E+03 0.  0.
        -24    2    1    2    0    0 -0.27690610061E+02  0.12751905711E+02  0.46708865951E+03  0.47494536321E+03  0.80448127444E+02 0.  0.
        -13    1    3    3    0    0  0.11340027606E+02 -0.82998697996E+01 -0.32368411240E+02  0.35287364750E+02  0.00000000000E+00 0.  1.
         14    1    3    3    0    0 -0.93053906848E+02  0.37233744317E+02 -0.78050145735E+02  0.12703230512E+03  0.00000000000E+00 0. -1.
         11    1    5    5    0    0  0.33930592416E+01 -0.39017636459E+01 -0.12185057179E+01  0.53123786339E+01  0.00000000000E+00 0. -1.
        -12    1    5    5    0    0 -0.31083669303E+02  0.16653669357E+02  0.46830716523E+03  0.46963298458E+03  0.00000000000E+00 0.  1.
          5    1    4    4  501    0  0.72197198084E+02  0.15104310868E+02  0.54420968131E+02  0.91758867638E+02  0.41800000000E+01 0.  1.
         -5    1    4    4    0  501  0.37207291220E+02 -0.56790091097E+02  0.23426463600E+03  0.24394033911E+03  0.41800000000E+01 0.  1.
</event>
<event>
11    1  0.8453735E-009  0.1426346E+03  0.7561462E-02  0.1104652E+00
         22   -1    0    0    0    0  0.00000000000E+00  0.00000000000E+00  0.22543200044E+04  0.22543200044E+04  0.00000000000E+00 0.  1.
         22   -1    0    0    0    0 -0.00000000000E+00 -0.00000000000E+00 -0.22078508010E+04  0.22078508010E+04  0.00000000000E+00 0.  1.
        -24    2    1    2    0    0  0.30001783050E+02  0.51193771459E+01 -0.21611120484E+04  0.21627771254E+04  0.79204124773E+02 0.  0.
         25    2    1    2    0    0 -0.46941980132E+02 -0.71169940818E+02  0.83740677963E+02  0.17299814738E+03  0.12508856014E+03 0.  0.
         24    2    1    2    0    0  0.16940197082E+02  0.66050563672E+02  0.21238405738E+04  0.21263955326E+04  0.78800577683E+02 0.  0.
        -11    1    5    5    0    0  0.18674818817E+00  0.87649512845E+01  0.14205055443E+04  0.14205325975E+04  0.00000000000E+00 0.  1.
         12    1    5    5    0    0  0.16753448894E+02  0.57285612387E+02  0.70333502951E+03  0.70586293512E+03  0.00000000000E+00 0. -1.
         13    1    3    3    0    0  0.45531850913E+02 -0.16682515962E+02 -0.84315966476E+03  0.84455294450E+03  0.00000000000E+00 0. -1.
        -14    1    3    3    0    0 -0.15530067863E+02  0.21801893108E+02 -0.13179523836E+04  0.13182241809E+04  0.00000000000E+00 0.  1.
          5    1    4    4  501    0  0.41145012886E+02 -0.31280246279E+02  0.45304256852E+02  0.68857199925E+02  0.41800000000E+01 0. -1.
         -5    1    4    4    0  501 -0.88086993018E+02 -0.39889694539E+02  0.38436421111E+02  0.10414094746E+03  0.41800000000E+01 0. -1.
</event>
<event>
11    1  0.8453735E-009  0.1347109E+03  0.7561462E-02  0.1113613E+00
         22   -1    0    0    0    0  0.00000000000E+00  0.00000000000E+00  0.37595549408E+03  0.37595549408E+03  0.00000000000E+00 0. -1.
         22   -1    0    0    0    0 -0.00000000000E+00 -0.00000000000E+00 -0.10550746974E+04  0.10550746974E+04  0.00000000000E+00 0. -1.
         24    2    1    2    0    0 -0.35423524418E+02 -0.36378095938E+02 -0.95471349803E+03  0.95941915396E+03  0.80181404988E+02 0.  0.
         25    2    1    2    0    0  0.48198557627E+02 -0.77526138955E+00 -0.42849478199E+02  0.14074033479E+03  0.12509221425E+03 0.  0.
        -24    2    1    2    0    0 -0.12775033209E+02  0.37153357328E+02  0.31844377290E+03  0.33087070274E+03  0.80780022271E+02 0.  0.
        -11    1    3    3    0    0  0.11122164005E+02 -0.45661919362E+02 -0.42851970992E+03  0.43108914995E+03  0.00000000000E+00 0.  1.
         12    1    3    3    0    0 -0.46545688423E+02  0.92838234236E+01 -0.52619378811E+03  0.52833000400E+03  0.00000000000E+00 0. -1.
         13    1    5    5    0    0 -0.41977195539E+02  0.23717354781E+02  0.25744064201E+03  0.26191655546E+03  0.00000000000E+00 0. -1.
        -14    1    5    5    0    0  0.29202162330E+02  0.13436002546E+02  0.61003130887E+02  0.68954147281E+02  0.00000000000E+00 0.  1.
          5    1    4    4  501    0 -0.11310124727E+02  0.21227808512E+02  0.33455471816E+02  0.41415936184E+02  0.41800000000E+01 0.  1.
         -5    1    4    4    0  501  0.59508682355E+02 -0.22003069902E+02 -0.76304950015E+02  0.99324398601E+02  0.41800000000E+01 0.  1.
</event>
<event>
11    1  0.8453735E-009  0.1773636E+03  0.7561462E-02  0.1071796E+00
         22   -1    0    0    0    0  0.00000000000E+00  0.00000000000E+00  0.65086916003E+03  0.65086916003E+03  0.00000000000E+00 0.  1.
         22   -1    0    0    0    0 -0.00000000000E+00 -0.00000000000E+00 -0.33301578798E+03  0.33301578798E+03  0.00000000000E+00 0. -1.
        -24    2    1    2    0    0 -0.13593568809E+02  0.26033250116E+01 -0.24308223740E+03  0.25944024856E+03  0.89603046949E+02 0.  0.
         25    2    1    2    0    0  0.93074690485E+02 -0.98265338323E+02  0.47761526644E+02  0.19038588464E+03  0.12508655771E+03 0.  0.
         24    2    1    2    0    0 -0.79481121677E+02  0.95662013311E+02  0.51317408280E+03  0.53405881480E+03  0.80016928941E+02 0.  0.
        -11    1    5    5    0    0 -0.68714996135E+02  0.10704154218E+03  0.48884277288E+03  0.50512067770E+03  0.00000000000E+00 0.  1.
         12    1    5    5    0    0 -0.10766125541E+02 -0.11379528868E+02  0.24331309923E+02  0.28938137103E+02  0.00000000000E+00 0. -1.
         11    1    3    3    0    0 -0.30795378183E+02  0.12067008881E+01 -0.23992392541E+03  0.24189522821E+03  0.00000000000E+00 0. -1.
        -12    1    3    3    0    0  0.17201809374E+02  0.13966241235E+01 -0.31583119851E+01  0.17545020356E+02  0.00000000000E+00 0.  1.
          5    1    4    4  501    0  0.10466538307E+02 -0.63760129802E+02  0.72705008644E+02  0.97357040107E+02  0.41800000000E+01 0. -1.
         -5    1    4    4    0  501  0.82608152178E+02 -0.34505208520E+02 -0.24943482000E+02  0.93028844535E+02  0.41800000000E+01 0. -1.
</event>
<event>
11    1  0.8453735E-009  0.1335915E+03  0.7561462E-02  0.1114933E+00
         22   -1    0    0    0    0  0.00000000000E+00  0.00000000000E+00  0.39175320586E+03  0.39175320586E+03  0.00000000000E+00 0. -1.
         22   -1    0    0    0    0 -0.00000000000E+00 -0.00000000000E+00 -0.30942025188E+03  0.30942025188E+03  0.00000000000E+00 0. -1.
        -24    2    1    2    0    0 -0.20196518663E+02  0.32309516202E+02 -0.24932602334E+03  0.26508730469E+03  0.81584367330E+02 0.  0.
         25    2    1    2    0    0  0.63861077001E+02 -0.23460485212E+02  0.70126884981E+02  0.15872678889E+03  0.12509109478E+03 0.  0.
         24    2    1    2    0    0 -0.43664558337E+02 -0.88490309900E+01  0.26153209233E+03  0.27735936416E+03  0.80896740130E+02 0.  0.
        -13    1    5    5    0    0 -0.40513479527E+02  0.31004077793E+02  0.16971076260E+03  0.17721269087E+03  0.00000000000E+00 0.  1.
         14    1    5    5    0    0 -0.31510788101E+01 -0.39853108783E+02  0.91821329734E+02  0.10014667329E+03  0.00000000000E+00 0. -1.
         13    1    3    3    0    0 -0.11015950358E+02  0.55057574114E+02 -0.21899213335E+03  0.22607574416E+03  0.00000000000E+00 0. -1.
        -14    1    3    3    0    0 -0.91805683054E+01 -0.22748057912E+02 -0.30333889987E+02  0.39011560530E+02  0.00000000000E+00 0.  1.
          5    1    4    4  501    0  0.77213998410E+02 -0.63366689863E+02  0.52392256208E+02  0.11287054463E+03  0.41800000000E+01 0.  1.
         -5    1    4    4    0  501 -0.13352921409E+02  0.39906204651E+02  0.17734628773E+02  0.45856244259E+02  0.41800000000E+01 0.  1.
</event>
<event>
11    1  0.8453735E-009  0.3128238E+03  0.7561462E-02  0.9949054E-01
         22   -1    0    0    0    0  0.00000000000E+00  0.00000000000E+00  0.66985363913E+02  0.66985363913E+02  0.00000000000E+00 0.  1.
         22   -1    0    0    0    0 -0.00000000000E+00 -0.00000000000E+00 -0.20727917274E+04  0.20727917274E+04  0.00000000000E+00 0. -1.
        -24    2    1    2    0    0 -0.57921989255E+02 -0.36616194958E+02 -0.52617649189E+03  0.53656022861E+03  0.79620824767E+02 0.  0.
         25    2    1    2    0    0 -0.18814691456E+03 -0.16249041996E+03 -0.84345646973E+03  0.88818315477E+03  0.12509237408E+03 0.  0.
         24    2    1    2    0    0  0.24606890381E+03  0.19910661492E+03 -0.63617340181E+03  0.71503370788E+03  0.79770023819E+02 0.  0.
        -13    1    5    5    0    0  0.10539534452E+03  0.12265041634E+03 -0.37949041845E+03  0.41250973440E+03  0.00000000000E+00 0.  1.
         14    1    5    5    0    0  0.14067355929E+03  0.76456198587E+02 -0.25668298336E+03  0.30252397348E+03  0.00000000000E+00 0. -1.
         11    1    3    3    0    0 -0.66084302386E+01  0.58039118636E+01 -0.31531906685E+03  0.31544170723E+03  0.00000000000E+00 0. -1.
        -12    1    3    3    0    0 -0.51313559016E+02 -0.42420106821E+02 -0.21085742505E+03  0.22111852138E+03  0.00000000000E+00 0.  1.
          5    1    4    4  501    0 -0.11867515144E+03 -0.35294204311E+02 -0.27656159138E+03  0.30304002814E+03  0.41800000000E+01 0.  1.
         -5    1    4    4    0  501 -0.69471763117E+02 -0.12719621565E+03 -0.56689487835E+03  0.58514312663E+03  0.41800000000E+01 0.  1.
</event>
<event>
11    1  0.8453735E-009  0.1250917E+03  0.7561462E-02  0.1125451E+00
         22   -1    0    0    0    0  0.00000000000E+00  0.00000000000E+00  0.17593149279E+04  0.17593149279E+04  0.00000000000E+00 0.  1.
         22   -1    0    0    0    0 -0.00000000000E+00 -0.00000000000E+00 -0.23827083234E+02  0.23827083234E+02  0.00000000000E+00 0.  1.
        -24    2    1    2    0    0  0.55402975831E+01 -0.10034770161E+01  0.11193975915E+03  0.13930639825E+03  0.82728840504E+02 0.  0.
         25    2    1    2    0    0  0.18506761464E+02 -0.14123015243E+01  0.45036067714E+03  0.46777857549E+03  0.12509021286E+03 0.  0.
         24    2    1    2    0    0 -0.24047059047E+02  0.24157785404E+01  0.11731874084E+04  0.11760570374E+04  0.78468866472E+02 0.  0.
        -11    1    5    5    0    0 -0.18709303916E+02 -0.37139898123E+02  0.66974837871E+03  0.67103822608E+03  0.00000000000E+00 0.  1.
         12    1    5    5    0    0 -0.53377551313E+01  0.39555676664E+02  0.50343902965E+03  0.50501881130E+03  0.00000000000E+00 0. -1.
         13    1    3    3    0    0  0.24588989876E+02 -0.63758021359E+01  0.11629847116E+03  0.11904034472E+03  0.00000000000E+00 0. -1.
        -14    1    3    3    0    0 -0.19048692293E+02  0.53723251198E+01 -0.43587120137E+01  0.20266053530E+02  0.00000000000E+00 0.  1.
          5    1    4    4  501    0  0.62868514851E+02 -0.49580886082E+01  0.37395518597E+03  0.37925846901E+03  0.41800000000E+01 0. -1.
         -5    1    4    4    0  501 -0.44361753387E+02  0.35457870839E+01  0.76405491169E+02  0.88520106475E+02  0.41800000000E+01 0. -1.
</event>
<event>
11    1  0.8453735E-009  0.9641319E+03  0.7561462E-02  0.8713898E-01
         22   -1    0    0    0    0  0.00000000000E+00  0.00000000000E+00  0.10119454373E+04  0.10119454373E+04  0.00000000000E+00 0. -1.
         22   -1    0    0    0    0 -0.00000000000E+00 -0.00000000000E+00 -0.14679354287E+04  0.14679354287E+04  0.00000000000E+00 0. -1.
         24    2    1    2    0    0  0.56764148714E+02 -0.29508026722E+01 -0.32920771601E+03  0.34336996273E+03  0.79336846482E+02 0.  0.
         25    2    1    2    0    0 -0.74663006959E+03  0.64672527009E+03 -0.50513166073E+03  0.11164747345E+04  0.12509117643E+03 0.  0.
        -24    2    1    2    0    0  0.68986592088E+03 -0.64377446742E+03  0.37834938538E+03  0.10200361688E+04  0.83456422485E+02 0.  0.
        -11    1    3    3    0    0 -0.91796791976E+01  0.59121750385E+01 -0.17599290177E+03  0.17633128423E+03  0.00000000000E+00 0.  1.
         12    1    3    3    0    0  0.65943827912E+02 -0.88629777106E+01 -0.15321481424E+03  0.16703867850E+03  0.00000000000E+00 0. -1.
         13    1    5    5    0    0  0.50340857509E+03 -0.47161998328E+03  0.31577877902E+03  0.75865791988E+03  0.00000000000E+00 0. -1.
        -14    1    5    5    0    0  0.18645734578E+03 -0.17215448414E+03  0.62570606357E+02  0.26137824887E+03  0.00000000000E+00 0.  1.
          5    1    4    4  501    0 -0.62543824255E+02  0.50598690904E+02 -0.83111876873E+02  0.11574547054E+03  0.41800000000E+01 0.  1.
         -5    1    4    4    0  501 -0.68408624534E+03  0.59612657919E+03 -0.42201978386E+03  0.10007292640E+04  0.41800000000E+01 0.  1.
</event>
<event>
11    1  0.8453735E-009  0.3181987E+03  0.7561462E-02  0.9927703E-01
         22   -1    0    0    0    0  0.00000000000E+00  0.00000000000E+00  0.29654691440E+04  0.29654691440E+04  0.00000000000E+00 0. -1.
         22   -1    0    0    0    0 -0.00000000000E+00 -0.00000000000E+00 -0.14115534360E+03  0.14115534360E+03  0.00000000000E+00 0.  1.
        -24    2    1    2    0    0  0.27043538145E+02 -0.42047599303E+02 -0.72291618845E+02  0.11930443654E+03  0.80672900404E+02 0.  0.
         25    2    1    2    0    0 -0.21016546622E+02 -0.26025137596E+03  0.56562452092E+03  0.63540642442E+03  0.12505099604E+03 0.  0.
         24    2    1    2    0    0 -0.60269915235E+01  0.30229897526E+03  0.23309808983E+04  0.23519136266E+04  0.81269697689E+02 0.  0.
        -11    1    5    5    0    0 -0.32968353168E+02  0.53776664913E+02  0.48377696296E+03  0.48787190111E+03  0.00000000000E+00 0.  1.
         12    1    5    5    0    0  0.26941361645E+02  0.24852231035E+03  0.18472039353E+04  0.18640417255E+04  0.00000000000E+00 0. -1.
         13    1    3    3    0    0  0.18205497012E+02  0.16655334196E+02  0.13536339481E+01  0.24711790779E+02  0.00000000000E+00 0. -1.
        -14    1    3    3    0    0  0.88380411331E+01 -0.58702933500E+02 -0.73645252793E+02  0.94592645758E+02  0.00000000000E+00 0.  1.
          5    1    4    4  501    0 -0.58578472760E+02 -0.23642190108E+03  0.45521122126E+03  0.51629592401E+03  0.41800000000E+01 0.  1.
         -5    1    4    4    0  501  0.37561926138E+02 -0.23829474882E+02  0.11041329966E+03  0.11911050042E+03  0.41800000000E+01 0.  1.
</event>
<event>
11    1  0.8453735E-009  0.8150783E+03  0.7561462E-02  0.8878028E-01
         22   -1    0    0    0    0  0.00000000000E+00  0.00000000000E+00  0.11076472794E+04  0.11076472794E+04  0.00000000000E+00 0.  1.
         22   -1    0    0    0    0 -0.00000000000E+00 -0.00000000000E+00 -0.11823387933E+04  0.11823387933E+04  0.00000000000E+00 0.  1.
        -24    2    1    2    0    0  0.97623252102E+03  0.19307287488E+03 -0.24618269964E+03  0.10307946702E+04  0.10781771825E+03 0.  0.
         25    2    1    2    0    0 -0.65529454403E+03  0.21558245169E+03 -0.14954956165E+02  0.70125334815E+03  0.12508347080E+03 0.  0.
         24    2    1    2    0    0 -0.32093797699E+03 -0.40865532657E+03  0.18644614184E+03  0.55793805435E+03  0.80822940325E+02 0.  0.
        -11    1    5    5    0    0 -0.24244405074E+03 -0.34972587561E+03  0.17082279029E+03  0.45854959545E+03  0.00000000000E+00 0.  1.
         12    1    5    5    0    0 -0.78493926254E+02 -0.58929450960E+02  0.15623351549E+02  0.99388458902E+02  0.00000000000E+00 0. -1.
         13    1    3    3    0    0  0.59172135113E+03  0.85641459197E+02 -0.19163903960E+03  0.62784881812E+03  0.00000000000E+00 0. -1.
        -14    1    3    3    0    0  0.38451116990E+03  0.10743141568E+03 -0.54543660041E+02  0.40294585207E+03  0.00000000000E+00 0.  1.
          5    1    4    4  501    0 -0.65246216972E+03  0.21793816508E+03 -0.28379948522E+01  0.68791674884E+03  0.41800000000E+01 0.  1.
         -5    1    4    4    0  501 -0.28323743071E+01 -0.23557133892E+01 -0.12116961312E+02  0.13336599313E+02  0.41800000000E+01 0.  1.
</event>
<event>
11    1  0.8453735E-009  0.1443151E+03  0.7561462E-02  0.1102833E+00
         22   -1    0    0    0    0  0.00000000000E+00  0.00000000000E+00  0.33168478636E+03  0.33168478636E+03  0.00000000000E+00 0.  1.
         22   -1    0    0    0    0 -0.00000000000E+00 -0.00000000000E+00 -0.39954078859E+03  0.39954078859E+03  0.00000000000E+00 0. -1.
        -24    2    1    2    0    0 -0.65896603226E+02  0.13848966533E+02 -0.24465085447E+03  0.26587570144E+03  0.79383196182E+02 0.  0.
         25    2    1    2    0    0  0.94574296052E+02  0.10590305951E+02 -0.92581646404E+02  0.18241627541E+03  0.12509150342E+03 0.  0.
         24    2    1    2    0    0 -0.28677692826E+02 -0.24439272484E+02  0.26937649864E+03  0.28293359810E+03  0.77897591814E+02 0.  0.
        -11    1    5    5    0    0 -0.71320620323E+01 -0.49778836191E+02  0.19638174445E+03  0.20271800215E+03  0.00000000000E+00 0.  1.
         12    1    5    5    0    0 -0.21545630794E+02  0.25339563707E+02  0.72994754186E+02  0.80215595952E+02  0.00000000000E+00 0. -1.
         11    1    3    3    0    0 -0.48515322362E+02  0.26132865243E+02 -0.66084954695E+02  0.86045827247E+02  0.00000000000E+00 0. -1.
        -12    1    3    3    0    0 -0.17381280864E+02 -0.12283898711E+02 -0.17856589977E+03  0.17982987420E+03  0.00000000000E+00 0.  1.
          5    1    4    4  501    0  0.52587578806E+02  0.61826525495E+02 -0.81545831962E+02  0.11513108968E+03  0.41800000000E+01 0. -1.
         -5    1    4    4    0  501  0.41986717247E+02 -0.51236219544E+02 -0.11035814442E+02  0.67285185730E+02  0.41800000000E+01 0. -1.
</event>
<event>
11    1  0.8453735E-009  0.1622553E+03  0.7561462E-02  0.1084975E+00
         22   -1    0    0    0    0  0.00000000000E+00  0.00000000000E+00  0.53459352284E+03  0.53459352284E+03  0.00000000000E+00 0.  1.
         22   -1    0    0    0    0 -0.00000000000E+00 -0.00000000000E+00 -0.39913728982E+03  0.39913728982E+03  0.00000000000E+00 0.  1.
        -24    2    1    2    0    0 -0.56646890831E+02 -0.16466508580E+02 -0.32020864333E+03  0.33522838409E+03  0.79777679165E+02 0.  0.
         25    2    1    2    0    0  0.65080628375E+01 -0.80632243169E+02  0.30888578851E+02  0.15213551590E+03  0.12508875799E+03 0.  0.
         24    2    1    2    0    0  0.50138827993E+02  0.97098751749E+02  0.42477629750E+03  0.44636691266E+03  0.82864034019E+02 0.  0.
        -11    1    5    5    0    0 -0.16487094736E+01  0.52537328904E+02  0.29559215804E+03  0.30022926751E+03  0.00000000000E+00 0.  1.
         12    1    5    5    0    0  0.51787537467E+02  0.44561422845E+02  0.12918413946E+03  0.14613764515E+03  0.00000000000E+00 0. -1.
         11    1    3    3    0    0 -0.55442448189E+01  0.23988963946E+02 -0.35816117925E+02  0.43462666106E+02  0.00000000000E+00 0. -1.
        -12    1    3    3    0    0 -0.51102646012E+02 -0.40455472525E+02 -0.28439252540E+03  0.29176571799E+03  0.00000000000E+00 0.  1.
          5    1    4    4  501    0  0.69784386351E+01  0.18491199909E+02 -0.29674840533E+02  0.35898351501E+02  0.41800000000E+01 0.  1.
         -5    1    4    4    0  501 -0.47037579758E+00 -0.99123443078E+02  0.60563419384E+02  0.11623716440E+03  0.41800000000E+01 0.  1.
</event>
<event>
11    1  0.8453735E-009  0.2981169E+03  0.7561462E-02  0.1000991E+00
         22   -1    0    0    0    0  0.00000000000E+00  0.00000000000E+00  0.46536064257E+03  0.46536064257E+03  0.00000000000E+00 0. -1.
         22   -1    0    0    0    0 -0.00000000000E+00 -0.00000000000E+00 -0.70953401367E+03  0.70953401367E+03  0.00000000000E+00 0. -1.
        -24    2    1    2    0    0  0.15637237370E+03 -0.21526484614E+03 -0.53407808573E+03  0.60223684472E+03  0.81599891198E+02 0.  0.
         25    2    1    2    0    0 -0.91166761700E+02  0.30940244091E+03  0.15677686215E+03  0.37982446918E+03  0.12508554673E+03 0.  0.
         24    2    1    2    0    0 -0.65205611999E+02 -0.94137594779E+02  0.13312785248E+03  0.19283334233E+03  0.79674426409E+02 0.  0.
        -13    1    5    5    0    0 -0.21719500119E+02  0.60985539489E+01  0.52193261981E+02  0.56860053129E+02  0.00000000000E+00 0.  1.
         14    1    5    5    0    0 -0.43486111880E+02 -0.10023614873E+03  0.80934590496E+02  0.13597328920E+03  0.00000000000E+00 0. -1.
         11    1    3    3    0    0  0.94810615859E+02 -0.18159077101E+03 -0.43506678436E+03  0.48088186475E+03  0.00000000000E+00 0. -1.
        -12    1    3    3    0    0  0.61561757840E+02 -0.33674075130E+02 -0.99011301374E+02  0.12135497997E+03  0.00000000000E+00 0.  1.
          5    1    4    4  501    0 -0.15094236308E+02  0.12292565790E+03  0.12478170851E+03  0.17585932025E+03  0.41800000000E+01 0. -1.
         -5    1    4    4    0  501 -0.76072525393E+02  0.18647678302E+03  0.31995153643E+02  0.20396514894E+03  0.41800000000E+01 0. -1.
</event>
<event>
11    1  0.8453735E-009  0.2923024E+03  0.7561462E-02  0.1003503E+00
         22   -1    0    0    0    0  0.00000000000E+00  0.00000000000E+00  0.14862148169E+03  0.14862148169E+03  0.00000000000E+00 0. -1.
         22   -1    0    0    0    0 -0.00000000000E+00 -0.00000000000E+00 -0.13568477327E+04  0.13568477327E+04  0.00000000000E+00 0. -1.
         24    2    1    2    0    0  0.28970761882E+02  0.24674310119E+02 -0.41009902445E+03  0.42083474156E+03  0.86443873274E+02 0.  0.
         25    2    1    2    0    0 -0.25626770473E+03 -0.14605491000E+03 -0.74363169969E+03  0.80971612514E+03  0.12508767044E+03 0.  0.
        -24    2    1    2    0    0  0.22729694284E+03  0.12138059988E+03 -0.54495526828E+02  0.27491834766E+03  0.78823760260E+02 0.  0.
        -11    1    3    3    0    0 -0.32402231200E+01 -0.25040411916E+02 -0.51283100981E+02  0.57161855472E+02  0.00000000000E+00 0.  1.
         12    1    3    3    0    0  0.32210985002E+02  0.49714722035E+02 -0.35881592347E+03  0.36367288609E+03  0.00000000000E+00 0. -1.
         13    1    5    5    0    0  0.19088913843E+03  0.10088043166E+03 -0.13414178498E+02  0.21632259440E+03  0.00000000000E+00 0. -1.
        -14    1    5    5    0    0  0.36407804410E+02  0.20500168215E+02 -0.41081348330E+02  0.58595753255E+02  0.00000000000E+00 0.  1.
          5    1    4    4  501    0 -0.22162524488E+03 -0.98877370053E+02 -0.46031265696E+03  0.52038418312E+03  0.41800000000E+01 0.  1.
         -5    1    4    4    0  501 -0.34642459846E+02 -0.47177539942E+02 -0.28331904273E+03  0.28933194202E+03  0.41800000000E+01 0.  1.
</event>
<event>
11    1  0.8453735E-009  0.1441494E+03  0.7561462E-02  0.1103011E+00
         22   -1    0    0    0    0  0.00000000000E+00  0.00000000000E+00  0.82369596438E+03  0.82369596438E+03  0.00000000000E+00 0.  1.
         22   -1    0    0    0    0 -0.00000000000E+00 -0.00000000000E+00 -0.83840506934E+02  0.83840506934E+02  0.00000000000E+00 0.  1.
         24    2    1    2    0    0  0.63410827805E+02 -0.52857584186E+02 -0.10578326316E+02  0.11287608643E+03  0.76251246628E+02 0.  0.
         25    2    1    2    0    0 -0.25700036914E+02  0.25804208873E+01  0.21735710429E+03  0.25210245646E+03  0.12507752515E+03 0.  0.
        -24    2    1    2    0    0 -0.37710790890E+02  0.50277163299E+02  0.53307667947E+03  0.54255792842E+03  0.79047217519E+02 0.  0.
        -11    1    3    3    0    0  0.56337036689E+02  0.72179982986E+00  0.51851746537E+01  0.56579755515E+02  0.00000000000E+00 0.  1.
         12    1    3    3    0    0  0.70737911153E+01 -0.53579384016E+02 -0.15763500970E+02  0.56296330920E+02  0.00000000000E+00 0. -1.
         13    1    5    5    0    0  0.11597851737E+02  0.38529356113E+02  0.12429602816E+03  0.13064656162E+03  0.00000000000E+00 0. -1.
        -14    1    5    5    0    0 -0.49308642627E+02  0.11747807185E+02  0.40878065131E+03  0.41191136680E+03  0.00000000000E+00 0.  1.
          5    1    4    4  501    0 -0.29195764751E+02  0.38304395635E+02  0.20965125236E+03  0.21515282806E+03  0.41800000000E+01 0.  1.
         -5    1    4    4    0  501  0.34957278368E+01 -0.35723974748E+02  0.77058519286E+01  0.36949628399E+02  0.41800000000E+01 0.  1.
</event>
<event>
11    1  0.8453735E-009  0.1619440E+03  0.7561462E-02  0.1085263E+00
         22   -1    0    0    0    0  0.00000000000E+00  0.00000000000E+00  0.20580117454E+04  0.20580117454E+04  0.00000000000E+00 0. -1.
         22   -1    0    0    0    0 -0.00000000000E+00 -0.00000000000E+00 -0.27681393924E+03  0.27681393924E+03  0.00000000000E+00 0. -1.
         24    2    1    2    0    0  0.20599176821E+02  0.12441028472E+02 -0.24069774814E+03  0.25465131285E+03  0.79578765367E+02 0.  0.
         25    2    1    2    0    0 -0.41091050501E+01  0.90338462283E+02  0.19555878277E+03  0.24913613459E+03  0.12509058129E+03 0.  0.
        -24    2    1    2    0    0 -0.16490071771E+02 -0.10277949076E+03  0.18263367715E+04  0.18310382372E+04  0.79746328111E+02 0.  0.
        -13    1    3    3    0    0 -0.27762429567E+02  0.19922749067E+02 -0.95634287020E+02  0.10155582346E+03  0.00000000000E+00 0.  1.
         14    1    3    3    0    0  0.48361606388E+02 -0.74817205949E+01 -0.14506346112E+03  0.15309548938E+03  0.00000000000E+00 0. -1.
         11    1    5    5    0    0 -0.25222648435E+02 -0.64166161441E+02  0.15831220298E+04  0.15846226174E+04  0.00000000000E+00 0. -1.
        -12    1    5    5    0    0  0.87325766637E+01 -0.38613329314E+02  0.24321474174E+03  0.24641561983E+03  0.00000000000E+00 0.  1.
          5    1    4    4  501    0  0.25805669347E+02 -0.50077571095E+01 -0.30241178411E+01  0.26788577611E+02  0.41800000000E+01 0. -1.
         -5    1    4    4    0  501 -0.29914774397E+02  0.95346219393E+02  0.19858290062E+03  0.22234755698E+03  0.41800000000E+01 0. -1.
</event>
<event>
11    1  0.8453735E-009  0.1601325E+03  0.7561462E-02  0.1086953E+00
         22   -1    0    0    0    0  0.00000000000E+00  0.00000000000E+00  0.23486630467E+03  0.23486630467E+03  0.00000000000E+00 0. -1.
         22   -1    0    0    0    0 -0.00000000000E+00 -0.00000000000E+00 -0.36636495842E+03  0.36636495842E+03  0.00000000000E+00 0. -1.
         24    2    1    2    0    0  0.25191866023E+02 -0.47858132429E+02 -0.22745143182E+03  0.24745402937E+03  0.81082130354E+02 0.  0.
         25    2    1    2    0    0  0.74828016170E+02  0.69505395913E+02 -0.39739826850E+02  0.16630485215E+03  0.12509123849E+03 0.  0.
        -24    2    1    2    0    0 -0.10001988219E+03 -0.21647263485E+02  0.13569260492E+03  0.18747238157E+03  0.79125406609E+02 0.  0.
        -13    1    3    3    0    0  0.27499791266E+02 -0.61777972330E+02 -0.10975169653E+03  0.12891156378E+03  0.00000000000E+00 0.  1.
         14    1    3    3    0    0 -0.23079252431E+01  0.13919839902E+02 -0.11769973528E+03  0.11854246559E+03  0.00000000000E+00 0. -1.
         11    1    5    5    0    0 -0.10423557754E+03 -0.92240529921E+01  0.13895859528E+03  0.17395295335E+03  0.00000000000E+00 0. -1.
        -12    1    5    5    0    0  0.42156953483E+01 -0.12423210493E+02 -0.32659903596E+01  0.13519428214E+02  0.00000000000E+00 0.  1.
          5    1    4    4  501    0  0.70843395754E+02 -0.18280835571E+02 -0.22460315347E+02  0.76647986514E+02  0.41800000000E+01 0. -1.
         -5    1    4    4    0  501  0.39846204150E+01  0.87786231485E+02 -0.17279511502E+02  0.89656865637E+02  0.41800000000E+01 0. -1.
</event>
<event>
11    1  0.8453735E-009  0.1485820E+03  0.7561462E-02  0.1098337E+00
         22   -1    0    0    0    0  0.00000000000E+00  0.00000000000E+00  0.41680703195E+04  0.41680703195E+04  0.00000000000E+00 0.  1.
         22   -1    0    0    0    0 -0.00000000000E+00 -0.00000000000E+00 -0.47701188546E+02  0.47701188546E+02  0.00000000000E+00 0.  1.
         24    2    1    2    0    0  0.24685947608E+02  0.38012910337E+02  0.62445966449E+02  0.11145275023E+03  0.80422878880E+02 0.  0.
         25    2    1    2    0    0 -0.48181353591E+02 -0.11301281077E+03  0.32142382250E+03  0.36613419122E+03  0.12509050352E+03 0.  0.
        -24    2    1    2    0    0  0.23495405983E+02  0.74999900437E+02  0.37364993420E+04  0.37381845666E+04  0.80121794789E+02 0.  0.
        -11    1    3    3    0    0 -0.79224801696E+01  0.51501434067E+02  0.18958212853E+02  0.55448870481E+02  0.00000000000E+00 0.  1.
         12    1    3    3    0    0  0.32608427778E+02 -0.13488523731E+02  0.43487753595E+02  0.56003879753E+02  0.00000000000E+00 0. -1.
         13    1    5    5    0    0 -0.60204502205E+01 -0.13107786256E+02  0.22851076550E+03  0.22896556472E+03  0.00000000000E+00 0. -1.
        -14    1    5    5    0    0  0.29515856204E+02  0.88107686692E+02  0.35079885765E+04  0.35092190019E+04  0.00000000000E+00 0.  1.
          5    1    4    4  501    0 -0.30508611240E+02 -0.12895182053E+03  0.31402408421E+03  0.34086352876E+03  0.41800000000E+01 0. -1.
         -5    1    4    4    0  501 -0.17672742352E+02  0.15939009752E+02  0.73997382965E+01  0.25270662456E+02  0.41800000000E+01 0. -1.
</event>
<event>
11    1  0.8453735E-009  0.3711161E+03  0.7561462E-02  0.9739049E-01
         22   -1    0    0    0    0  0.00000000000E+00  0.00000000000E+00  0.67991421028E+03  0.67991421028E+03  0.00000000000E+00 0.  1.
         22   -1    0    0    0    0 -0.00000000000E+00 -0.00000000000E+00 -0.69457874545E+03  0.69457874545E+03  0.00000000000E+00 0.  1.
         24    2    1    2    0    0 -0.38252380242E+02  0.64515373888E+01 -0.13860341760E+03  0.16360620766E+03  0.77789567975E+02 0.  0.
         25    2    1    2    0    0  0.33024908529E+03  0.18016719182E+03 -0.40931015534E+03  0.56983010085E+03  0.12508743033E+03 0.  0.
        -24    2    1    2    0    0 -0.29199670504E+03 -0.18661872921E+03  0.53324903777E+03  0.64105664722E+03  0.80687439019E+02 0.  0.
        -11    1    3    3    0    0 -0.46320547399E+02  0.34488474838E+02 -0.92476483402E+02  0.10902728095E+03  0.00000000000E+00 0.  1.
         12    1    3    3    0    0  0.80681671572E+01 -0.28036937449E+02 -0.46126934197E+02  0.54578926713E+02  0.00000000000E+00 0. -1.
         11    1    5    5    0    0 -0.13074574442E+03 -0.39390190787E+02  0.18325934589E+03  0.22853889094E+03  0.00000000000E+00 0. -1.
        -12    1    5    5    0    0 -0.16125096062E+03 -0.14722853843E+03  0.34998969188E+03  0.41251775629E+03  0.00000000000E+00 0.  1.
          5    1    4    4  501    0  0.22994452026E+03  0.16130423106E+03 -0.22828665693E+03  0.36197487134E+03  0.41800000000E+01 0. -1.
         -5    1    4    4    0  501  0.10030456503E+03  0.18862960769E+02 -0.18102349842E+03  0.20785522951E+03  0.41800000000E+01 0. -1.
</event>
<event>
11    1  0.8453735E-009  0.1501927E+03  0.7561462E-02  0.1096682E+00
         22   -1    0    0    0    0  0.00000000000E+00  0.00000000000E+00  0.20814595385E+04  0.20814595385E+04  0.00000000000E+00 0.  1.
         22   -1    0    0    0    0 -0.00000000000E+00 -0.00000000000E+00 -0.88861859925E+02  0.88861859925E+02  0.00000000000E+00 0.  1.
        -24    2    1    2    0    0  0.75800622201E+02  0.20001315756E+02 -0.17542703242E+02  0.11884835552E+03  0.87586518454E+02 0.  0.
         25    2    1    2    0    0 -0.12492316422E+03 -0.47367384143E+01  0.40317241724E+03  0.44025534651E+03  0.12509411839E+03 0.  0.
         24    2    1    2    0    0  0.49122542021E+02 -0.15264577342E+02  0.16069679646E+04  0.16112176964E+04  0.10502568517E+03 0.  0.
        -11    1    5    5    0    0 -0.30407271996E+02 -0.10740843010E+02  0.70564247957E+03  0.70637898955E+03  0.00000000000E+00 0.  1.
         12    1    5    5    0    0  0.79529814018E+02 -0.45237343316E+01  0.90132548499E+03  0.90483870683E+03  0.00000000000E+00 0. -1.
         13    1    3    3    0    0  0.68602229832E+02  0.48933250885E+02 -0.19071742218E-01  0.84265825480E+02  0.00000000000E+00 0. -1.
        -14    1    3    3    0    0  0.71983923684E+01 -0.28931935129E+02 -0.17523631500E+02  0.34582530040E+02  0.00000000000E+00 0.  1.
          5    1    4    4  501    0 -0.12077335554E+03  0.43064658814E+02  0.30590047431E+03  0.33171273842E+03  0.41800000000E+01 0.  1.
         -5    1    4    4    0  501 -0.41498086811E+01 -0.47801397228E+02  0.97271942926E+02  0.10854260808E+03  0.41800000000E+01 0.  1.
</event>
<event>
11    1  0.8453735E-009  0.1676112E+03  0.7561462E-02  0.1080129E+00
         22   -1    0    0    0    0  0.00000000000E+00  0.00000000000E+00  0.38919067285E+03  0.38919067285E+03  0.00000000000E+00 0.  1.
         22   -1    0    0    0    0 -0.00000000000E+00 -0.00000000000E+00 -0.34284919837E+03  0.34284919837E+03  0.00000000000E+00 0.  1.
        -24    2    1    2    0    0 -0.19242594761E+02  0.10762717124E+03 -0.21395494990E+03  0.25256230626E+03  0.77827453478E+02 0.  0.
         25    2    1    2    0    0 -0.28232747143E+02 -0.12539870351E+03 -0.23078790107E+02  0.18083685101E+03  0.12508962099E+03 0.  0.
         24    2    1    2    0    0  0.47475341904E+02  0.17771532267E+02  0.28337521448E+03  0.29864071395E+03  0.79467152939E+02 0.  0.
        -11    1    5    5    0    0  0.35196188099E+02 -0.77042780937E+01  0.25843318683E+03  0.26093263424E+03  0.00000000000E+00 0.  1.
         12    1    5    5    0    0  0.12279153806E+02  0.25475810361E+02  0.24942027655E+02  0.37708079708E+02  0.00000000000E+00 0. -1.
         13    1    3    3    0    0 -0.29674817865E+01 -0.12014702469E+02 -0.30749496430E+02  0.33146501388E+02  0.00000000000E+00 0. -1.
        -14    1    3    3    0    0 -0.16275112975E+02  0.11964187371E+03 -0.18320545347E+03  0.21941580487E+03  0.00000000000E+00 0.  1.
          5    1    4    4  501    0 -0.42661141430E+02  0.47261681278E+01 -0.24973089008E+02  0.49834097041E+02  0.41800000000E+01 0. -1.
         -5    1    4    4    0  501  0.14428394287E+02 -0.13012487163E+03  0.18942989015E+01  0.13100275397E+03  0.41800000000E+01 0. -1.
</event>
<event>
11    1  0.8453735E-009  0.2136322E+03  0.7561462E-02  0.1045281E+00
         22   -1    0    0    0    0  0.00000000000E+00  0.00000000000E+00  0.26526887698E+03  0.26526887698E+03  0.00000000000E+00 0. -1.
         22   -1    0    0    0    0 -0.00000000000E+00 -0.00000000000E+00 -0.24007543727E+04  0.24007543727E+04  0.00000000000E+00 0.  1.
         24    2    1    2    0    0  0.59314622925E+02 -0.17034479917E+03 -0.20279615411E+04  0.20375623569E+04  0.80602548488E+02 0.  0.
         25    2    1    2    0    0 -0.66169167290E+01  0.14086502267E+03 -0.33299285558E+03  0.38264681665E+03  0.12509039223E+03 0.  0.
        -24    2    1    2    0    0 -0.52697706196E+02  0.29479776503E+02  0.22546890101E+03  0.24581407612E+03  0.77085856243E+02 0.  0.
        -11    1    3    3    0    0  0.44653179273E+02 -0.91104190755E+02 -0.71907928996E+03  0.72620169736E+03  0.00000000000E+00 0.  1.
         12    1    3    3    0    0  0.14661443652E+02 -0.79240608415E+02 -0.13088822512E+04  0.13113606595E+04  0.00000000000E+00 0. -1.
         13    1    5    5    0    0  0.16864008543E+01  0.15014931820E+02  0.15451954471E+03  0.15525650332E+03  0.00000000000E+00 0. -1.
        -14    1    5    5    0    0 -0.54384107050E+02  0.14464844683E+02  0.70949356300E+02  0.90557572796E+02  0.00000000000E+00 0.  1.
          5    1    4    4  501    0 -0.17979065443E+01 -0.13765494610E+02  0.10078271016E+01  0.14533045973E+02  0.41800000000E+01 0. -1.
         -5    1    4    4    0  501 -0.48190101847E+01  0.15463051728E+03 -0.33400068268E+03  0.36811377068E+03  0.41800000000E+01 0. -1.
</event>
<event>
11    1  0.9798143E-009  0.1449689E+03  0.7561462E-02  0.1102133E+00
         22   -1    0    0    0    0  0.00000000000E+00  0.00000000000E+00  0.33119619259E+03  0.33119619259E+03  0.00000000000E+00 0.  1.
         22   -1    0    0    0    0 -0.00000000000E+00 -0.00000000000E+00 -0.66673665447E+03  0.66673665447E+03  0.00000000000E+00 0.  1.
        -24    2    1    2    0    0  0.11655526469E+02  0.32375846668E+02 -0.48983477098E+03  0.49732211685E+03  0.78785393980E+02 0.  0.
         25    2    1    2    0    0 -0.72983469960E+02 -0.69523606620E+02 -0.12355343758E+03  0.20266709241E+03  0.12509348362E+03 0.  0.
         24    2    1    2    0    0  0.61327943492E+02  0.37147759952E+02  0.27784774669E+03  0.29794363780E+03  0.80187082775E+02 0.  0.
        -13    1    5    5    0    0  0.70568296272E+02  0.51807601228E+02  0.25244139124E+03  0.26719013454E+03  0.00000000000E+00 0.  1.
         14    1    5    5    0    0 -0.92403527801E+01 -0.14659841276E+02  0.25406355449E+02  0.30753503263E+02  0.00000000000E+00 0. -1.
         11    1    3    3    0    0 -0.15807025881E+02  0.18485978026E+02 -0.42793127534E+02  0.49222405619E+02  0.00000000000E+00 0. -1.
        -12    1    3    3    0    0  0.27462552349E+02  0.13889868642E+02 -0.44704164344E+03  0.44809971123E+03  0.00000000000E+00 0.  1.
          5    1    4    4  501    0  0.16754665155E+02  0.18212249484E+02 -0.52978786237E+02  0.58622768843E+02  0.41800000000E+01 0.  1.
         -5    1    4    4    0  501 -0.89738135116E+02 -0.87735856104E+02 -0.70574651348E+02  0.14404432357E+03  0.41800000000E+01 0.  1.
</event>
<event>
11    1  0.8453735E-009  0.2248213E+03  0.7561462E-02  0.1038239E+00
         22   -1    0    0    0    0  0.00000000000E+00  0.00000000000E+00  0.39821075385E+03  0.39821075385E+03  0.00000000000E+00 0. -1.
         22   -1    0    0    0    0 -0.00000000000E+00 -0.00000000000E+00 -0.64292220647E+03  0.64292220647E+03  0.00000000000E+00 0. -1.
         24    2    1    2    0    0 -0.40112228064E+02 -0.88801336945E+01 -0.39463433753E+03  0.40362867570E+03  0.74108028432E+02 0.  0.
         25    2    1    2    0    0  0.21367515061E+03 -0.46788027412E+02 -0.13812234046E+03  0.28735079261E+03  0.12508600072E+03 0.  0.
        -24    2    1    2    0    0 -0.17356292255E+03  0.55668161107E+02  0.28804522538E+03  0.35015349201E+03  0.80089848656E+02 0.  0.
        -11    1    3    3    0    0  0.17234206020E+02 -0.19260489972E+02 -0.14467165085E+03  0.14696214101E+03  0.00000000000E+00 0.  1.
         12    1    3    3    0    0 -0.57346434084E+02  0.10380356278E+02 -0.24996268668E+03  0.25666653470E+03  0.00000000000E+00 0. -1.
         13    1    5    5    0    0 -0.16886186982E+03  0.52413560890E+02  0.22173946931E+03  0.28360166553E+03  0.00000000000E+00 0. -1.
        -14    1    5    5    0    0 -0.47010527313E+01  0.32546002168E+01  0.66305756068E+02  0.66551826474E+02  0.00000000000E+00 0.  1.
          5    1    4    4  501    0  0.27556880102E+02 -0.23326514058E+01  0.23739257504E+02  0.36685796303E+02  0.41800000000E+01 0. -1.
         -5    1    4    4    0  501  0.18611827051E+03 -0.44455376006E+02 -0.16186159797E+03  0.25066499630E+03  0.41800000000E+01 0. -1.
</event>
<event>
11    1  0.8453735E-009  0.1284906E+03  0.7561462E-02  0.1121138E+00
         22   -1    0    0    0    0  0.00000000000E+00  0.00000000000E+00  0.17400148504E+04  0.17400148504E+04  0.00000000000E+00 0.  1.
         22   -1    0    0    0    0 -0.00000000000E+00 -0.00000000000E+00 -0.15205207265E+03  0.15205207265E+03  0.00000000000E+00 0.  1.
         24    2    1    2    0    0 -0.22829770501E+02  0.17209366731E+02 -0.11910789577E+03  0.14661137066E+03  0.80565764734E+02 0.  0.
         25    2    1    2    0    0  0.30530656311E+02 -0.32270235022E+02  0.22680028846E+03  0.26278745651E+03  0.12508152306E+03 0.  0.
        -24    2    1    2    0    0 -0.77008858103E+01  0.15060868291E+02  0.14802703851E+04  0.14826680959E+04  0.82572006547E+02 0.  0.
        -13    1    3    3    0    0 -0.51807509684E+01  0.43736527607E+02 -0.10046831177E+03  0.10969779258E+03  0.00000000000E+00 0.  1.
         14    1    3    3    0    0 -0.17649019533E+02 -0.26527160876E+02 -0.18639583999E+02  0.36913578075E+02  0.00000000000E+00 0. -1.
         11    1    5    5    0    0  0.20540570052E+02 -0.42350855352E+01  0.12175393899E+04  0.12177200076E+04  0.00000000000E+00 0. -1.
        -12    1    5    5    0    0 -0.28241455863E+02  0.19295953826E+02  0.26273099522E+03  0.26494808833E+03  0.00000000000E+00 0.  1.
          5    1    4    4  501    0 -0.10176735799E+02 -0.23392157809E+01 -0.13285260686E+02  0.17407137429E+02  0.41800000000E+01 0. -1.
         -5    1    4    4    0  501  0.40707392110E+02 -0.29931019241E+02  0.24008554915E+03  0.24538031909E+03  0.41800000000E+01 0. -1.
</event>
<event>
11    1  0.8453735E-009  0.1904458E+03  0.7561462E-02  0.1061493E+00
         22   -1    0    0    0    0  0.00000000000E+00  0.00000000000E+00  0.68407453225E+03  0.68407453225E+03  0.00000000000E+00 0. -1.
         22   -1    0    0    0    0 -0.00000000000E+00 -0.00000000000E+00 -0.10684382837E+04  0.10684382837E+04  0.00000000000E+00 0. -1.
         24    2    1    2    0    0 -0.80958516237E+01 -0.48386342758E+02 -0.85882519961E+03  0.86464230956E+03  0.87285846624E+02 0.  0.
         25    2    1    2    0    0  0.14807821509E+03  0.15705856365E+02 -0.14772277381E+03  0.24421799636E+03  0.12508629076E+03 0.  0.
        -24    2    1    2    0    0 -0.13998236347E+03  0.32680486393E+02  0.62218422202E+03  0.64365250998E+03  0.80698644404E+02 0.  0.
        -13    1    3    3    0    0  0.74271173596E+01 -0.60662673867E+02 -0.34062404617E+03  0.34606337989E+03  0.00000000000E+00 0.  1.
         14    1    3    3    0    0 -0.15522968983E+02  0.12276331109E+02 -0.51820115344E+03  0.51857892967E+03  0.00000000000E+00 0. -1.
         11    1    5    5    0    0 -0.56170584926E+02  0.12506032525E+02  0.41905619187E+03  0.42298892114E+03  0.00000000000E+00 0. -1.
        -12    1    5    5    0    0 -0.83811778541E+02  0.20174453868E+02  0.20312803015E+03  0.22066358885E+03  0.00000000000E+00 0.  1.
          5    1    4    4  501    0  0.72139472859E+01  0.37659171001E+02  0.42425066312E+00  0.38573392183E+02  0.41800000000E+01 0. -1.
         -5    1    4    4    0  501  0.14086426780E+03 -0.21953314636E+02 -0.14814702447E+03  0.20564460418E+03  0.41800000000E+01 0. -1.
</event>
<event>
11    1  0.8453735E-009  0.1742597E+03  0.7561462E-02  0.1074383E+00
         22   -1    0    0    0    0  0.00000000000E+00  0.00000000000E+00  0.85753470773E+02  0.85753470773E+02  0.00000000000E+00 0. -1.
         22   -1    0    0    0    0 -0.00000000000E+00 -0.00000000000E+00 -0.13270775584E+04  0.13270775584E+04  0.00000000000E+00 0. -1.
        -24    2    1    2    0    0 -0.97344846662E+02  0.49435732049E+02 -0.62237985802E+03  0.63718805496E+03  0.82048881420E+02 0.  0.
         25    2    1    2    0    0  0.26028938896E+02 -0.14917975642E+03 -0.59510585402E+03  0.62668184790E+03  0.12508819135E+03 0.  0.
         24    2    1    2    0    0  0.71315907765E+02  0.99744024369E+02 -0.23838375613E+02  0.14896112633E+03  0.81156145233E+02 0.  0.
        -13    1    5    5    0    0  0.69751650642E+02  0.41052135258E+02 -0.36681665758E+02  0.88860087662E+02  0.00000000000E+00 0.  1.
         14    1    5    5    0    0  0.15642571236E+01  0.58691889111E+02  0.12843290145E+02  0.60101038672E+02  0.00000000000E+00 0. -1.
         11    1    3    3    0    0 -0.34431972359E+02  0.49613050774E+02 -0.44296052882E+03  0.44705821278E+03  0.00000000000E+00 0. -1.
        -12    1    3    3    0    0 -0.62912874302E+02 -0.17731872498E+00 -0.17941932920E+03  0.19012984217E+03  0.00000000000E+00 0.  1.
          5    1    4    4  501    0  0.59314338074E+01 -0.12041891216E+03 -0.57171953310E+03  0.58430864552E+03  0.41800000000E+01 0. -1.
         -5    1    4    4    0  501  0.20097505089E+02 -0.28760844261E+02 -0.23386320926E+02  0.42373202379E+02  0.41800000000E+01 0. -1.
</event>
<event>
11    1  0.8453735E-009  0.1362635E+03  0.7561462E-02  0.1111804E+00
         22   -1    0    0    0    0  0.00000000000E+00  0.00000000000E+00  0.38174350387E+03  0.38174350387E+03  0.00000000000E+00 0.  1.
         22   -1    0    0    0    0 -0.00000000000E+00 -0.00000000000E+00 -0.13209424646E+03  0.13209424646E+03  0.00000000000E+00 0. -1.
        -24    2    1    2    0    0 -0.12911452755E+02 -0.76015748446E+01 -0.75230543614E+02  0.11135887302E+03  0.80725921206E+02 0.  0.
         25    2    1    2    0    0  0.32429901357E+02 -0.43458948229E+02  0.15336699510E+03  0.20520006513E+03  0.12508098521E+03 0.  0.
         24    2    1    2    0    0 -0.19518448602E+02  0.51060523073E+02  0.17151280592E+03  0.19727881217E+03  0.80710224175E+02 0.  0.
        -11    1    5    5    0    0 -0.27947028037E+02  0.63938846076E+02  0.87745509440E+02  0.11210926296E+03  0.00000000000E+00 0.  1.
         12    1    5    5    0    0  0.84285794354E+01 -0.12878323003E+02  0.83767296479E+02  0.85169549218E+02  0.00000000000E+00 0. -1.
         13    1    3    3    0    0 -0.45983713368E+02 -0.97209127394E+01 -0.55746443121E+02  0.72915457622E+02  0.00000000000E+00 0. -1.
        -14    1    3    3    0    0  0.33072260613E+02  0.21193378948E+01 -0.19484100493E+02  0.38443415394E+02  0.00000000000E+00 0.  1.
          5    1    4    4  501    0  0.19847748474E+02  0.16517050714E+02 -0.12011134546E+02  0.28783429901E+02  0.41800000000E+01 0.  1.
         -5    1    4    4    0  501  0.12582152883E+02 -0.59975998943E+02  0.16537812965E+03  0.17641663523E+03  0.41800000000E+01 0.  1.
</event>
<event>
11    1  0.8453735E-009  0.1329438E+03  0.7561462E-02  0.1115704E+00
         22   -1    0    0    0    0  0.00000000000E+00  0.00000000000E+00  0.58886011581E+03  0.58886011581E+03  0.00000000000E+00 0. -1.
         22   -1    0    0    0    0 -0.00000000000E+00 -0.00000000000E+00 -0.14340934301E+03  0.14340934301E+03  0.00000000000E+00 0.  1.
        -24    2    1    2    0    0  0.12938936705E+02 -0.54152544032E+02 -0.50756650195E+02  0.10978215101E+03  0.79849665198E+02 0.  0.
         25    2    1    2    0    0  0.12440775681E+02  0.22928813593E+02  0.81143374210E+01  0.12803796852E+03  0.12508947005E+03 0.  0.
         24    2    1    2    0    0 -0.25379712386E+02  0.31223730440E+02  0.48809308558E+03  0.49444933930E+03  0.68016452438E+02 0.  0.
        -11    1    5    5    0    0 -0.17541629595E+02  0.33668612744E+01  0.26545527102E+02  0.31995461128E+02  0.00000000000E+00 0.  1.
         12    1    5    5    0    0 -0.78380827911E+01  0.27856869165E+02  0.46154755848E+03  0.46245387817E+03  0.00000000000E+00 0. -1.
         13    1    3    3    0    0  0.37931947872E+02 -0.18915570725E+02  0.95789927938E+00  0.42397512383E+02  0.00000000000E+00 0. -1.
        -14    1    3    3    0    0 -0.24993011167E+02 -0.35236973307E+02 -0.51714549474E+02  0.67384638623E+02  0.00000000000E+00 0.  1.
          5    1    4    4  501    0  0.56496007734E+02  0.50289329448E+02  0.45743214879E+01  0.75889474654E+02  0.41800000000E+01 0. -1.
         -5    1    4    4    0  501 -0.44055232053E+02 -0.27360515856E+02  0.35400159331E+01  0.52148493861E+02  0.41800000000E+01 0. -1.
</event>
<event>
11    1  0.8453735E-009  0.2575706E+03  0.7561462E-02  0.1019942E+00
         22   -1    0    0    0    0  0.00000000000E+00  0.00000000000E+00  0.10451086960E+03  0.10451086960E+03  0.00000000000E+00 0.  1.
         22   -1    0    0    0    0 -0.00000000000E+00 -0.00000000000E+00 -0.22163740839E+04  0.22163740839E+04  0.00000000000E+00 0.  1.
        -24    2    1    2    0    0  0.14965744562E+03 -0.16956546245E+03 -0.17161729187E+04  0.17330240715E+04  0.83505380960E+02 0.  0.
         25    2    1    2    0    0 -0.19138687898E+03  0.12326404087E+03 -0.41220502493E+03  0.48722396760E+03  0.12510495917E+03 0.  0.
         24    2    1    2    0    0  0.41729433368E+02  0.46301421585E+02  0.16514729342E+02  0.10063691431E+03  0.77265030819E+02 0.  0.
        -13    1    5    5    0    0  0.55292811470E+02  0.61507141484E+01  0.17262681502E+02  0.58250548988E+02  0.00000000000E+00 0.  1.
         14    1    5    5    0    0 -0.13563378102E+02  0.40150707436E+02 -0.74795215962E+00  0.42386365326E+02  0.00000000000E+00 0. -1.
         11    1    3    3    0    0 -0.70308865001E+01 -0.28519402669E+02 -0.16559317267E+03  0.16817814522E+03  0.00000000000E+00 0. -1.
        -12    1    3    3    0    0  0.15668833212E+03 -0.14104605979E+03 -0.15505797460E+04  0.15648459263E+04  0.00000000000E+00 0.  1.
          5    1    4    4  501    0  0.36754148487E+01  0.33050782821E+02 -0.11923154229E+03  0.12385271897E+03  0.41800000000E+01 0.  1.
         -5    1    4    4    0  501 -0.19506229383E+03  0.90213258049E+02 -0.29297348264E+03  0.36337124864E+03  0.41800000000E+01 0.  1.
</event>
<event>
11    1  0.8453735E-009  0.1891097E+03  0.7561462E-02  0.1062503E+00
         22   -1    0    0    0    0  0.00000000000E+00  0.00000000000E+00  0.24538320126E+02  0.24538320126E+02  0.00000000000E+00 0. -1.
         22   -1    0    0    0    0 -0.00000000000E+00 -0.00000000000E+00 -0.37419950072E+04  0.37419950072E+04  0.00000000000E+00 0. -1.
        -24    2    1    2    0    0  0.75050321834E+02  0.11394606372E+03 -0.13246331134E+04  0.13340440623E+04  0.80027613650E+02 0.  0.
         25    2    1    2    0    0 -0.12369442022E+03  0.35883625244E+02 -0.19164094030E+04  0.19248014302E+04  0.12509037449E+03 0.  0.
         24    2    1    2    0    0  0.48644098390E+02 -0.14982968897E+03 -0.47641417072E+03  0.50768783477E+03  0.77209400408E+02 0.  0.
        -11    1    5    5    0    0 -0.20800420027E+02 -0.26528684147E+02 -0.10178279254E+03  0.10722017260E+03  0.00000000000E+00 0.  1.
         12    1    5    5    0    0  0.69444518418E+02 -0.12330100482E+03 -0.37463137818E+03  0.40046766217E+03  0.00000000000E+00 0. -1.
         13    1    3    3    0    0  0.82440870170E+02  0.90856761698E+02 -0.12385777312E+04  0.12446390017E+04  0.00000000000E+00 0. -1.
        -14    1    3    3    0    0 -0.73905483356E+01  0.23089302027E+02 -0.86055382145E+02  0.89405060645E+02  0.00000000000E+00 0.  1.
          5    1    4    4  501    0 -0.82519537693E+02 -0.95654110904E+01 -0.16174924438E+04  0.16196296643E+04  0.41800000000E+01 0. -1.
         -5    1    4    4    0  501 -0.41174882531E+02  0.45449036335E+02 -0.29891695918E+03  0.30517176596E+03  0.41800000000E+01 0. -1.
</event>
<event>
11    1  0.8453735E-009  0.1334945E+03  0.7561462E-02  0.1115048E+00
         22   -1    0    0    0    0  0.00000000000E+00  0.00000000000E+00  0.13658188233E+04  0.13658188233E+04  0.00000000000E+00 0.  1.
         22   -1    0    0    0    0 -0.00000000000E+00 -0.00000000000E+00 -0.50018708932E+03  0.50018708932E+03  0.00000000000E+00 0.  1.
         24    2    1    2    0    0  0.12485849813E+02 -0.10434464162E+02 -0.48624060767E+03  0.49324317655E+03  0.81204237423E+02 0.  0.
         25    2    1    2    0    0 -0.20439799004E+02 -0.37750641168E+02  0.56963225900E+03  0.58477474751E+03  0.12505078383E+03 0.  0.
        -24    2    1    2    0    0  0.79539491917E+01  0.48185105330E+02  0.78224008260E+03  0.78798798852E+03  0.81488978013E+02 0.  0.
        -13    1    3    3    0    0  0.32616790206E+02 -0.34250052302E+02 -0.36521077952E+03  0.36826055255E+03  0.00000000000E+00 0.  1.
         14    1    3    3    0    0 -0.20130940393E+02  0.23815588139E+02 -0.12102982815E+03  0.12498262400E+03  0.00000000000E+00 0. -1.
         13    1    5    5    0    0 -0.24642530502E+02  0.28338050556E+02  0.15116161182E+03  0.15575664450E+03  0.00000000000E+00 0. -1.
        -14    1    5    5    0    0  0.32596479694E+02  0.19847054775E+02  0.63107847078E+03  0.63223134401E+03  0.00000000000E+00 0.  1.
          5    1    4    4  501    0 -0.19736912687E+02 -0.28176288734E+02  0.57279073318E+03  0.57383808290E+03  0.41800000000E+01 0. -1.
         -5    1    4    4    0  501 -0.70288631728E+00 -0.95743524343E+01 -0.31584741750E+01  0.10936664612E+02  0.41800000000E+01 0. -1.
</event>
<event>
11    1  0.8453735E-009  0.1777647E+03  0.7561462E-02  0.1071465E+00
         22   -1    0    0    0    0  0.00000000000E+00  0.00000000000E+00  0.20004295898E+03  0.20004295898E+03  0.00000000000E+00 0. -1.
         22   -1    0    0    0    0 -0.00000000000E+00 -0.00000000000E+00 -0.74641176016E+03  0.74641176016E+03  0.00000000000E+00 0.  1.
         24    2    1    2    0    0  0.62959989240E+02 -0.97339827081E+02 -0.50302882224E+03  0.52217414252E+03  0.78669161263E+02 0.  0.
         25    2    1    2    0    0 -0.95864825318E+02  0.17574488430E+03 -0.13780612629E+03  0.27334095941E+03  0.12509365515E+03 0.  0.
        -24    2    1    2    0    0  0.32904836078E+02 -0.78405057216E+02  0.94466147357E+02  0.15093961721E+03  0.81417650492E+02 0.  0.
        -11    1    3    3    0    0  0.37563342283E+02 -0.21633549971E+01 -0.20087478063E+03  0.20436820271E+03  0.00000000000E+00 0.  1.
         12    1    3    3    0    0  0.25396646957E+02 -0.95176472084E+02 -0.30215404161E+03  0.31780593981E+03  0.00000000000E+00 0. -1.
         13    1    5    5    0    0  0.33376783284E+02 -0.90659467682E+02  0.58499111538E+02  0.11293934121E+03  0.00000000000E+00 0. -1.
        -14    1    5    5    0    0 -0.47194720619E+00  0.12254410465E+02  0.35967035819E+02  0.38000275994E+02  0.00000000000E+00 0.  1.
          5    1    4    4  501    0 -0.10260072937E+03  0.16373497379E+03 -0.72425186708E+02  0.20639508564E+03  0.41800000000E+01 0. -1.
         -5    1    4    4    0  501  0.67359040549E+01  0.12009910512E+02 -0.65380939582E+02  0.66945873768E+02  0.41800000000E+01 0. -1.
</event>
<event>
11    1  0.8453735E-009  0.1318032E+03  0.7561462E-02  0.1117073E+00
         22   -1    0    0    0    0  0.00000000000E+00  0.00000000000E+00  0.55159949990E+03  0.55159949990E+03  0.00000000000E+00 0.  1.
         22   -1    0    0    0    0 -0.00000000000E+00 -0.00000000000E+00 -0.47928382805E+03  0.47928382805E+03  0.00000000000E+00 0. -1.
         24    2    1    2    0    0  0.54124540872E+01 -0.30777155545E+02 -0.44999541513E+03  0.45695872477E+03  0.73067602540E+02 0.  0.
         25    2    1    2    0    0  0.10424613379E+02 -0.15792280741E+02  0.18690833240E+03  0.22569857012E+03  0.12508817345E+03 0.  0.
        -24    2    1    2    0    0 -0.15837067466E+02  0.46569436286E+02  0.33540275458E+03  0.34822603307E+03  0.79667039747E+02 0.  0.
        -13    1    3    3    0    0  0.63564670980E+01 -0.21069134902E+02 -0.31928908644E+02  0.38778451834E+02  0.00000000000E+00 0.  1.
         14    1    3    3    0    0 -0.94401301078E+00 -0.97080206431E+01 -0.41806650649E+03  0.41818027294E+03  0.00000000000E+00 0. -1.
         11    1    5    5    0    0 -0.14262135911E+02  0.65240503422E+02  0.18546020914E+03  0.19711727723E+03  0.00000000000E+00 0. -1.
        -12    1    5    5    0    0 -0.15749315546E+01 -0.18671067136E+02  0.14994254544E+03  0.15110875584E+03  0.00000000000E+00 0.  1.
          5    1    4    4  501    0  0.56803214604E+02 -0.43864220243E+02  0.99373819209E+02  0.12265114492E+03  0.41800000000E+01 0. -1.
         -5    1    4    4    0  501 -0.46378601225E+02  0.28071939502E+02  0.87534513191E+02  0.10304742519E+03  0.41800000000E+01 0. -1.
</event>
<event>
11    1  0.8453735E-009  0.1484287E+03  0.7561462E-02  0.1098495E+00
         22   -1    0    0    0    0  0.00000000000E+00  0.00000000000E+00  0.11822252451E+04  0.11822252451E+04  0.00000000000E+00 0.  1.
         22   -1    0    0    0    0 -0.00000000000E+00 -0.00000000000E+00 -0.22051328006E+04  0.22051328006E+04  0.00000000000E+00 0. -1.
         24    2    1    2    0    0 -0.74632906482E+02 -0.21531573875E+02 -0.18864773735E+04  0.18897613346E+04  0.79795623906E+02 0.  0.
         25    2    1    2    0    0  0.12776421681E+03 -0.32301734837E+02 -0.28810104374E+03  0.34061201582E+03  0.12508891537E+03 0.  0.
        -24    2    1    2    0    0 -0.53131310325E+02  0.53833308712E+02  0.11516708618E+04  0.11569846952E+04  0.80912606050E+02 0.  0.
        -13    1    3    3    0    0  0.50665811127E+01  0.14056878365E+02 -0.95830411385E+02  0.96988317955E+02  0.00000000000E+00 0.  1.
         14    1    3    3    0    0 -0.79699487595E+02 -0.35588452240E+02 -0.17906469621E+04  0.17927730166E+04  0.00000000000E+00 0. -1.
         11    1    5    5    0    0 -0.46135308364E+02  0.61525530657E+01  0.86819615370E+03  0.86944285718E+03  0.00000000000E+00 0. -1.
        -12    1    5    5    0    0 -0.69960019608E+01  0.47680755646E+02  0.28347470805E+03  0.28754183801E+03  0.00000000000E+00 0.  1.
          5    1    4    4  501    0  0.90350318690E+02 -0.74744213991E+02 -0.14403625590E+03  0.18577888207E+03  0.41800000000E+01 0.  1.
         -5    1    4    4    0  501  0.37413898116E+02  0.42442479154E+02 -0.14406478785E+03  0.15483313375E+03  0.41800000000E+01 0.  1.
</event>
<event>
11    1  0.8453735E-009  0.2498420E+03  0.7561462E-02  0.1023983E+00
         22   -1    0    0    0    0  0.00000000000E+00  0.00000000000E+00  0.10946981768E+03  0.10946981768E+03  0.00000000000E+00 0. -1.
         22   -1    0    0    0    0 -0.00000000000E+00 -0.00000000000E+00 -0.83984923219E+03  0.83984923219E+03  0.00000000000E+00 0.  1.
        -24    2    1    2    0    0  0.15427619178E+03 -0.17891778055E+03 -0.43909863844E+03  0.50492428598E+03  0.79550014114E+02 0.  0.
         25    2    1    2    0    0 -0.13769775737E+03  0.13173345284E+03 -0.25710962476E+03  0.34360992530E+03  0.12509215257E+03 0.  0.
         24    2    1    2    0    0 -0.16578434410E+02  0.47184327705E+02 -0.34171151300E+02  0.10078483860E+03  0.80552534669E+02 0.  0.
        -13    1    5    5    0    0  0.23485342715E+02 -0.52126894227E+01 -0.24117227275E+02  0.34064264337E+02  0.00000000000E+00 0.  1.
         14    1    5    5    0    0 -0.40063777125E+02  0.52397017127E+02 -0.10053924026E+02  0.66720574261E+02  0.00000000000E+00 0. -1.
         13    1    3    3    0    0  0.10932025705E+03 -0.70108298009E+02 -0.20093767255E+03  0.23925308838E+03  0.00000000000E+00 0. -1.
        -14    1    3    3    0    0  0.44955934727E+02 -0.10880948254E+03 -0.23816096590E+03  0.26567119760E+03  0.00000000000E+00 0.  1.
          5    1    4    4  501    0 -0.10376206198E+02  0.80409751396E+02 -0.14558761740E+03  0.16669319277E+03  0.41800000000E+01 0.  1.
         -5    1    4    4    0  501 -0.12732155117E+03  0.51323701444E+02 -0.11152200736E+03  0.17691673253E+03  0.41800000000E+01 0.  1.
</event>
<event>
11    1  0.8453735E-009  0.1985585E+03  0.7561462E-02  0.1055548E+00
         22   -1    0    0    0    0  0.00000000000E+00  0.00000000000E+00  0.17517734268E+03  0.17517734268E+03  0.00000000000E+00 0. -1.
         22   -1    0    0    0    0 -0.00000000000E+00 -0.00000000000E+00 -0.10954574803E+04  0.10954574803E+04  0.00000000000E+00 0. -1.
        -24    2    1    2    0    0 -0.21277901227E+02  0.42738078991E+02 -0.84947997332E+03  0.85353292622E+03  0.67992195115E+02 0.  0.
         25    2    1    2    0    0  0.14281506064E+03  0.55825162890E+02 -0.12367646539E+03  0.23335894623E+03  0.12509172369E+03 0.  0.
         24    2    1    2    0    0 -0.12153715942E+03 -0.98563241882E+02  0.52876301095E+02  0.18374295053E+03  0.80495806606E+02 0.  0.
        -11    1    5    5    0    0 -0.75141276204E+01 -0.91202733910E+01 -0.18693380759E+02  0.22115243269E+02  0.00000000000E+00 0.  1.
         12    1    5    5    0    0 -0.11402303180E+03 -0.89442968491E+02  0.71569681854E+02  0.16162770726E+03  0.00000000000E+00 0. -1.
         11    1    3    3    0    0 -0.26618040242E+01  0.19654296266E+02 -0.73521560442E+03  0.73548308039E+03  0.00000000000E+00 0. -1.
        -12    1    3    3    0    0 -0.18616097203E+02  0.23083782725E+02 -0.11426436890E+03  0.11804984583E+03  0.00000000000E+00 0.  1.
          5    1    4    4  501    0  0.12929077184E+03 -0.34387720669E+01 -0.52458294325E+02  0.13963263902E+03  0.41800000000E+01 0. -1.
         -5    1    4    4    0  501  0.13524288806E+02  0.59263934957E+02 -0.71218171060E+02  0.93726307212E+02  0.41800000000E+01 0. -1.
</event>
<event>
11    1  0.8453735E-009  0.1424567E+03  0.7561462E-02  0.1104846E+00
         22   -1    0    0    0    0  0.00000000000E+00  0.00000000000E+00  0.14898504070E+04  0.14898504070E+04  0.00000000000E+00 0. -1.
         22   -1    0    0    0    0 -0.00000000000E+00 -0.00000000000E+00 -0.91982427598E+03  0.91982427598E+03  0.00000000000E+00 0. -1.
        -24    2    1    2    0    0 -0.93396534310E+01  0.15766328538E+02 -0.49618231152E+03  0.50287821385E+03  0.79710761252E+02 0.  0.
         25    2    1    2    0    0 -0.42233978036E+02 -0.60305610530E+02 -0.40585484338E+03  0.43103015125E+03  0.12509341241E+03 0.  0.
         24    2    1    2    0    0  0.51573631467E+02  0.44539281992E+02  0.14720632859E+04  0.14757663179E+04  0.79197980306E+02 0.  0.
        -11    1    5    5    0    0 -0.31305031914E+00  0.15694732011E+02  0.98129358832E+03  0.98141914037E+03  0.00000000000E+00 0.  1.
         12    1    5    5    0    0  0.51886681786E+02  0.28844549981E+02  0.49076969762E+03  0.49434717751E+03  0.00000000000E+00 0. -1.
         11    1    3    3    0    0  0.29844658041E+02  0.18224971698E+02 -0.34170619679E+03  0.34349087053E+03  0.00000000000E+00 0. -1.
        -12    1    3    3    0    0 -0.39184311472E+02 -0.24586431603E+01 -0.15447611473E+03  0.15938734333E+03  0.00000000000E+00 0.  1.
          5    1    4    4  501    0 -0.49078480822E+02 -0.93967971318E+01 -0.47772305830E+02  0.69257943085E+02  0.41800000000E+01 0. -1.
         -5    1    4    4    0  501  0.68445027861E+01 -0.50908813398E+02 -0.35808253755E+03  0.36177220817E+03  0.41800000000E+01 0. -1.
</event>
<event>
11    1  0.8453735E-009  0.2165926E+03  0.7561462E-02  0.1043373E+00
         22   -1    0    0    0    0  0.00000000000E+00  0.00000000000E+00  0.19459735880E+04  0.19459735880E+04  0.00000000000E+00 0.  1.
         22   -1    0    0    0    0 -0.00000000000E+00 -0.00000000000E+00 -0.48272630981E+03  0.48272630981E+03  0.00000000000E+00 0. -1.
        -24    2    1    2    0    0 -0.14646647585E+03 -0.92611809273E+02 -0.42165353939E+03  0.46274417376E+03  0.79442352095E+02 0.  0.
         25    2    1    2    0    0  0.20529964714E+03 -0.78815528571E+02  0.43979423752E+03  0.50737189550E+03  0.12508971310E+03 0.  0.
         24    2    1    2    0    0 -0.58833171296E+02  0.17142733784E+03  0.14451065801E+04  0.14585838286E+04  0.79278515274E+02 0.  0.
        -13    1    5    5    0    0 -0.53235977856E+02  0.17147958769E+03  0.14395228268E+04  0.14506775270E+04  0.00000000000E+00 0.  1.
         14    1    5    5    0    0 -0.55971934405E+01 -0.52249843286E-01  0.55837532433E+01  0.79063015841E+01  0.00000000000E+00 0. -1.
         11    1    3    3    0    0 -0.72945593301E+02 -0.33182865240E+02 -0.28863769285E+03  0.29955613808E+03  0.00000000000E+00 0. -1.
        -12    1    3    3    0    0 -0.73520882545E+02 -0.59428944033E+02 -0.13301584655E+03  0.16318803569E+03  0.00000000000E+00 0.  1.
          5    1    4    4  501    0  0.55177740476E+02 -0.65233334329E+02  0.25439479954E+03  0.26839179828E+03  0.41800000000E+01 0.  1.
         -5    1    4    4    0  501  0.15012190667E+03 -0.13582194241E+02  0.18539943798E+03  0.23898009722E+03  0.41800000000E+01 0.  1.
</event>
<event>
11    1  0.8453735E-009  0.1701882E+03  0.7561462E-02  0.1077868E+00
         22   -1    0    0    0    0  0.00000000000E+00  0.00000000000E+00  0.42845916999E+03  0.42845916999E+03  0.00000000000E+00 0.  1.
         22   -1    0    0    0    0 -0.00000000000E+00 -0.00000000000E+00 -0.27852331016E+03  0.27852331016E+03  0.00000000000E+00 0. -1.
         24    2    1    2    0    0 -0.10597421306E+02  0.13857202644E+02 -0.19369395538E+03  0.21029599835E+03  0.80017067967E+02 0.  0.
         25    2    1    2    0    0 -0.99161463446E+02 -0.53039634008E+02  0.60384094806E+02  0.17871742164E+03  0.12508988481E+03 0.  0.
        -24    2    1    2    0    0  0.10975888475E+03  0.39182431365E+02  0.28324572041E+03  0.31796906017E+03  0.85404387384E+02 0.  0.
        -13    1    3    3    0    0 -0.12877356968E+02  0.22504720163E+02 -0.12328674301E+02  0.28710363323E+02  0.00000000000E+00 0.  1.
         14    1    3    3    0    0  0.22799356613E+01 -0.86475175195E+01 -0.18136528108E+03  0.18158563502E+03  0.00000000000E+00 0. -1.
         11    1    5    5    0    0  0.38418514394E+02 -0.16504455353E+02  0.37788230808E+02  0.56358936135E+02  0.00000000000E+00 0. -1.
        -12    1    5    5    0    0  0.71340370359E+02  0.55686886717E+02  0.24545748960E+03  0.26161012403E+03  0.00000000000E+00 0.  1.
          5    1    4    4  501    0 -0.84283370531E+02  0.14658368313E+02  0.67308785540E+02  0.10893346281E+03  0.41800000000E+01 0.  1.
         -5    1    4    4    0  501 -0.14878092915E+02 -0.67698002321E+02 -0.69246907344E+01  0.69783958822E+02  0.41800000000E+01 0.  1.
</event>
<event>
11    1  0.8453735E-009  0.1562718E+03  0.7561462E-02  0.1090637E+00
         22   -1    0    0    0    0  0.00000000000E+00  0.00000000000E+00  0.10608113879E+03  0.10608113879E+03  0.00000000000E+00 0. -1.
         22   -1    0    0    0    0 -0.00000000000E+00 -0.00000000000E+00 -0.84549528934E+03  0.84549528934E+03  0.00000000000E+00 0.  1.
        -24    2    1    2    0    0  0.46954393686E+02 -0.81297309434E+02 -0.68510148283E+03  0.69634136485E+03  0.81934650899E+02 0.  0.
         25    2    1    2    0    0 -0.43252279014E+02  0.81871740956E+02 -0.77036072403E+02  0.17361326141E+03  0.12503306155E+03 0.  0.
         24    2    1    2    0    0 -0.37021146718E+01 -0.57443152228E+00  0.22723404678E+02  0.81621801861E+02  0.78305362487E+02 0.  0.
        -11    1    5    5    0    0 -0.40239202470E+02 -0.23078276765E+01  0.39253701581E+01  0.40496024680E+02  0.00000000000E+00 0.  1.
         12    1    5    5    0    0  0.36537087798E+02  0.17333961542E+01  0.18798034520E+02  0.41125777182E+02  0.00000000000E+00 0. -1.
         13    1    3    3    0    0 -0.20882566934E+02 -0.31499574703E+01 -0.11358144892E+03  0.11552813238E+03  0.00000000000E+00 0. -1.
        -14    1    3    3    0    0  0.67836960620E+02 -0.78147351964E+02 -0.57152003392E+03  0.58081323247E+03  0.00000000000E+00 0.  1.
          5    1    4    4  501    0 -0.40471510223E+02  0.11171945670E+02  0.25249282951E+02  0.49170664011E+02  0.41800000000E+01 0. -1.
         -5    1    4    4    0  501 -0.27807687912E+01  0.70699795286E+02 -0.10228535535E+03  0.12444259740E+03  0.41800000000E+01 0. -1.
</event>
<event>
11    1  0.8453735E-009  0.2180572E+03  0.7561462E-02  0.1042441E+00
         22   -1    0    0    0    0  0.00000000000E+00  0.00000000000E+00  0.81958111911E+03  0.81958111911E+03  0.00000000000E+00 0. -1.
         22   -1    0    0    0    0 -0.00000000000E+00 -0.00000000000E+00 -0.55850134341E+03  0.55850134341E+03  0.00000000000E+00 0. -1.
         24    2    1    2    0    0 -0.14206353874E+03  0.11352665757E+03 -0.48086347996E+03  0.52034055828E+03  0.80338404372E+02 0.  0.
         25    2    1    2    0    0  0.14429960495E+03 -0.56276332446E+02  0.12974205804E+03  0.23763361890E+03  0.12508930259E+03 0.  0.
        -24    2    1    2    0    0 -0.22360662131E+01 -0.57250325119E+02  0.61220119761E+03  0.62010828535E+03  0.80382706339E+02 0.  0.
        -13    1    3    3    0    0 -0.64330489821E+02  0.10029686909E+03 -0.31184251084E+03  0.33383173222E+03  0.00000000000E+00 0.  1.
         14    1    3    3    0    0 -0.77733048918E+02  0.13229788479E+02 -0.16902096912E+03  0.18650882606E+03  0.00000000000E+00 0. -1.
         13    1    5    5    0    0 -0.38906185268E+02 -0.37661160623E+02  0.41901268157E+03  0.42249696044E+03  0.00000000000E+00 0. -1.
        -14    1    5    5    0    0  0.36670119055E+02 -0.19589164497E+02  0.19318851605E+03  0.19761132490E+03  0.00000000000E+00 0.  1.
          5    1    4    4  501    0  0.13741977622E+03  0.31522912613E+01  0.76094882849E+02  0.15716881190E+03  0.41800000000E+01 0. -1.
         -5    1    4    4    0  501  0.68798287290E+01 -0.59428623708E+02  0.53647175195E+02  0.80464807000E+02  0.41800000000E+01 0. -1.
</event>
<event>
11    1  0.8453735E-009  0.2091183E+03  0.7561462E-02  0.1048257E+00
         22   -1    0    0    0    0  0.00000000000E+00  0.00000000000E+00  0.48815486966E+03  0.48815486966E+03  0.00000000000E+00 0.  1.
         22   -1    0    0    0    0 -0.00000000000E+00 -0.00000000000E+00 -0.21145727896E+03  0.21145727896E+03  0.00000000000E+00 0. -1.
        -24    2    1    2    0    0  0.77331637399E+02 -0.14161785046E+03 -0.80689750225E+02  0.19795020683E+03  0.81471779660E+02 0.  0.
         25    2    1    2    0    0 -0.14526365008E+03  0.14916750578E+03  0.27855855965E+03  0.36958782510E+03  0.12509123267E+03 0.  0.
         24    2    1    2    0    0  0.67932012683E+02 -0.75496553210E+01  0.78828781278E+02  0.13207411670E+03  0.80980490865E+02 0.  0.
        -11    1    5    5    0    0  0.16016309959E+02 -0.38544201819E+02  0.15522767839E+02  0.44532392704E+02  0.00000000000E+00 0.  1.
         12    1    5    5    0    0  0.51915702725E+02  0.30994546498E+02  0.63306013440E+02  0.87541723993E+02  0.00000000000E+00 0. -1.
         13    1    3    3    0    0  0.87085099622E+02 -0.89951497146E+02 -0.72673604959E+02  0.14476373604E+03  0.00000000000E+00 0. -1.
        -14    1    3    3    0    0 -0.97534622228E+01 -0.51666353311E+02 -0.80161452657E+01  0.53186470786E+02  0.00000000000E+00 0.  1.
          5    1    4    4  501    0  0.68235456407E+01  0.44079419183E+01  0.80177179488E+02  0.80695992699E+02  0.41800000000E+01 0. -1.
         -5    1    4    4    0  501 -0.15208719572E+03  0.14475956386E+03  0.19838138016E+03  0.28889183240E+03  0.41800000000E+01 0. -1.
</event>
<event>
11    1  0.8453735E-009  0.1921793E+03  0.7561462E-02  0.1060196E+00
         22   -1    0    0    0    0  0.00000000000E+00  0.00000000000E+00  0.10149090384E+04  0.10149090384E+04  0.00000000000E+00 0.  1.
         22   -1    0    0    0    0 -0.00000000000E+00 -0.00000000000E+00 -0.16829437230E+03  0.16829437230E+03  0.00000000000E+00 0.  1.
        -24    2    1    2    0    0  0.59263929233E+02 -0.45369568698E+02 -0.93390129875E+02  0.14411186350E+03  0.80472987842E+02 0.  0.
         25    2    1    2    0    0 -0.89772161319E+02 -0.10306956488E+03  0.17415871402E+03  0.25428868882E+03  0.12509637660E+03 0.  0.
         24    2    1    2    0    0  0.30508232086E+02  0.14843913358E+03  0.76584608194E+03  0.78480285837E+03  0.80189629476E+02 0.  0.
        -13    1    5    5    0    0  0.17681185571E+02  0.13926819265E+03  0.74769033114E+03  0.76075560141E+03  0.00000000000E+00 0.  1.
         14    1    5    5    0    0  0.12827046515E+02  0.91709409253E+01  0.18155750808E+02  0.24047256957E+02  0.00000000000E+00 0. -1.
         11    1    3    3    0    0 -0.17543526024E+02 -0.17183746172E+02 -0.38232054945E+02  0.45439481326E+02  0.00000000000E+00 0. -1.
        -12    1    3    3    0    0  0.76807455257E+02 -0.28185822527E+02 -0.55158074930E+02  0.98672382177E+02  0.00000000000E+00 0.  1.
          5    1    4    4  501    0 -0.43698328609E+02 -0.12332455104E+03  0.14739473235E+03  0.19713236248E+03  0.41800000000E+01 0. -1.
         -5    1    4    4    0  501 -0.46073832710E+02  0.20254986167E+02  0.26763981674E+02  0.57156326336E+02  0.41800000000E+01 0. -1.
</event>
<event>
11    1  0.8453735E-009  0.1814181E+03  0.7561462E-02  0.1068502E+00
         22   -1    0    0    0    0  0.00000000000E+00  0.00000000000E+00  0.74356348143E+03  0.74356348143E+03  0.00000000000E+00 0. -1.
         22   -1    0    0    0    0 -0.00000000000E+00 -0.00000000000E+00 -0.54037334725E+03  0.54037334725E+03  0.00000000000E+00 0. -1.
        -24    2    1    2    0    0 -0.10115259759E+02  0.15075763470E+02 -0.30328253656E+03  0.31533840230E+03  0.84429934606E+02 0.  0.
         25    2    1    2    0    0 -0.99306141528E+02  0.58772835936E+02 -0.19011228651E+03  0.25515877619E+03  0.12508942240E+03 0.  0.
         24    2    1    2    0    0  0.10942140129E+03 -0.73848599406E+02  0.69658495724E+03  0.71343965020E+03  0.79617040429E+02 0.  0.
        -13    1    5    5    0    0  0.66671361970E+02 -0.76474260316E+02  0.35608682600E+03  0.37025830261E+03  0.00000000000E+00 0.  1.
         14    1    5    5    0    0  0.42750039318E+02  0.26256609095E+01  0.34049813124E+03  0.34318134759E+03  0.00000000000E+00 0. -1.
         11    1    3    3    0    0 -0.19263334219E+02 -0.65841402702E+01 -0.28454662898E+03  0.28527392277E+03  0.00000000000E+00 0. -1.
        -12    1    3    3    0    0  0.91480744593E+01  0.21659903741E+02 -0.18735907574E+02  0.30064479523E+02  0.00000000000E+00 0.  1.
          5    1    4    4  501    0  0.21974854776E+02  0.76359089571E+01  0.30881068251E+00  0.23638297571E+02  0.41800000000E+01 0. -1.
         -5    1    4    4    0  501 -0.12128099630E+03  0.51136926979E+02 -0.19042109719E+03  0.23152047862E+03  0.41800000000E+01 0. -1.
</event>
<event>
11    1  0.8453735E-009  0.1782045E+03  0.7561462E-02  0.1071104E+00
         22   -1    0    0    0    0  0.00000000000E+00  0.00000000000E+00  0.46734632125E+03  0.46734632125E+03  0.00000000000E+00 0. -1.
         22   -1    0    0    0    0 -0.00000000000E+00 -0.00000000000E+00 -0.11639578413E+04  0.11639578413E+04  0.00000000000E+00 0.  1.
        -24    2    1    2    0    0  0.49972874812E+02  0.11620003990E+03 -0.11110885127E+04  0.11208185624E+04  0.75609717079E+02 0.  0.
         25    2    1    2    0    0 -0.58140543760E+02 -0.13553118284E+03  0.19071125278E+03  0.27160137077E+03  0.12508996090E+03 0.  0.
         24    2    1    2    0    0  0.81676689480E+01  0.19331142940E+02  0.22376573986E+03  0.23888422937E+03  0.80957796432E+02 0.  0.
        -11    1    5    5    0    0  0.41987315011E+02  0.95114333158E+01  0.16360101106E+03  0.16917060267E+03  0.00000000000E+00 0.  1.
         12    1    5    5    0    0 -0.33819646063E+02  0.98197096247E+01  0.60164728798E+02  0.69713626705E+02  0.00000000000E+00 0. -1.
         13    1    3    3    0    0 -0.19427395159E+01  0.31613150062E+02 -0.10060830317E+03  0.10547604544E+03  0.00000000000E+00 0. -1.
        -14    1    3    3    0    0  0.51915614328E+02  0.84586889839E+02 -0.10104802095E+04  0.10153425170E+04  0.00000000000E+00 0.  1.
          5    1    4    4  501    0  0.10358067533E+02 -0.11665080434E+03  0.87589643272E+02  0.14630146180E+03  0.41800000000E+01 0.  1.
         -5    1    4    4    0  501 -0.68498611294E+02 -0.18880378501E+02  0.10312160951E+03  0.12529990897E+03  0.41800000000E+01 0.  1.
</event>
<event>
11    1  0.8453735E-009  0.1418171E+03  0.7561462E-02  0.1105546E+00
         22   -1    0    0    0    0  0.00000000000E+00  0.00000000000E+00  0.13358876315E+04  0.13358876315E+04  0.00000000000E+00 0.  1.
         22   -1    0    0    0    0 -0.00000000000E+00 -0.00000000000E+00 -0.81406000517E+03  0.81406000517E+03  0.00000000000E+00 0. -1.
         24    2    1    2    0    0  0.13029777870E+02 -0.31743742801E+02 -0.79410295451E+03  0.79911040012E+03  0.82465076911E+02 0.  0.
         25    2    1    2    0    0  0.54630953136E+02  0.13718459591E+02  0.30671195281E+03  0.33599416761E+03  0.12508845471E+03 0.  0.
        -24    2    1    2    0    0 -0.67660731006E+02  0.18025283210E+02  0.10092186280E+04  0.10148430689E+04  0.80506708034E+02 0.  0.
        -13    1    3    3    0    0 -0.11708173803E+02  0.10560128487E+02 -0.34543862739E+02  0.37972043668E+02  0.00000000000E+00 0.  1.
         14    1    3    3    0    0  0.24737951672E+02 -0.42303871287E+02 -0.75955909177E+03  0.76113835645E+03  0.00000000000E+00 0. -1.
         11    1    5    5    0    0 -0.65280080412E+01  0.38425546722E+02  0.26671641265E+03  0.26954922057E+03  0.00000000000E+00 0. -1.
        -12    1    5    5    0    0 -0.61132722964E+02 -0.20400263512E+02  0.74250221537E+03  0.74529384835E+03  0.00000000000E+00 0.  1.
          5    1    4    4  501    0  0.50830184563E+02  0.62116136397E+02  0.24194287047E+03  0.25494302704E+03  0.41800000000E+01 0. -1.
         -5    1    4    4    0  501  0.38007685726E+01 -0.48397676806E+02  0.64769082336E+02  0.81051140575E+02  0.41800000000E+01 0.  1.
</event>
<event>
11    1  0.8453735E-009  0.2264327E+03  0.7561462E-02  0.1037261E+00
         22   -1    0    0    0    0  0.00000000000E+00  0.00000000000E+00  0.54643184460E+03  0.54643184460E+03  0.00000000000E+00 0.  1.
         22   -1    0    0    0    0 -0.00000000000E+00 -0.00000000000E+00 -0.20593763782E+04  0.20593763782E+04  0.00000000000E+00 0.  1.
        -24    2    1    2    0    0  0.18134636460E+03  0.52980725524E+02 -0.19971930365E+04  0.20079914969E+04  0.86927356804E+02 0.  0.
         25    2    1    2    0    0 -0.17335878831E+03 -0.51518357801E+02  0.18233374121E+03  0.28565735555E+03  0.12508845238E+03 0.  0.
         24    2    1    2    0    0 -0.79875762823E+01 -0.14623677232E+01  0.30191476164E+03  0.31215937039E+03  0.78898728358E+02 0.  0.
        -13    1    5    5    0    0  0.31532147510E+02 -0.11892435708E+02  0.19106481853E+03  0.19401410061E+03  0.00000000000E+00 0.  1.
         14    1    5    5    0    0 -0.39519723792E+02  0.10430067985E+02  0.11084994310E+03  0.11814526979E+03  0.00000000000E+00 0. -1.
         13    1    3    3    0    0  0.93126713178E+02  0.68628589590E+02 -0.96264637141E+03  0.96957233067E+03  0.00000000000E+00 0. -1.
        -14    1    3    3    0    0  0.88219651418E+02 -0.15647864066E+02 -0.10345466651E+04  0.10384191662E+04  0.00000000000E+00 0.  1.
          5    1    4    4  501    0 -0.18104485986E+03 -0.50941576967E+02  0.19454493412E+03  0.27062425859E+03  0.41800000000E+01 0. -1.
         -5    1    4    4    0  501  0.76860715440E+01 -0.57678083426E+00 -0.12211192909E+02  0.15033096959E+02  0.41800000000E+01 0. -1.
</event>
<event>
11    1  0.8453735E-009  0.1381061E+03  0.7561462E-02  0.1109692E+00
         22   -1    0    0    0    0  0.00000000000E+00  0.00000000000E+00  0.37840495072E+02  0.37840495072E+02  0.00000000000E+00 0. -1.
         22   -1    0    0    0    0 -0.00000000000E+00 -0.00000000000E+00 -0.12603793709E+04  0.12603793709E+04  0.00000000000E+00 0. -1.
        -24    2    1    2    0    0  0.57663071589E+01  0.36947647605E+02 -0.73631065444E+03  0.74161965691E+03  0.80299170054E+02 0.  0.
         25    2    1    2    0    0  0.45729487771E+02 -0.59296658636E+02 -0.40215646772E+03  0.42776734333E+03  0.12509114962E+03 0.  0.
         24    2    1    2    0    0 -0.51495794930E+02  0.22349011030E+02 -0.84071753649E+02  0.12883286571E+03  0.79865839608E+02 0.  0.
        -11    1    5    5    0    0  0.12671939227E+02  0.12024651297E+02  0.53656237363E+01  0.18274577989E+02  0.00000000000E+00 0.  1.
         12    1    5    5    0    0 -0.64167734157E+02  0.10324359734E+02 -0.89437377385E+02  0.11055828772E+03  0.00000000000E+00 0. -1.
         11    1    3    3    0    0  0.34357318514E+02  0.36413831928E+02 -0.61280965065E+03  0.61485125065E+03  0.00000000000E+00 0. -1.
        -12    1    3    3    0    0 -0.28591011355E+02  0.53381567723E+00 -0.12350100378E+03  0.12676840626E+03  0.00000000000E+00 0.  1.
          5    1    4    4  501    0  0.32441227220E+02 -0.65910491866E+02 -0.94706477608E+02  0.11993087785E+03  0.41800000000E+01 0. -1.
         -5    1    4    4    0  501  0.13288260551E+02  0.66138332298E+01 -0.30744999011E+03  0.30783646548E+03  0.41800000000E+01 0. -1.
</event>
<event>
11    1  0.8453735E-009  0.5476189E+03  0.7561462E-02  0.9292990E-01
         22   -1    0    0    0    0  0.00000000000E+00  0.00000000000E+00  0.77076754973E+03  0.77076754973E+03  0.00000000000E+00 0.  1.
         22   -1    0    0    0    0 -0.00000000000E+00 -0.00000000000E+00 -0.51825262736E+03  0.51825262736E+03  0.00000000000E+00 0.  1.
        -24    2    1    2    0    0 -0.22933575597E+03  0.52119429389E+03 -0.76152924862E+02  0.58002298590E+03  0.79931315834E+02 0.  0.
         25    2    1    2    0    0  0.22569304750E+03 -0.42261951714E+03  0.22066977663E+03  0.54211397410E+03  0.12509117728E+03 0.  0.
         24    2    1    2    0    0  0.36427084717E+01 -0.98574776747E+02  0.10799807060E+03  0.16688321710E+03  0.80350289109E+02 0.  0.
        -13    1    5    5    0    0  0.35574486705E+02 -0.51608304806E+02  0.27696983372E+02  0.68527980542E+02  0.00000000000E+00 0.  1.
         14    1    5    5    0    0 -0.31931778234E+02 -0.46966471941E+02  0.80301087232E+02  0.98355236558E+02  0.00000000000E+00 0. -1.
         13    1    3    3    0    0 -0.72572287741E+02  0.17319032029E+03 -0.63164234427E+02  0.19811952074E+03  0.00000000000E+00 0. -1.
        -14    1    3    3    0    0 -0.15676346823E+03  0.34800397360E+03 -0.12988690435E+02  0.38190346515E+03  0.00000000000E+00 0.  1.
          5    1    4    4  501    0  0.92029352068E+02 -0.29895903754E+03  0.14681381676E+03  0.34556862844E+03  0.41800000000E+01 0. -1.
         -5    1    4    4    0  501  0.13366369543E+03 -0.12366047960E+03  0.73855959869E+02  0.19654534566E+03  0.41800000000E+01 0. -1.
</event>
<event>
11    1  0.8453735E-009  0.1887738E+03  0.7561462E-02  0.1062759E+00
         22   -1    0    0    0    0  0.00000000000E+00  0.00000000000E+00  0.39982161887E+02  0.39982161887E+02  0.00000000000E+00 0.  1.
         22   -1    0    0    0    0 -0.00000000000E+00 -0.00000000000E+00 -0.22484521674E+04  0.22484521674E+04  0.00000000000E+00 0. -1.
        -24    2    1    2    0    0 -0.92753893241E+01 -0.75718184574E+02 -0.87678772294E+03  0.88379224632E+03  0.80701593788E+02 0.  0.
         25    2    1    2    0    0  0.14832964735E+03  0.48415797077E+02 -0.11195490947E+04  0.11372703284E+04  0.12509136912E+03 0.  0.
         24    2    1    2    0    0 -0.13905425802E+03  0.27302387497E+02 -0.21213318790E+03  0.26737175463E+03  0.80035359254E+02 0.  0.
        -13    1    5    5    0    0 -0.27108866543E+02 -0.85558883876E+01 -0.45104586335E+01  0.28782600793E+02  0.00000000000E+00 0.  1.
         14    1    5    5    0    0 -0.11194539148E+03  0.35858275885E+02 -0.20762272926E+03  0.23858915384E+03  0.00000000000E+00 0. -1.
         13    1    3    3    0    0  0.13222241278E+01 -0.82975975384E+02 -0.85045037039E+03  0.85448966832E+03  0.00000000000E+00 0. -1.
        -14    1    3    3    0    0 -0.10597613452E+02  0.72577908102E+01 -0.26337352549E+02  0.29302578002E+02  0.00000000000E+00 0.  1.
          5    1    4    4  501    0  0.11888857630E+02 -0.17054005589E+02 -0.27244777849E+02  0.34524402419E+02  0.41800000000E+01 0. -1.
         -5    1    4    4    0  501  0.13644078972E+03  0.65469802666E+02 -0.10923043169E+04  0.11027459259E+04  0.41800000000E+01 0. -1.
</event>
<event>
11    1  0.8453735E-009  0.1551522E+03  0.7561462E-02  0.1091728E+00
         22   -1    0    0    0    0  0.00000000000E+00  0.00000000000E+00  0.81442101350E+03  0.81442101350E+03  0.00000000000E+00 0. -1.
         22   -1    0    0    0    0 -0.00000000000E+00 -0.00000000000E+00 -0.12053069091E+03  0.12053069091E+03  0.00000000000E+00 0. -1.
         24    2    1    2    0    0 -0.26107963099E+02 -0.97589014553E+02  0.29286156824E+01  0.12898891075E+03  0.80151860910E+02 0.  0.
         25    2    1    2    0    0  0.36599762331E+02  0.70051763083E+02  0.45368864119E+02  0.15476636382E+03  0.12508997332E+03 0.  0.
        -24    2    1    2    0    0 -0.10491799232E+02  0.27537251469E+02  0.64559284279E+03  0.65119642984E+03  0.79989333701E+02 0.  0.
        -13    1    3    3    0    0  0.16199766487E+02  0.37043697407E+01  0.92763635493E+01  0.19031702764E+02  0.00000000000E+00 0.  1.
         14    1    3    3    0    0 -0.42307729587E+02 -0.10129338429E+03 -0.63477478668E+01  0.10995720798E+03  0.00000000000E+00 0. -1.
         13    1    5    5    0    0 -0.25887538550E+02 -0.21546302492E+02  0.23858408658E+03  0.24094973371E+03  0.00000000000E+00 0. -1.
        -14    1    5    5    0    0  0.15395739318E+02  0.49083553961E+02  0.40700875621E+03  0.41024669614E+03  0.00000000000E+00 0.  1.
          5    1    4    4  501    0  0.78510509509E+02  0.70782488550E+02  0.34295628135E+02  0.11121026615E+03  0.41800000000E+01 0. -1.
         -5    1    4    4    0  501 -0.41910747178E+02 -0.73072546652E+00  0.11073235985E+02  0.43556097666E+02  0.41800000000E+01 0. -1.
</event>
<event>
11    1  0.8453735E-009  0.2997862E+03  0.7561462E-02  0.1000282E+00
         22   -1    0    0    0    0  0.00000000000E+00  0.00000000000E+00  0.12652957295E+04  0.12652957295E+04  0.00000000000E+00 0. -1.
         22   -1    0    0    0    0 -0.00000000000E+00 -0.00000000000E+00 -0.45662240438E+03  0.45662240438E+03  0.00000000000E+00 0. -1.
         24    2    1    2    0    0 -0.26016614382E+03  0.82773048862E+02 -0.37481668949E+03  0.46987663281E+03  0.75886094455E+02 0.  0.
         25    2    1    2    0    0  0.25115115941E+03 -0.82030911492E+02  0.64877486464E+03  0.71159173229E+03  0.12509193880E+03 0.  0.
        -24    2    1    2    0    0  0.90149844160E+01 -0.74213737073E+00  0.53471514992E+03  0.54044976874E+03  0.77998976001E+02 0.  0.
        -11    1    3    3    0    0 -0.56785887920E+02  0.52657054622E+02 -0.92707193910E+02  0.12079745970E+03  0.00000000000E+00 0.  1.
         12    1    3    3    0    0 -0.20338025590E+03  0.30115994240E+02 -0.28210949558E+03  0.34907917311E+03  0.00000000000E+00 0. -1.
         13    1    5    5    0    0 -0.12103670036E+02  0.11416296881E+02  0.24283124176E+02  0.29436385352E+02  0.00000000000E+00 0. -1.
        -14    1    5    5    0    0  0.21118654452E+02 -0.12158434251E+02  0.51043202575E+03  0.51101338339E+03  0.00000000000E+00 0.  1.
          5    1    4    4  501    0  0.21362803028E+03 -0.11396799861E+03  0.51907683512E+03  0.57278606232E+03  0.41800000000E+01 0. -1.
         -5    1    4    4    0  501  0.37523129131E+02  0.31937087118E+02  0.12969802952E+03  0.13880566997E+03  0.41800000000E+01 0. -1.
</event>
<event>
11    1  0.8453735E-009  0.1453093E+03  0.7561462E-02  0.1101770E+00
         22   -1    0    0    0    0  0.00000000000E+00  0.00000000000E+00  0.57361015404E+03  0.57361015404E+03  0.00000000000E+00 0.  1.
         22   -1    0    0    0    0 -0.00000000000E+00 -0.00000000000E+00 -0.79105269493E+02  0.79105269493E+02  0.00000000000E+00 0.  1.
        -24    2    1    2    0    0 -0.81038573589E+02  0.15231335309E+02  0.28994185787E+01  0.11031648665E+03  0.73226201684E+02 0.  0.
         25    2    1    2    0    0  0.37189305321E+02  0.38376724099E+01  0.23554289968E+03  0.26930525433E+03  0.12508832983E+03 0.  0.
         24    2    1    2    0    0  0.43849268268E+02 -0.19069007718E+02  0.25606256628E+03  0.27309368255E+03  0.82010586003E+02 0.  0.
        -11    1    5    5    0    0 -0.59021584702E+01  0.22842051998E+01  0.17789624660E+03  0.17800878524E+03  0.00000000000E+00 0.  1.
         12    1    5    5    0    0  0.49751426738E+02 -0.21353212918E+02  0.78166319678E+02  0.95084897310E+02  0.00000000000E+00 0. -1.
         13    1    3    3    0    0  0.11356321040E+02  0.10906979790E+02 -0.71174352323E+01  0.17279644672E+02  0.00000000000E+00 0. -1.
        -14    1    3    3    0    0 -0.92394894629E+02  0.43243555189E+01  0.10016853811E+02  0.93036841974E+02  0.00000000000E+00 0.  1.
          5    1    4    4  501    0 -0.90948096021E+01 -0.92957116083E+01  0.21722681785E+03  0.21765589496E+03  0.41800000000E+01 0.  1.
         -5    1    4    4    0  501  0.46284114923E+02  0.13133384018E+02  0.18316081832E+02  0.51649359373E+02  0.41800000000E+01 0.  1.
</event>
<event>
11    1  0.8453735E-009  0.1285137E+03  0.7561462E-02  0.1121109E+00
         22   -1    0    0    0    0  0.00000000000E+00  0.00000000000E+00  0.46283447874E+03  0.46283447874E+03  0.00000000000E+00 0. -1.
         22   -1    0    0    0    0 -0.00000000000E+00 -0.00000000000E+00 -0.22102175089E+04  0.22102175089E+04  0.00000000000E+00 0. -1.
        -24    2    1    2    0    0  0.29500214854E+02 -0.10056435153E+01 -0.21851565930E+04  0.21871195978E+04  0.87815289123E+02 0.  0.
         25    2    1    2    0    0 -0.10403083776E+02  0.73474942167E+01  0.22999493318E+03  0.26212365084E+03  0.12509568026E+03 0.  0.
         24    2    1    2    0    0 -0.19097131078E+02 -0.63418507014E+01  0.20777862971E+03  0.22380873899E+03  0.80706091460E+02 0.  0.
        -11    1    5    5    0    0  0.38229346865E+01  0.51609615613E+01 -0.58253107346E+01  0.86709053166E+01  0.00000000000E+00 0.  1.
         12    1    5    5    0    0 -0.22920065765E+02 -0.11502812263E+02  0.21360394045E+03  0.21513783368E+03  0.00000000000E+00 0. -1.
         13    1    3    3    0    0 -0.19171121545E+02  0.72084501019E+01 -0.15185286220E+04  0.15186667408E+04  0.00000000000E+00 0. -1.
        -14    1    3    3    0    0  0.48671336398E+02 -0.82140936172E+01 -0.66662797099E+03  0.66845285700E+03  0.00000000000E+00 0.  1.
          5    1    4    4  501    0  0.34550275092E+02  0.44020363888E+02  0.16795587853E+03  0.17708236354E+03  0.41800000000E+01 0. -1.
         -5    1    4    4    0  501 -0.44953358868E+02 -0.36672869671E+02  0.62039054649E+02  0.85041287297E+02  0.41800000000E+01 0. -1.
</event>
<event>
11    1  0.8453735E-009  0.1421186E+03  0.7561462E-02  0.1105215E+00
         22   -1    0    0    0    0  0.00000000000E+00  0.00000000000E+00  0.71224219323E+03  0.71224219323E+03  0.00000000000E+00 0.  1.
         22   -1    0    0    0    0 -0.00000000000E+00 -0.00000000000E+00 -0.20425654355E+03  0.20425654355E+03  0.00000000000E+00 0. -1.
         24    2    1    2    0    0 -0.32163545779E+02 -0.53048028445E+02 -0.11002775755E+03  0.14994278725E+03  0.80796936937E+02 0.  0.
         25    2    1    2    0    0 -0.24134274766E+02  0.89647441404E+02  0.17272085806E+02  0.15676725599E+03  0.12513401069E+03 0.  0.
        -24    2    1    2    0    0  0.56297820545E+02 -0.36599412959E+02  0.60074132141E+03  0.60978869355E+03  0.80269258729E+02 0.  0.
        -13    1    3    3    0    0 -0.18725306527E+02  0.12735298248E+02 -0.19788360901E+01  0.22731931687E+02  0.00000000000E+00 0.  1.
         14    1    3    3    0    0 -0.13438239252E+02 -0.65783326692E+02 -0.10804892146E+03  0.12721085556E+03  0.00000000000E+00 0. -1.
         13    1    5    5    0    0 -0.94227478466E+01  0.14847413417E+01  0.87502681324E+01  0.12944490188E+02  0.00000000000E+00 0. -1.
        -14    1    5    5    0    0  0.65720568391E+02 -0.38084154301E+02  0.59199105328E+03  0.59684420336E+03  0.00000000000E+00 0.  1.
          5    1    4    4  501    0  0.29258328497E+02  0.78447460449E+02 -0.25163083340E+02  0.87525464869E+02  0.41800000000E+01 0. -1.
         -5    1    4    4    0  501 -0.53392603263E+02  0.11199980955E+02  0.42435169146E+02  0.69241791117E+02  0.41800000000E+01 0. -1.
</event>
<event>
11    1  0.8453735E-009  0.1603013E+03  0.7561462E-02  0.1086794E+00
         22   -1    0    0    0    0  0.00000000000E+00  0.00000000000E+00  0.60826237368E+02  0.60826237368E+02  0.00000000000E+00 0.  1.
         22   -1    0    0    0    0 -0.00000000000E+00 -0.00000000000E+00 -0.24647157137E+04  0.24647157137E+04  0.00000000000E+00 0.  1.
         24    2    1    2    0    0  0.87973690705E+01 -0.22268274059E+02 -0.16834708764E+04  0.16855532732E+04  0.80264408787E+02 0.  0.
         25    2    1    2    0    0 -0.59617450208E+02  0.10567984821E+03 -0.68544827983E+03  0.70725963769E+03  0.12511746519E+03 0.  0.
        -24    2    1    2    0    0  0.50820081137E+02 -0.83411574149E+02 -0.34970320118E+02  0.13272904021E+03  0.82788305198E+02 0.  0.
        -11    1    3    3    0    0  0.39497768950E+02  0.83769838907E+01 -0.82093444052E+03  0.82192676270E+03  0.00000000000E+00 0.  1.
         12    1    3    3    0    0 -0.30700399879E+02 -0.30645257949E+02 -0.86253643585E+03  0.86362651046E+03  0.00000000000E+00 0. -1.
         13    1    5    5    0    0  0.34157436274E+02  0.78294148024E+01 -0.59485852399E+01  0.35544561544E+02  0.00000000000E+00 0. -1.
        -14    1    5    5    0    0  0.16662644863E+02 -0.91240988952E+02 -0.29021734878E+02  0.97184478669E+02  0.00000000000E+00 0.  1.
          5    1    4    4  501    0 -0.25888040998E+02  0.12992111851E+03 -0.51991855777E+03  0.53654679835E+03  0.41800000000E+01 0. -1.
         -5    1    4    4    0  501 -0.33729409210E+02 -0.24241270300E+02 -0.16552972205E+03  0.17071283934E+03  0.41800000000E+01 0. -1.
</event>
<event>
11    1  0.8453735E-009  0.1885714E+03  0.7561462E-02  0.1062913E+00
         22   -1    0    0    0    0  0.00000000000E+00  0.00000000000E+00  0.39105816249E+04  0.39105816249E+04  0.00000000000E+00 0.  1.
         22   -1    0    0    0    0 -0.00000000000E+00 -0.00000000000E+00 -0.34695699078E+03  0.34695699078E+03  0.00000000000E+00 0.  1.
         24    2    1    2    0    0 -0.39336596750E+02  0.13407898775E+03 -0.29354599289E+03  0.33448594895E+03  0.78657849618E+02 0.  0.
         25    2    1    2    0    0  0.13797363676E+03 -0.13418561015E+03  0.38288701727E+03  0.44642094415E+03  0.12508672581E+03 0.  0.
        -24    2    1    2    0    0 -0.98637040014E+02  0.10662240501E+00  0.34742836097E+04  0.34766317225E+04  0.81192711634E+02 0.  0.
        -11    1    3    3    0    0 -0.27282575508E+02  0.13410483578E+03 -0.29181127110E+03  0.32230771608E+03  0.00000000000E+00 0.  1.
         12    1    3    3    0    0 -0.12054021242E+02 -0.25848033298E-01 -0.17347217942E+01  0.12178232874E+02  0.00000000000E+00 0. -1.
         13    1    5    5    0    0 -0.12759515599E+01  0.10390164030E+02  0.57459256612E+02  0.58405048852E+02  0.00000000000E+00 0. -1.
        -14    1    5    5    0    0 -0.97361088454E+02 -0.10283541625E+02  0.34168243531E+04  0.34182266737E+04  0.00000000000E+00 0.  1.
          5    1    4    4  501    0  0.15288782328E+03 -0.14213668424E+03  0.32780595765E+03  0.38865375565E+03  0.41800000000E+01 0. -1.
         -5    1    4    4    0  501 -0.14914186515E+02  0.79510740896E+01  0.55081059619E+02  0.57767188501E+02  0.41800000000E+01 0. -1.
</event>
<event>
11    1  0.8453735E-009  0.1285696E+03  0.7561462E-02  0.1121039E+00
         22   -1    0    0    0    0  0.00000000000E+00  0.00000000000E+00  0.18415135705E+04  0.18415135705E+04  0.00000000000E+00 0.  1.
         22   -1    0    0    0    0 -0.00000000000E+00 -0.00000000000E+00 -0.10573566194E+03  0.10573566194E+03  0.00000000000E+00 0. -1.
        -24    2    1    2    0    0 -0.24304799617E+02  0.10425203523E+02 -0.23720503236E+02  0.92667035873E+02  0.85586851273E+02 0.  0.
         25    2    1    2    0    0  0.40716515166E+02  0.39644587574E+00  0.46520983087E+02  0.13953486969E+03  0.12509111166E+03 0.  0.
         24    2    1    2    0    0 -0.16411715549E+02 -0.10821649399E+02  0.17129774287E+04  0.17150473269E+04  0.81909765400E+02 0.  0.
        -11    1    5    5    0    0 -0.46276889940E+02 -0.14394477867E+02  0.13332393497E+04  0.13341199028E+04  0.00000000000E+00 0.  1.
         12    1    5    5    0    0  0.29865174391E+02  0.35728284679E+01  0.37973807907E+03  0.38092742411E+03  0.00000000000E+00 0. -1.
         13    1    3    3    0    0 -0.26383421887E+02  0.45398941498E+02 -0.44882839351E+01  0.52700033513E+02  0.00000000000E+00 0. -1.
        -14    1    3    3    0    0  0.20786222702E+01 -0.34973737974E+02 -0.19232219301E+02  0.39967002360E+02  0.00000000000E+00 0.  1.
          5    1    4    4  501    0 -0.22939197971E+02  0.44756981984E+02  0.33951725939E+02  0.60824224895E+02  0.41800000000E+01 0.  1.
         -5    1    4    4    0  501  0.63655713137E+02 -0.44360536109E+02  0.12569257149E+02  0.78710644795E+02  0.41800000000E+01 0.  1.
</event>
<event>
11    1  0.8453735E-009  0.1684465E+03  0.7561462E-02  0.1079391E+00
         22   -1    0    0    0    0  0.00000000000E+00  0.00000000000E+00  0.16250718970E+04  0.16250718970E+04  0.00000000000E+00 0.  1.
         22   -1    0    0    0    0 -0.00000000000E+00 -0.00000000000E+00 -0.12256795713E+03  0.12256795713E+03  0.00000000000E+00 0. -1.
        -24    2    1    2    0    0 -0.80213217196E+02 -0.84843059989E+02 -0.59311258067E+02  0.16048447807E+03  0.92762801415E+02 0.  0.
         25    2    1    2    0    0  0.74189064759E+02  0.27685115389E+02  0.51972420823E+03  0.54039760575E+03  0.12508331917E+03 0.  0.
         24    2    1    2    0    0  0.60241524370E+01  0.57157944600E+02  0.10420909897E+04  0.10467577703E+04  0.80279996605E+02 0.  0.
        -11    1    5    5    0    0  0.10953317250E+02  0.30054013361E+02  0.95226979316E+03  0.95280689431E+03  0.00000000000E+00 0.  1.
         12    1    5    5    0    0 -0.49291648126E+01  0.27103931239E+02  0.89821196564E+02  0.93950876029E+02  0.00000000000E+00 0. -1.
         11    1    3    3    0    0 -0.54673204347E+02 -0.34229323645E+01 -0.50833799532E+02  0.74732529159E+02  0.00000000000E+00 0. -1.
        -12    1    3    3    0    0 -0.25540012849E+02 -0.81420127624E+02 -0.84774585343E+01  0.85751948910E+02  0.00000000000E+00 0.  1.
          5    1    4    4  501    0 -0.32434988342E+02  0.25208976443E+02  0.14150762094E+03  0.14740895545E+03  0.41800000000E+01 0.  1.
         -5    1    4    4    0  501  0.10662405310E+03  0.24761389451E+01  0.37821658730E+03  0.39298865031E+03  0.41800000000E+01 0.  1.
</event>
<event>
11    1  0.8453735E-009  0.1338879E+03  0.7561462E-02  0.1114582E+00
         22   -1    0    0    0    0  0.00000000000E+00  0.00000000000E+00  0.23743548467E+03  0.23743548467E+03  0.00000000000E+00 0. -1.
         22   -1    0    0    0    0 -0.00000000000E+00 -0.00000000000E+00 -0.25610309235E+04  0.25610309235E+04  0.00000000000E+00 0. -1.
         24    2    1    2    0    0 -0.95719208909E+01 -0.16841188723E+02 -0.24953181038E+04  0.24966934728E+04  0.80564325356E+02 0.  0.
         25    2    1    2    0    0  0.55131962862E+02  0.12887419078E+02  0.43464371216E+02  0.14402256011E+03  0.12509087639E+03 0.  0.
        -24    2    1    2    0    0 -0.45560041971E+02  0.39537696456E+01  0.12825829384E+03  0.15775037521E+03  0.79646978745E+02 0.  0.
        -11    1    3    3    0    0  0.57776514318E+01  0.28785582991E+02 -0.14134290219E+04  0.14137339180E+04  0.00000000000E+00 0.  1.
         12    1    3    3    0    0 -0.15349572323E+02 -0.45626771714E+02 -0.10818890820E+04  0.10829595548E+04  0.00000000000E+00 0. -1.
         11    1    5    5    0    0 -0.56058056542E+02  0.62633822919E+01  0.13412577351E+03  0.14550415383E+03  0.00000000000E+00 0. -1.
        -12    1    5    5    0    0  0.10498014570E+02 -0.23096126462E+01 -0.58674796750E+01  0.12246221386E+02  0.00000000000E+00 0.  1.
          5    1    4    4  501    0  0.51948106742E+02 -0.48827020284E+02  0.40305805435E+02  0.82004353882E+02  0.41800000000E+01 0. -1.
         -5    1    4    4    0  501  0.31838561202E+01  0.61714439361E+02  0.31585657802E+01  0.62018206224E+02  0.41800000000E+01 0. -1.
</event>
<event>
11    1  0.8453735E-009  0.1725179E+03  0.7561462E-02  0.1075861E+00
         22   -1    0    0    0    0  0.00000000000E+00  0.00000000000E+00  0.23365393527E+03  0.23365393527E+03  0.00000000000E+00 0.  1.
         22   -1    0    0    0    0 -0.00000000000E+00 -0.00000000000E+00 -0.40961093826E+03  0.40961093826E+03  0.00000000000E+00 0. -1.
         24    2    1    2    0    0  0.52201328162E+02  0.51938182044E+01 -0.22609636047E+03  0.24492001623E+03  0.78193962177E+02 0.  0.
         25    2    1    2    0    0 -0.14576119115E+03 -0.64078897961E+02 -0.72433996117E+02  0.21505102940E+03  0.12509129243E+03 0.  0.
        -24    2    1    2    0    0  0.93559862988E+02  0.58885079757E+02  0.12257335359E+03  0.18329382791E+03  0.79696297013E+02 0.  0.
        -13    1    3    3    0    0  0.32095817469E+01 -0.29666207453E+02 -0.44086474851E+02  0.53235350514E+02  0.00000000000E+00 0.  1.
         14    1    3    3    0    0  0.48991746416E+02  0.34860025658E+02 -0.18200988562E+03  0.19168466571E+03  0.00000000000E+00 0. -1.
         13    1    5    5    0    0  0.30297314178E+02  0.20949911624E+02 -0.37344205428E+01  0.37023937396E+02  0.00000000000E+00 0. -1.
        -14    1    5    5    0    0  0.63262548809E+02  0.37935168133E+02  0.12630777414E+03  0.14626989051E+03  0.00000000000E+00 0.  1.
          5    1    4    4  501    0 -0.70716959017E+02  0.31723240339E+02 -0.10151357507E+02  0.78280104302E+02  0.41800000000E+01 0.  1.
         -5    1    4    4    0  501 -0.75044232133E+02 -0.95802138301E+02 -0.62282638610E+02  0.13677092510E+03  0.41800000000E+01 0.  1.
</event>
<event>
11    1  0.8453735E-009  0.1365844E+03  0.7561462E-02  0.1111434E+00
         22   -1    0    0    0    0  0.00000000000E+00  0.00000000000E+00  0.12974702675E+04  0.12974702675E+04  0.00000000000E+00 0.  1.
         22   -1    0    0    0    0 -0.00000000000E+00 -0.00000000000E+00 -0.50846836391E+02  0.50846836391E+02  0.00000000000E+00 0.  1.
         24    2    1    2    0    0 -0.11912077548E+02 -0.89199818286E+01  0.78414902257E+01  0.81713884033E+02  0.79963780597E+02 0.  0.
         25    2    1    2    0    0  0.47330578824E+02 -0.32604936663E+02  0.41342805551E+03  0.43574473577E+03  0.12508977606E+03 0.  0.
        -24    2    1    2    0    0 -0.35418501276E+02  0.41524918491E+02  0.82535388534E+03  0.83085848406E+03  0.78345359820E+02 0.  0.
        -13    1    3    3    0    0 -0.82036410089E+01  0.11022767833E+02 -0.33201183097E+02  0.35932154062E+02  0.00000000000E+00 0.  1.
         14    1    3    3    0    0 -0.37084365392E+01 -0.19942749661E+02  0.41042673323E+02  0.45781729971E+02  0.00000000000E+00 0. -1.
         11    1    5    5    0    0 -0.35919356741E+02 -0.24720433415E+01  0.15776627919E+03  0.16182246456E+03  0.00000000000E+00 0. -1.
        -12    1    5    5    0    0  0.50085546526E+00  0.43996961833E+02  0.66758760615E+03  0.66903601950E+03  0.00000000000E+00 0.  1.
          5    1    4    4  501    0  0.63179200954E+02 -0.48878282909E+02  0.13919718103E+03  0.16054290885E+03  0.41800000000E+01 0. -1.
         -5    1    4    4    0  501 -0.15848622130E+02  0.16273346246E+02  0.27423087448E+03  0.27520182692E+03  0.41800000000E+01 0. -1.
</event>
<event>
11    1  0.8453735E-009  0.1388759E+03  0.7561462E-02  0.1108820E+00
         22   -1    0    0    0    0  0.00000000000E+00  0.00000000000E+00  0.58583478295E+02  0.58583478295E+02  0.00000000000E+00 0. -1.
         22   -1    0    0    0    0 -0.00000000000E+00 -0.00000000000E+00 -0.11478425774E+04  0.11478425774E+04  0.00000000000E+00 0. -1.
         24    2    1    2    0    0  0.38492117484E+02 -0.31109569066E+02 -0.54656349975E+03  0.55458371651E+03  0.79887364207E+02 0.  0.
         25    2    1    2    0    0 -0.18533611872E+02 -0.29848463697E+02 -0.53384565995E+03  0.54942973601E+03  0.12508965030E+03 0.  0.
        -24    2    1    2    0    0 -0.19958505612E+02  0.60958032762E+02 -0.88499394087E+01  0.10241260318E+03  0.79346053198E+02 0.  0.
        -11    1    3    3    0    0  0.42048233294E+02 -0.48363722975E+02 -0.27168458646E+03  0.27914085717E+03  0.00000000000E+00 0.  1.
         12    1    3    3    0    0 -0.35561158095E+01  0.17254153909E+02 -0.27487891329E+03  0.27544285934E+03  0.00000000000E+00 0. -1.
         13    1    5    5    0    0  0.58498209031E+01  0.70754282164E+02  0.56701302255E+01  0.71221760902E+02  0.00000000000E+00 0. -1.
        -14    1    5    5    0    0 -0.25808326515E+02 -0.97962494021E+01 -0.14520069634E+02  0.31190842278E+02  0.00000000000E+00 0.  1.
          5    1    4    4  501    0 -0.17985031851E+01 -0.74674244227E+02 -0.23137375908E+03  0.24316818492E+03  0.41800000000E+01 0.  1.
         -5    1    4    4    0  501 -0.16735108687E+02  0.44825780531E+02 -0.30247190087E+03  0.30626155109E+03  0.41800000000E+01 0.  1.
</event>
<event>
11    1  0.8453735E-009  0.1474472E+03  0.7561462E-02  0.1099516E+00
         22   -1    0    0    0    0  0.00000000000E+00  0.00000000000E+00  0.24795757264E+04  0.24795757264E+04  0.00000000000E+00 0.  1.
         22   -1    0    0    0    0 -0.00000000000E+00 -0.00000000000E+00 -0.19771343266E+03  0.19771343266E+03  0.00000000000E+00 0.  1.
        -24    2    1    2    0    0  0.62981717295E+02 -0.12049074567E+01 -0.15109863161E+03  0.18122774033E+03  0.77746696878E+02 0.  0.
         25    2    1    2    0    0 -0.82627660005E+02  0.75904434772E+02  0.20407669443E+03  0.26435618624E+03  0.12509229625E+03 0.  0.
         24    2    1    2    0    0  0.19645942709E+02 -0.74699527315E+02  0.22288842309E+04  0.22317052325E+04  0.81347079479E+02 0.  0.
        -13    1    5    5    0    0  0.28901937808E+02 -0.25171317257E+01  0.11518083771E+04  0.11521736829E+04  0.00000000000E+00 0.  1.
         14    1    5    5    0    0 -0.92559950983E+01 -0.72182395589E+02  0.10770758538E+04  0.10795315496E+04  0.00000000000E+00 0. -1.
         11    1    3    3    0    0  0.43589790161E+02 -0.10737912822E+02 -0.21384214997E+02  0.49725820547E+02  0.00000000000E+00 0. -1.
        -12    1    3    3    0    0  0.19391927134E+02  0.95330053656E+01 -0.12971441662E+03  0.13150191979E+03  0.00000000000E+00 0.  1.
          5    1    4    4  501    0 -0.77680556684E+02  0.27934338853E+02  0.37274178720E+02  0.90672117948E+02  0.41800000000E+01 0. -1.
         -5    1    4    4    0  501 -0.49471033203E+01  0.47970095919E+02  0.16680251571E+03  0.17368406830E+03  0.41800000000E+01 0. -1.
</event>
<event>
11    1  0.8453735E-009  0.1324144E+03  0.7561462E-02  0.1116338E+00
         22   -1    0    0    0    0  0.00000000000E+00  0.00000000000E+00  0.80066456522E+03  0.80066456522E+03  0.00000000000E+00 0.  1.
         22   -1    0    0    0    0 -0.00000000000E+00 -0.00000000000E+00 -0.12658969559E+03  0.12658969559E+03  0.00000000000E+00 0. -1.
        -24    2    1    2    0    0  0.21842413202E+02  0.36244583602E+01 -0.69381855423E+02  0.10958802455E+03  0.81886907076E+02 0.  0.
         25    2    1    2    0    0 -0.62555463746E+02  0.48861216879E+01  0.11092593141E+03  0.17857673731E+03  0.12509208056E+03 0.  0.
         24    2    1    2    0    0  0.40713050544E+02 -0.85105800481E+01  0.63253079364E+03  0.63908949895E+03  0.81303138420E+02 0.  0.
        -11    1    5    5    0    0  0.40398219881E+02  0.31315332621E+02  0.38420746105E+03  0.38759262036E+03  0.00000000000E+00 0.  1.
         12    1    5    5    0    0  0.31483066304E+00 -0.39825912669E+02  0.24832333258E+03  0.25149687860E+03  0.00000000000E+00 0. -1.
         11    1    3    3    0    0  0.18629603274E+02 -0.12084449863E+02 -0.84609715834E+02  0.87475139669E+02  0.00000000000E+00 0. -1.
        -12    1    3    3    0    0  0.32128099286E+01  0.15708908223E+02  0.15227860411E+02  0.22112884884E+02  0.00000000000E+00 0.  1.
          5    1    4    4  501    0 -0.31049789929E+01  0.42101556444E+01 -0.27267951678E+02  0.28078103458E+02  0.41800000000E+01 0.  1.
         -5    1    4    4    0  501 -0.59450484754E+02  0.67596604346E+00  0.13819388309E+03  0.15049863385E+03  0.41800000000E+01 0.  1.
</event>
<event>
11    1  0.8453735E-009  0.1381593E+03  0.7561462E-02  0.1109631E+00
         22   -1    0    0    0    0  0.00000000000E+00  0.00000000000E+00  0.44806224984E+03  0.44806224984E+03  0.00000000000E+00 0.  1.
         22   -1    0    0    0    0 -0.00000000000E+00 -0.00000000000E+00 -0.17877590572E+04  0.17877590572E+04  0.00000000000E+00 0. -1.
        -24    2    1    2    0    0  0.90821321235E+01  0.57859644217E+02 -0.17342252006E+04  0.17372999610E+04  0.85111013310E+02 0.  0.
         25    2    1    2    0    0 -0.57126799439E+02 -0.57439816223E+02  0.77967309326E+02  0.16819322505E+03  0.12508899204E+03 0.  0.
         24    2    1    2    0    0  0.48044667315E+02 -0.41982799347E+00  0.31656108391E+03  0.33032812097E+03  0.81223650178E+02 0.  0.
        -13    1    5    5    0    0 -0.13755810430E+02  0.22464814249E+02  0.12508238019E+03  0.12782602252E+03  0.00000000000E+00 0.  1.
         14    1    5    5    0    0  0.61800477745E+02 -0.22884642242E+02  0.19147870372E+03  0.20250209846E+03  0.00000000000E+00 0. -1.
         11    1    3    3    0    0 -0.18165515123E+02 -0.15911275858E+02 -0.48637405928E+03  0.48697318219E+03  0.00000000000E+00 0. -1.
        -12    1    3    3    0    0  0.27247647246E+02  0.73770920075E+02 -0.12478511413E+04  0.12503267788E+04  0.00000000000E+00 0.  1.
          5    1    4    4  501    0 -0.71675158023E+02  0.12807350573E+02  0.19337795619E+02  0.75450508585E+02  0.41800000000E+01 0. -1.
         -5    1    4    4    0  501  0.14548358584E+02 -0.70247166797E+02  0.58629513707E+02  0.92742716468E+02  0.41800000000E+01 0. -1.
</event>
<event>
11    1  0.8453735E-009  0.1275757E+03  0.7561462E-02  0.1122284E+00
         22   -1    0    0    0    0  0.00000000000E+00  0.00000000000E+00  0.56654920469E+03  0.56654920469E+03  0.00000000000E+00 0.  1.
         22   -1    0    0    0    0 -0.00000000000E+00 -0.00000000000E+00 -0.23502973215E+04  0.23502973215E+04  0.00000000000E+00 0. -1.
        -24    2    1    2    0    0 -0.24892395996E+02 -0.33299640203E+01 -0.23291171871E+04  0.23306320765E+04  0.80176583078E+02 0.  0.
         25    2    1    2    0    0  0.64930042905E+01  0.59915018295E-03  0.24791199805E+03  0.27775898257E+03  0.12509010559E+03 0.  0.
         24    2    1    2    0    0  0.18399391705E+02  0.33293648701E+01  0.29745707226E+03  0.30845546715E+03  0.79463470186E+02 0.  0.
        -11    1    5    5    0    0  0.34345591733E+02 -0.18185821675E+02  0.25710337308E+03  0.26002401472E+03  0.00000000000E+00 0.  1.
         12    1    5    5    0    0 -0.15946200028E+02  0.21515186545E+02  0.40353699177E+02  0.48431452431E+02  0.00000000000E+00 0. -1.
         13    1    3    3    0    0 -0.20656820965E+02  0.30753099135E+02 -0.18104471460E+04  0.18108261446E+04  0.00000000000E+00 0. -1.
        -14    1    3    3    0    0 -0.42355750309E+01 -0.34083063155E+02 -0.51867004108E+03  0.51980593187E+03  0.00000000000E+00 0.  1.
          5    1    4    4  501    0  0.53012008087E+02 -0.37584881052E+02  0.12143963114E+03  0.13779678043E+03  0.41800000000E+01 0. -1.
         -5    1    4    4    0  501 -0.46519003797E+02  0.37585480202E+02  0.12647236691E+03  0.13996220214E+03  0.41800000000E+01 0. -1.
</event>
<event>
11    1  0.1141815E-008  0.9218379E+03  0.7561462E-02  0.8757131E-01
         22   -1    0    0    0    0  0.00000000000E+00  0.00000000000E+00  0.18241418524E+04  0.18241418524E+04  0.00000000000E+00 0.  1.
         22   -1    0    0    0    0 -0.00000000000E+00 -0.00000000000E+00 -0.28649148587E+04  0.28649148587E+04  0.00000000000E+00 0.  1.
        -24    2    1    2    0    0  0.89010180667E+03  0.19390457425E+03 -0.25815424104E+04  0.27387092268E+04  0.79289356903E+02 0.  0.
         25    2    1    2    0    0 -0.93085094884E+03 -0.25485047223E+03  0.15610826759E+04  0.18395806823E+04  0.12508282656E+03 0.  0.
         24    2    1    2    0    0  0.40749142170E+02  0.60945897983E+02 -0.20313271784E+02  0.11076680215E+03  0.80509380695E+02 0.  0.
        -13    1    5    5    0    0  0.19693766627E+01 -0.13475157904E+02 -0.23084686712E+02  0.26802258964E+02  0.00000000000E+00 0.  1.
         14    1    5    5    0    0  0.38779765507E+02  0.74421055886E+02  0.27714149277E+01  0.83964543188E+02  0.00000000000E+00 0. -1.
         11    1    3    3    0    0  0.59814833293E+03  0.14845318519E+03 -0.18399909211E+04  0.19404603491E+04  0.00000000000E+00 0. -1.
        -12    1    3    3    0    0  0.29195347375E+03  0.45451389057E+02 -0.74155148923E+03  0.79824887772E+03  0.00000000000E+00 0.  1.
          5    1    4    4  501    0 -0.67507878925E+03 -0.21282093501E+03  0.12293413896E+04  0.14185633037E+04  0.41800000000E+01 0.  1.
         -5    1    4    4    0  501 -0.25577215960E+03 -0.42029537226E+02  0.33174128628E+03  0.42101737856E+03  0.41800000000E+01 0.  1.
</event>
<event>
11    1  0.8453735E-009  0.1486479E+03  0.7561462E-02  0.1098268E+00
         22   -1    0    0    0    0  0.00000000000E+00  0.00000000000E+00  0.16660654440E+04  0.16660654440E+04  0.00000000000E+00 0. -1.
         22   -1    0    0    0    0 -0.00000000000E+00 -0.00000000000E+00 -0.12905673147E+03  0.12905673147E+03  0.00000000000E+00 0.  1.
        -24    2    1    2    0    0 -0.37646216403E+02  0.70222444493E+02 -0.23750312124E+02  0.11608978640E+03  0.81020564436E+02 0.  0.
         25    2    1    2    0    0  0.16448911529E+02 -0.82453571251E+02  0.40255135053E+02  0.15600361100E+03  0.12508993822E+03 0.  0.
         24    2    1    2    0    0  0.21197304873E+02  0.12231126759E+02  0.15205038896E+04  0.15230287780E+04  0.84176328844E+02 0.  0.
        -13    1    5    5    0    0  0.22598059945E+02 -0.33985267263E+02  0.80314893218E+03  0.80418522615E+03  0.00000000000E+00 0.  1.
         14    1    5    5    0    0 -0.14007550715E+01  0.46216394022E+02  0.71735495740E+03  0.71884355190E+03  0.00000000000E+00 0. -1.
         13    1    3    3    0    0  0.10994538600E+02  0.20654370968E+02  0.22651994515E+02  0.32566789443E+02  0.00000000000E+00 0. -1.
        -14    1    3    3    0    0 -0.48640755002E+02  0.49568073524E+02 -0.46402306638E+02  0.83522996962E+02  0.00000000000E+00 0.  1.
          5    1    4    4  501    0 -0.41355304573E+02 -0.86892701579E+01  0.45259907035E+02  0.62062035231E+02  0.41800000000E+01 0. -1.
         -5    1    4    4    0  501  0.57804216102E+02 -0.73764301093E+02 -0.50047719819E+01  0.93941575767E+02  0.41800000000E+01 0. -1.
</event>
<event>
11    1  0.8453735E-009  0.1750489E+03  0.7561462E-02  0.1073720E+00
         22   -1    0    0    0    0  0.00000000000E+00  0.00000000000E+00  0.95097793000E+03  0.95097793000E+03  0.00000000000E+00 0.  1.
         22   -1    0    0    0    0 -0.00000000000E+00 -0.00000000000E+00 -0.28793139846E+03  0.28793139846E+03  0.00000000000E+00 0.  1.
         24    2    1    2    0    0 -0.34849687112E+02  0.10547808700E+03 -0.16438726281E+03  0.21427179391E+03  0.80926521989E+02 0.  0.
         25    2    1    2    0    0  0.94911574958E+02 -0.20320288101E+03  0.88551177857E+02  0.27163699034E+03  0.12508287457E+03 0.  0.
        -24    2    1    2    0    0 -0.60061887846E+02  0.97724794015E+02  0.73888261650E+03  0.75300054421E+03  0.88908564739E+02 0.  0.
        -11    1    3    3    0    0  0.91935158010E+01  0.89778882913E+02 -0.11617438378E+03  0.14710967336E+03  0.00000000000E+00 0.  1.
         12    1    3    3    0    0 -0.44043202913E+02  0.15699204084E+02 -0.48212879033E+02  0.67162120547E+02  0.00000000000E+00 0. -1.
         13    1    5    5    0    0 -0.28071676571E+02  0.28049327394E+02  0.76354507666E+02  0.86051116400E+02  0.00000000000E+00 0. -1.
        -14    1    5    5    0    0 -0.31990211275E+02  0.69675466620E+02  0.66252810883E+03  0.66694942781E+03  0.00000000000E+00 0.  1.
          5    1    4    4  501    0  0.11353225677E+01 -0.12368690942E+03  0.68399250539E+01  0.12395159335E+03  0.41800000000E+01 0. -1.
         -5    1    4    4    0  501  0.93776252390E+02 -0.79515971588E+02  0.81711252803E+02  0.14768539699E+03  0.41800000000E+01 0. -1.
</event>
<event>
11    1  0.8453735E-009  0.1534953E+03  0.7561462E-02  0.1093360E+00
         22   -1    0    0    0    0  0.00000000000E+00  0.00000000000E+00  0.23919565304E+03  0.23919565304E+03  0.00000000000E+00 0. -1.
         22   -1    0    0    0    0 -0.00000000000E+00 -0.00000000000E+00 -0.11140303439E+04  0.11140303439E+04  0.00000000000E+00 0.  1.
         24    2    1    2    0    0  0.51977362169E+02 -0.19311905983E+02 -0.10046231488E+04  0.10092832709E+04  0.79438365395E+02 0.  0.
         25    2    1    2    0    0 -0.23255081934E+02  0.10240749981E+03 -0.57699125153E+01  0.16343177534E+03  0.12509419829E+03 0.  0.
        -24    2    1    2    0    0 -0.28722280235E+02 -0.83095593830E+02  0.13555837043E+03  0.18051095075E+03  0.80487790702E+02 0.  0.
        -11    1    3    3    0    0  0.48019662262E+02 -0.37660157385E+02 -0.94027759368E+03  0.94225587214E+03  0.00000000000E+00 0.  1.
         12    1    3    3    0    0  0.39576999071E+01  0.18348251401E+02 -0.64345555088E+02  0.67027398708E+02  0.00000000000E+00 0. -1.
         11    1    5    5    0    0 -0.51013276443E+02 -0.68561178485E+02  0.72501600467E+02  0.11206904853E+03  0.00000000000E+00 0. -1.
        -12    1    5    5    0    0  0.22290996208E+02 -0.14534415345E+02  0.63056769962E+02  0.68441902219E+02  0.00000000000E+00 0.  1.
          5    1    4    4  501    0  0.39813733339E+02  0.58574881121E+02 -0.37472796366E+02  0.80236107385E+02  0.41800000000E+01 0. -1.
         -5    1    4    4    0  501 -0.63068815273E+02  0.43832618692E+02  0.31702883851E+02  0.83195667951E+02  0.41800000000E+01 0. -1.
</event>
<event>
11    1  0.8453735E-009  0.1335376E+03  0.7561462E-02  0.1114997E+00
         22   -1    0    0    0    0  0.00000000000E+00  0.00000000000E+00  0.14046251161E+03  0.14046251161E+03  0.00000000000E+00 0. -1.
         22   -1    0    0    0    0 -0.00000000000E+00 -0.00000000000E+00 -0.41392390923E+03  0.41392390923E+03  0.00000000000E+00 0.  1.
        -24    2    1    2    0    0  0.39605033203E+02 -0.16638518075E+02 -0.15787550216E+03  0.18281236192E+03  0.81549289085E+02 0.  0.
         25    2    1    2    0    0 -0.40840114733E+02  0.36331294351E+02 -0.20713640501E+03  0.24807126484E+03  0.12508390879E+03 0.  0.
         24    2    1    2    0    0  0.12350815301E+01 -0.19692776277E+02  0.91550509546E+02  0.12350279408E+03  0.80511573607E+02 0.  0.
        -13    1    5    5    0    0 -0.28920984870E+02  0.12891333580E+02  0.63582776363E+02  0.71030833427E+02  0.00000000000E+00 0.  1.
         14    1    5    5    0    0  0.30156066400E+02 -0.32584109856E+02  0.27967733183E+02  0.52471960657E+02  0.00000000000E+00 0. -1.
         13    1    3    3    0    0  0.23188572560E+01  0.25800917946E+02 -0.16876325286E+02  0.30917225312E+02  0.00000000000E+00 0. -1.
        -14    1    3    3    0    0  0.37286175947E+02 -0.42439436021E+02 -0.14099917687E+03  0.15189513661E+03  0.00000000000E+00 0.  1.
          5    1    4    4  501    0  0.22967728515E+02  0.62101318940E+02 -0.85074730852E+02  0.10788546054E+03  0.41800000000E+01 0.  1.
         -5    1    4    4    0  501 -0.63807843248E+02 -0.25770024589E+02 -0.12206167416E+03  0.14018580429E+03  0.41800000000E+01 0.  1.
</event>
<event>
11    1  0.1256719E-008  0.1509277E+03  0.7561462E-02  0.1095935E+00
         22   -1    0    0    0    0  0.00000000000E+00  0.00000000000E+00  0.19555192513E+03  0.19555192513E+03  0.00000000000E+00 0.  1.
         22   -1    0    0    0    0 -0.00000000000E+00 -0.00000000000E+00 -0.27340944507E+04  0.27340944507E+04  0.00000000000E+00 0. -1.
         24    2    1    2    0    0 -0.15814352894E+01 -0.58235759380E+02 -0.10978579192E+04  0.11025427307E+04  0.83153820164E+02 0.  0.
         25    2    1    2    0    0 -0.20249782891E+02  0.13915266785E+03 -0.16096476350E+04  0.16206128942E+04  0.12508846988E+03 0.  0.
        -24    2    1    2    0    0  0.21831218180E+02 -0.80916908468E+02  0.16896302858E+03  0.20649075092E+03  0.84058176449E+02 0.  0.
        -11    1    3    3    0    0  0.82452503886E+01  0.19568514534E+02 -0.15834425965E+03  0.15976174598E+03  0.00000000000E+00 0.  1.
         12    1    3    3    0    0 -0.98266856779E+01 -0.77804273914E+02 -0.93951365952E+03  0.94278098476E+03  0.00000000000E+00 0. -1.
         11    1    5    5    0    0  0.48921922826E+01  0.20927897127E+01 -0.83936440147E+01  0.99381373485E+01  0.00000000000E+00 0. -1.
        -12    1    5    5    0    0  0.16939025897E+02 -0.83009698180E+02  0.17735667259E+03  0.19655261358E+03  0.00000000000E+00 0.  1.
          5    1    4    4  501    0  0.41982659127E+01  0.88864060446E+01 -0.80807388380E+03  0.80814445969E+03  0.41800000000E+01 0.  1.
         -5    1    4    4    0  501 -0.24448048803E+02  0.13026626180E+03 -0.80157375116E+03  0.81246843447E+03  0.41800000000E+01 0.  1.
</event>
<event>
11    1  0.8453735E-009  0.1822785E+03  0.7561462E-02  0.1067815E+00
         22   -1    0    0    0    0  0.00000000000E+00  0.00000000000E+00  0.13580791470E+03  0.13580791470E+03  0.00000000000E+00 0. -1.
         22   -1    0    0    0    0 -0.00000000000E+00 -0.00000000000E+00 -0.81865237957E+03  0.81865237957E+03  0.00000000000E+00 0.  1.
        -24    2    1    2    0    0 -0.71892251592E+02 -0.11474279941E+03 -0.65177952003E+03  0.67062396509E+03  0.81151426135E+02 0.  0.
         25    2    1    2    0    0  0.59254115184E+02  0.99286791895E+02 -0.70923796367E+02  0.18451386554E+03  0.12508502898E+03 0.  0.
         24    2    1    2    0    0  0.12638136408E+02  0.15456007515E+02  0.39858851533E+02  0.99322463641E+02  0.88755918553E+02 0.  0.
        -11    1    5    5    0    0  0.14220583745E+02 -0.79016441658E+01 -0.25303591412E+02  0.30082099676E+02  0.00000000000E+00 0.  1.
         12    1    5    5    0    0 -0.15824473374E+01  0.23357651681E+02  0.65162442945E+02  0.69240363966E+02  0.00000000000E+00 0. -1.
         11    1    3    3    0    0 -0.82198035651E+02 -0.60040842720E+02 -0.44383236367E+03  0.45535545116E+03  0.00000000000E+00 0. -1.
        -12    1    3    3    0    0  0.10305784059E+02 -0.54701956690E+02 -0.20794715636E+03  0.21526851393E+03  0.00000000000E+00 0.  1.
          5    1    4    4  501    0 -0.37215406215E+02  0.12889520237E+02 -0.77213391336E+01  0.40351179286E+02  0.41800000000E+01 0.  1.
         -5    1    4    4    0  501  0.96469521399E+02  0.86397271658E+02 -0.63202457233E+02  0.14416268626E+03  0.41800000000E+01 0.  1.
</event>
<event>
11    1  0.8453735E-009  0.5041877E+03  0.7561462E-02  0.9384212E-01
         22   -1    0    0    0    0  0.00000000000E+00  0.00000000000E+00  0.17438054103E+04  0.17438054103E+04  0.00000000000E+00 0. -1.
         22   -1    0    0    0    0 -0.00000000000E+00 -0.00000000000E+00 -0.42211252078E+03  0.42211252078E+03  0.00000000000E+00 0. -1.
        -24    2    1    2    0    0  0.15765377841E+02  0.29175162456E+03  0.11727596530E+03  0.32494199292E+03  0.80411996322E+02 0.  0.
         25    2    1    2    0    0  0.51421125607E+02 -0.72980955734E+03  0.24582718797E+03  0.78188506671E+03  0.12508848491E+03 0.  0.
         24    2    1    2    0    0 -0.67186503448E+02  0.43805793277E+03  0.95858973622E+03  0.10590908714E+04  0.79814865830E+02 0.  0.
        -11    1    5    5    0    0 -0.88152897020E+01  0.46120268576E+02  0.17245245728E+03  0.17873063119E+03  0.00000000000E+00 0.  1.
         12    1    5    5    0    0 -0.58371213746E+02  0.39193766420E+03  0.78613727894E+03  0.88036024022E+03  0.00000000000E+00 0. -1.
         11    1    3    3    0    0  0.38567797705E+02  0.16884126777E+03  0.39250295132E+02  0.17758219052E+03  0.00000000000E+00 0. -1.
        -12    1    3    3    0    0 -0.22802419864E+02  0.12291035680E+03  0.78025670163E+02  0.14735980240E+03  0.00000000000E+00 0.  1.
          5    1    4    4  501    0 -0.22140537102E+01 -0.12408397237E+03 -0.45275536019E+01  0.12425661099E+03  0.41800000000E+01 0. -1.
         -5    1    4    4    0  501  0.53635179317E+02 -0.60572558497E+03  0.25035474157E+03  0.65762845572E+03  0.41800000000E+01 0. -1.
</event>
<event>
11    1  0.8453735E-009  0.1876687E+03  0.7561462E-02  0.1063603E+00
         22   -1    0    0    0    0  0.00000000000E+00  0.00000000000E+00  0.37578582655E+03  0.37578582655E+03  0.00000000000E+00 0. -1.
         22   -1    0    0    0    0 -0.00000000000E+00 -0.00000000000E+00 -0.10005939459E+04  0.10005939459E+04  0.00000000000E+00 0.  1.
         24    2    1    2    0    0  0.19973437868E+03 -0.94809180220E-02 -0.75576515842E+03  0.78592765511E+03  0.81286421159E+02 0.  0.
         25    2    1    2    0    0 -0.65948554745E+02 -0.76113807452E+02 -0.17140611601E+03  0.23488267797E+03  0.12508913720E+03 0.  0.
        -24    2    1    2    0    0 -0.13378582394E+03  0.76123288370E+02  0.30236315510E+03  0.35556943936E+03  0.10636139772E+03 0.  0.
        -11    1    3    3    0    0  0.14769378285E+03  0.32530323993E+02 -0.47344575292E+03  0.49701363807E+03  0.00000000000E+00 0.  1.
         12    1    3    3    0    0  0.52040595836E+02 -0.32539804911E+02 -0.28231940551E+03  0.28891401704E+03  0.00000000000E+00 0. -1.
         13    1    5    5    0    0  0.15049930292E+02  0.25969793812E+02  0.46405773280E+02  0.55266865174E+02  0.00000000000E+00 0. -1.
        -14    1    5    5    0    0 -0.14883575423E+03  0.50153494558E+02  0.25595738182E+03  0.30030257419E+03  0.00000000000E+00 0.  1.
          5    1    4    4  501    0 -0.87553891652E+01 -0.44583510595E+01 -0.13614792823E+03  0.13656597122E+03  0.41800000000E+01 0. -1.
         -5    1    4    4    0  501 -0.57193165580E+02 -0.71655456393E+02 -0.35258187774E+02  0.98316706744E+02  0.41800000000E+01 0. -1.
</event>
<event>
11    1  0.8453735E-009  0.1523285E+03  0.7561462E-02  0.1094523E+00
         22   -1    0    0    0    0  0.00000000000E+00  0.00000000000E+00  0.13572926939E+03  0.13572926939E+03  0.00000000000E+00 0. -1.
         22   -1    0    0    0    0 -0.00000000000E+00 -0.00000000000E+00 -0.25049165826E+03  0.25049165826E+03  0.00000000000E+00 0.  1.
         24    2    1    2    0    0  0.83447780546E+02 -0.56925099033E+02 -0.87720744808E+02  0.15512410139E+03  0.78514704260E+02 0.  0.
         25    2    1    2    0    0 -0.40807584743E+02  0.46624670282E+02 -0.13662089958E+02  0.14026192498E+03  0.12509051142E+03 0.  0.
        -24    2    1    2    0    0 -0.42640195803E+02  0.10300428751E+02 -0.13379554104E+02  0.90834901275E+02  0.78407153315E+02 0.  0.
        -11    1    3    3    0    0  0.87559702382E+02 -0.40528896780E+02 -0.96168717378E+02  0.13622670501E+03  0.00000000000E+00 0.  1.
         12    1    3    3    0    0 -0.41119218359E+01 -0.16396202253E+02  0.84479725702E+01  0.18897396383E+02  0.00000000000E+00 0. -1.
         13    1    5    5    0    0 -0.58355137630E+02  0.11901213943E+02 -0.31024189206E+02  0.67152522641E+02  0.00000000000E+00 0. -1.
        -14    1    5    5    0    0  0.15714941828E+02 -0.16007851917E+01  0.17644635102E+02  0.23682378634E+02  0.00000000000E+00 0.  1.
          5    1    4    4  501    0 -0.39994823943E+02 -0.29629844242E+02  0.23645015245E+02  0.55263665802E+02  0.41800000000E+01 0. -1.
         -5    1    4    4    0  501 -0.81276080072E+00  0.76254514524E+02 -0.37307105203E+02  0.84998259182E+02  0.41800000000E+01 0. -1.
</event>
<event>
11    1  0.8453735E-009  0.1478409E+03  0.7561462E-02  0.1099106E+00
         22   -1    0    0    0    0  0.00000000000E+00  0.00000000000E+00  0.10732456232E+03  0.10732456232E+03  0.00000000000E+00 0. -1.
         22   -1    0    0    0    0 -0.00000000000E+00 -0.00000000000E+00 -0.25613192894E+04  0.25613192894E+04  0.00000000000E+00 0. -1.
        -24    2    1    2    0    0  0.77781480466E+02  0.10892930843E+02 -0.16577378271E+04  0.16614594140E+04  0.78638832993E+02 0.  0.
         25    2    1    2    0    0 -0.82617377237E+02  0.50254078715E+02 -0.86884720401E+03  0.88311597339E+03  0.12508898869E+03 0.  0.
         24    2    1    2    0    0  0.48358967709E+01 -0.61147009558E+02  0.72590304066E+02  0.12406846438E+03  0.79757688866E+02 0.  0.
        -11    1    5    5    0    0 -0.20371699457E+02  0.30974489458E+01 -0.39803614872E+01  0.20986748350E+02  0.00000000000E+00 0.  1.
         12    1    5    5    0    0  0.25207596228E+02 -0.64244458504E+02  0.76570665553E+02  0.10308171603E+03  0.00000000000E+00 0. -1.
         11    1    3    3    0    0  0.56795497543E+02  0.33238256590E+02 -0.14478540095E+04  0.14493487306E+04  0.00000000000E+00 0. -1.
        -12    1    3    3    0    0  0.20985982923E+02 -0.22345325747E+02 -0.20988381765E+03  0.21211068331E+03  0.00000000000E+00 0.  1.
          5    1    4    4  501    0 -0.10574276029E+03  0.10788127343E+02 -0.48487908490E+03  0.49641022795E+03  0.41800000000E+01 0.  1.
         -5    1    4    4    0  501  0.23125383053E+02  0.39465951372E+02 -0.38396811911E+03  0.38670574543E+03  0.41800000000E+01 0.  1.
</event>
<event>
11    1  0.8453735E-009  0.1325310E+03  0.7561462E-02  0.1116198E+00
         22   -1    0    0    0    0  0.00000000000E+00  0.00000000000E+00  0.44960231077E+03  0.44960231077E+03  0.00000000000E+00 0.  1.
         22   -1    0    0    0    0 -0.00000000000E+00 -0.00000000000E+00 -0.12861513302E+04  0.12861513302E+04  0.00000000000E+00 0.  1.
         24    2    1    2    0    0  0.32090337467E+02 -0.29779397574E+02 -0.12460971898E+04  0.12494677756E+04  0.80591026434E+02 0.  0.
         25    2    1    2    0    0 -0.28046028561E+02  0.34183633588E+02  0.97665937678E+02  0.16474699058E+03  0.12509130665E+03 0.  0.
        -24    2    1    2    0    0 -0.40443089057E+01 -0.44042360136E+01  0.31188223273E+03  0.32153887476E+03  0.77980556272E+02 0.  0.
        -11    1    3    3    0    0  0.56829050224E+02 -0.65289231744E+01 -0.71326965520E+03  0.71555975908E+03  0.00000000000E+00 0.  1.
         12    1    3    3    0    0 -0.24738712757E+02 -0.23250474400E+02 -0.53282753465E+03  0.53390801656E+03  0.00000000000E+00 0. -1.
         13    1    5    5    0    0 -0.60318475561E+01 -0.37360299517E+02  0.96752853064E+02  0.10389075869E+03  0.00000000000E+00 0. -1.
        -14    1    5    5    0    0  0.19875386504E+01  0.32956063503E+02  0.21512937967E+03  0.21764811607E+03  0.00000000000E+00 0.  1.
          5    1    4    4  501    0 -0.38702033138E+01 -0.41036367702E+02  0.32418887963E+01  0.41556518031E+02  0.41800000000E+01 0.  1.
         -5    1    4    4    0  501 -0.24175825247E+02  0.75220001291E+02  0.94424048882E+02  0.12319047255E+03  0.41800000000E+01 0.  1.
</event>
<event>
11    1  0.8453735E-009  0.1365628E+03  0.7561462E-02  0.1111458E+00
         22   -1    0    0    0    0  0.00000000000E+00  0.00000000000E+00  0.22390078759E+04  0.22390078759E+04  0.00000000000E+00 0. -1.
         22   -1    0    0    0    0 -0.00000000000E+00 -0.00000000000E+00 -0.84432239498E+02  0.84432239498E+02  0.00000000000E+00 0. -1.
        -24    2    1    2    0    0 -0.51864480718E+02  0.14298555884E+02 -0.25753328593E+02  0.10252997356E+03  0.83395374473E+02 0.  0.
         25    2    1    2    0    0  0.63625815628E+02  0.15246271884E+01  0.23441402966E+03  0.27321786695E+03  0.12508995410E+03 0.  0.
         24    2    1    2    0    0 -0.11761334909E+02 -0.15823183072E+02  0.19459149353E+04  0.19476922749E+04  0.80818067266E+02 0.  0.
        -13    1    5    5    0    0 -0.35746250118E+02  0.15671716356E+02  0.64848859726E+03  0.64966211054E+03  0.00000000000E+00 0.  1.
         14    1    5    5    0    0  0.23984915209E+02 -0.31494899428E+02  0.12974263381E+04  0.12980301644E+04  0.00000000000E+00 0. -1.
         13    1    3    3    0    0 -0.72044855442E+02  0.10002258940E+02 -0.34025370094E+02  0.80300885360E+02  0.00000000000E+00 0. -1.
        -14    1    3    3    0    0  0.20180374724E+02  0.42962969439E+01  0.82720415019E+01  0.22229088196E+02  0.00000000000E+00 0.  1.
          5    1    4    4  501    0  0.68806591866E+02 -0.38863633273E+02  0.21256753044E+03  0.22681965628E+03  0.41800000000E+01 0. -1.
         -5    1    4    4    0  501 -0.51807762380E+01  0.40388260462E+02  0.21846499219E+02  0.46398210673E+02  0.41800000000E+01 0. -1.
</event>
<event>
11    1  0.8453735E-009  0.2154796E+03  0.7561462E-02  0.1044087E+00
         22   -1    0    0    0    0  0.00000000000E+00  0.00000000000E+00  0.62704054708E+03  0.62704054708E+03  0.00000000000E+00 0.  1.
         22   -1    0    0    0    0 -0.00000000000E+00 -0.00000000000E+00 -0.11965879398E+04  0.11965879398E+04  0.00000000000E+00 0.  1.
         24    2    1    2    0    0  0.86404601264E+02  0.15239804382E+03 -0.11358035584E+04  0.11520232481E+04  0.80105692673E+02 0.  0.
         25    2    1    2    0    0 -0.15250656396E+03 -0.13356910765E+03  0.46602074445E+03  0.52337549833E+03  0.12509044499E+03 0.  0.
        -24    2    1    2    0    0  0.66101962693E+02 -0.18828936171E+02  0.10023542116E+03  0.14822974052E+03  0.84858223004E+02 0.  0.
        -13    1    3    3    0    0  0.92345567522E+02  0.86727098838E+02 -0.74168866916E+03  0.75243031270E+03  0.00000000000E+00 0.  1.
         14    1    3    3    0    0 -0.59409662585E+01  0.65670944984E+02 -0.39411488922E+03  0.39959293537E+03  0.00000000000E+00 0. -1.
         11    1    5    5    0    0  0.31680944940E+02 -0.30564166163E+02  0.10274345006E+03  0.11177686279E+03  0.00000000000E+00 0. -1.
        -12    1    5    5    0    0  0.34421017752E+02  0.11735229993E+02 -0.25080288967E+01  0.36452877733E+02  0.00000000000E+00 0.  1.
          5    1    4    4  501    0 -0.15718577272E+03 -0.11727404155E+03  0.31317565381E+03  0.36953623706E+03  0.41800000000E+01 0. -1.
         -5    1    4    4    0  501  0.46792087611E+01 -0.16295066104E+02  0.15284509064E+03  0.15383926127E+03  0.41800000000E+01 0. -1.
</event>
<event>
11    1  0.8453735E-009  0.1425578E+03  0.7561462E-02  0.1104735E+00
         22   -1    0    0    0    0  0.00000000000E+00  0.00000000000E+00  0.18802082660E+04  0.18802082660E+04  0.00000000000E+00 0. -1.
         22   -1    0    0    0    0 -0.00000000000E+00 -0.00000000000E+00 -0.14252931431E+04  0.14252931431E+04  0.00000000000E+00 0. -1.
         24    2    1    2    0    0  0.71306611326E+01  0.52746120345E+02 -0.13605973928E+04  0.13640901661E+04  0.81753999353E+02 0.  0.
         25    2    1    2    0    0  0.43355065984E+02 -0.97733111631E+02  0.48925365880E+02  0.17167636300E+03  0.12509060448E+03 0.  0.
        -24    2    1    2    0    0 -0.50485727116E+02  0.44986991286E+02  0.17665871498E+04  0.17697348800E+04  0.80986106153E+02 0.  0.
        -11    1    3    3    0    0 -0.51556708129E+01 -0.18022681595E+02 -0.12404512674E+03  0.12545354304E+03  0.00000000000E+00 0.  1.
         12    1    3    3    0    0  0.12286331945E+02  0.70768801940E+02 -0.12365522661E+04  0.12386366231E+04  0.00000000000E+00 0. -1.
         13    1    5    5    0    0 -0.57341156733E+02 -0.24571728611E+01  0.10130341040E+04  0.10146586331E+04  0.00000000000E+00 0. -1.
        -14    1    5    5    0    0  0.68554296171E+01  0.47444164147E+02  0.75355304584E+03  0.75507624682E+03  0.00000000000E+00 0.  1.
          5    1    4    4  501    0 -0.10120621453E+02  0.17476336234E+02  0.39109370145E+02  0.44213850091E+02  0.41800000000E+01 0. -1.
         -5    1    4    4    0  501  0.53475687437E+02 -0.11520944786E+03  0.98159957354E+01  0.12746251291E+03  0.41800000000E+01 0. -1.
</event>
<event>
11    1  0.8453735E-009  0.1709885E+03  0.7561462E-02  0.1077175E+00
         22   -1    0    0    0    0  0.00000000000E+00  0.00000000000E+00  0.45173725291E+03  0.45173725291E+03  0.00000000000E+00 0.  1.
         22   -1    0    0    0    0 -0.00000000000E+00 -0.00000000000E+00 -0.22013950863E+03  0.22013950863E+03  0.00000000000E+00 0.  1.
        -24    2    1    2    0    0 -0.11468229374E+03  0.22305620279E+02 -0.97621148686E+02  0.17514554232E+03  0.86582348837E+02 0.  0.
         25    2    1    2    0    0  0.11674389217E+03 -0.51294575951E+01  0.15444260472E+02  0.17187706220E+03  0.12509097343E+03 0.  0.
         24    2    1    2    0    0 -0.20615984322E+01 -0.17176162684E+02  0.31377463250E+03  0.32485415702E+03  0.82319090037E+02 0.  0.
        -13    1    5    5    0    0  0.29488066274E+02 -0.14946603396E+02  0.26275209502E+03  0.26482373467E+03  0.00000000000E+00 0.  1.
         14    1    5    5    0    0 -0.31549664707E+02 -0.22295592880E+01  0.51022537476E+02  0.60030422356E+02  0.00000000000E+00 0. -1.
         11    1    3    3    0    0 -0.34423957048E+01 -0.78046284621E+01  0.12903993126E+02  0.15468527797E+02  0.00000000000E+00 0. -1.
        -12    1    3    3    0    0 -0.11123989803E+03  0.30110248741E+02 -0.11052514181E+03  0.15967701452E+03  0.00000000000E+00 0.  1.
          5    1    4    4  501    0  0.69112240821E+02  0.59033575951E+02  0.12076465798E+02  0.91786591324E+02  0.41800000000E+01 0. -1.
         -5    1    4    4    0  501  0.47631651348E+02 -0.64163033546E+02  0.33677946741E+01  0.80090470875E+02  0.41800000000E+01 0. -1.
</event>
<event>
11    1  0.8453735E-009  0.1507606E+03  0.7561462E-02  0.1096104E+00
         22   -1    0    0    0    0  0.00000000000E+00  0.00000000000E+00  0.18782011081E+04  0.18782011081E+04  0.00000000000E+00 0.  1.
         22   -1    0    0    0    0 -0.00000000000E+00 -0.00000000000E+00 -0.10910761504E+03  0.10910761504E+03  0.00000000000E+00 0.  1.
        -24    2    1    2    0    0  0.23962302605E+02 -0.81913693080E+02 -0.53098918141E+02  0.12848814120E+03  0.80035381312E+02 0.  0.
         25    2    1    2    0    0 -0.22169263713E+02  0.70960504081E+02  0.29146257157E+03  0.32576869025E+03  0.12509172445E+03 0.  0.
         24    2    1    2    0    0 -0.17930388924E+01  0.10953188998E+02  0.15307298397E+04  0.15330518917E+04  0.83612638724E+02 0.  0.
        -13    1    5    5    0    0  0.24477694621E+02  0.31287027694E+02  0.12001005484E+04  0.12007578282E+04  0.00000000000E+00 0.  1.
         14    1    5    5    0    0 -0.26270733513E+02 -0.20333838696E+02  0.33062929123E+03  0.33229406353E+03  0.00000000000E+00 0. -1.
         13    1    3    3    0    0 -0.11696142520E+02 -0.30073445985E+02  0.15161880260E+02  0.35652412489E+02  0.00000000000E+00 0. -1.
        -14    1    3    3    0    0  0.35658445125E+02 -0.51840247095E+02 -0.68260798400E+02  0.92835728714E+02  0.00000000000E+00 0.  1.
          5    1    4    4  501    0 -0.23556374074E+02 -0.26198220360E+02  0.28860211819E+02  0.45734382425E+02  0.41800000000E+01 0.  1.
         -5    1    4    4    0  501  0.13871103614E+01  0.97158724442E+02  0.26260235975E+03  0.28003430782E+03  0.41800000000E+01 0.  1.
</event>
<event>
11    1  0.8453735E-009  0.1351687E+03  0.7561462E-02  0.1113077E+00
         22   -1    0    0    0    0  0.00000000000E+00  0.00000000000E+00  0.15006570369E+04  0.15006570369E+04  0.00000000000E+00 0.  1.
         22   -1    0    0    0    0 -0.00000000000E+00 -0.00000000000E+00 -0.80052831838E+02  0.80052831838E+02  0.00000000000E+00 0. -1.
        -24    2    1    2    0    0 -0.50350949558E+02 -0.23178441921E+02 -0.30664981525E+02  0.10921564891E+03  0.88967739007E+02 0.  0.
         25    2    1    2    0    0 -0.51181756426E+01 -0.47879280149E+01  0.53251144091E+03  0.54705092265E+03  0.12508859780E+03 0.  0.
         24    2    1    2    0    0  0.55469125201E+02  0.27966369936E+02  0.91875774563E+03  0.92444329713E+03  0.81367516542E+02 0.  0.
        -11    1    5    5    0    0  0.66545311561E+02  0.12567537982E+02  0.86081378144E+03  0.86347355942E+03  0.00000000000E+00 0.  1.
         12    1    5    5    0    0 -0.11076186360E+02  0.15398831955E+02  0.57943964197E+02  0.60969737712E+02  0.00000000000E+00 0. -1.
         11    1    3    3    0    0 -0.72471146622E+02 -0.16530180677E+02 -0.39871506955E+02  0.84350761898E+02  0.00000000000E+00 0. -1.
        -12    1    3    3    0    0  0.22120197064E+02 -0.66482612437E+01  0.92065254297E+01  0.24864887013E+02  0.00000000000E+00 0.  1.
          5    1    4    4  501    0 -0.27711164515E+02 -0.30061630975E+02  0.56770893838E+02  0.70085783743E+02  0.41800000000E+01 0. -1.
         -5    1    4    4    0  501  0.22592988873E+02  0.25273702960E+02  0.47574054707E+03  0.47696513891E+03  0.41800000000E+01 0. -1.
</event>
<event>
11    1  0.8453735E-009  0.1950244E+03  0.7561462E-02  0.1058099E+00
         22   -1    0    0    0    0  0.00000000000E+00  0.00000000000E+00  0.50978603458E+03  0.50978603458E+03  0.00000000000E+00 0.  1.
         22   -1    0    0    0    0 -0.00000000000E+00 -0.00000000000E+00 -0.51259400805E+03  0.51259400805E+03  0.00000000000E+00 0. -1.
        -24    2    1    2    0    0  0.19633666367E+02 -0.37627504051E+02 -0.37264118649E+03  0.38363130401E+03  0.80685894906E+02 0.  0.
         25    2    1    2    0    0 -0.40397546215E+02  0.18062828041E+03 -0.10917070768E+02  0.22366105440E+03  0.12508615990E+03 0.  0.
         24    2    1    2    0    0  0.20763879848E+02 -0.14300077636E+03  0.38075028378E+03  0.41508768421E+03  0.80291009665E+02 0.  0.
        -11    1    5    5    0    0 -0.10352216823E+02 -0.11975689438E+03  0.32979479362E+03  0.35101778879E+03  0.00000000000E+00 0.  1.
         12    1    5    5    0    0  0.31116096671E+02 -0.23243881975E+02  0.50955490162E+02  0.64069895419E+02  0.00000000000E+00 0. -1.
         13    1    3    3    0    0  0.14063652794E+01 -0.61280913230E+02 -0.25306904231E+03  0.26038676688E+03  0.00000000000E+00 0. -1.
        -14    1    3    3    0    0  0.18227301088E+02  0.23653409179E+02 -0.11957214417E+03  0.12324453713E+03  0.00000000000E+00 0.  1.
          5    1    4    4  501    0 -0.82753175318E+02  0.13211245524E+03  0.87515610683E+01  0.15619171258E+03  0.41800000000E+01 0.  1.
         -5    1    4    4    0  501  0.42355629104E+02  0.48515825165E+02 -0.19668631836E+02  0.67469341827E+02  0.41800000000E+01 0.  1.
</event>
<event>
11    1  0.8453735E-009  0.1429084E+03  0.7561462E-02  0.1104353E+00
         22   -1    0    0    0    0  0.00000000000E+00  0.00000000000E+00  0.36266215390E+03  0.36266215390E+03  0.00000000000E+00 0.  1.
         22   -1    0    0    0    0 -0.00000000000E+00 -0.00000000000E+00 -0.23152500040E+04  0.23152500040E+04  0.00000000000E+00 0. -1.
        -24    2    1    2    0    0 -0.66866225960E+02 -0.10314162764E+02 -0.18779232558E+04  0.18808399786E+04  0.79911177117E+02 0.  0.
         25    2    1    2    0    0  0.73221477140E+02  0.62104259875E+02 -0.41444478426E+03  0.44342981429E+03  0.12508875728E+03 0.  0.
         24    2    1    2    0    0 -0.63552511796E+01 -0.51790097111E+02  0.33978018998E+03  0.35364236501E+03  0.83004466477E+02 0.  0.
        -13    1    5    5    0    0 -0.16339103797E+02  0.15902464440E+02  0.15367020599E+03  0.15535246022E+03  0.00000000000E+00 0.  1.
         14    1    5    5    0    0  0.99838526178E+01 -0.67692561551E+02  0.18610998399E+03  0.19828990479E+03  0.00000000000E+00 0. -1.
         13    1    3    3    0    0 -0.84120150781E+02  0.13670227036E+00 -0.15762475585E+04  0.15784906031E+04  0.00000000000E+00 0. -1.
        -14    1    3    3    0    0  0.17253924820E+02 -0.10450865034E+02 -0.30167569727E+03  0.30234937543E+03  0.00000000000E+00 0.  1.
          5    1    4    4  501    0 -0.37571206786E+01  0.73349713026E+02 -0.14012869776E+03  0.15826503307E+03  0.41800000000E+01 0. -1.
         -5    1    4    4    0  501  0.76978597819E+02 -0.11245453152E+02 -0.27431608650E+03  0.28516478123E+03  0.41800000000E+01 0. -1.
</event>
<event>
11    1  0.8453735E-009  0.1265959E+03  0.7561462E-02  0.1123524E+00
         22   -1    0    0    0    0  0.00000000000E+00  0.00000000000E+00  0.25847840005E+04  0.25847840005E+04  0.00000000000E+00 0.  1.
         22   -1    0    0    0    0 -0.00000000000E+00 -0.00000000000E+00 -0.39524620543E+03  0.39524620543E+03  0.00000000000E+00 0. -1.
        -24    2    1    2    0    0  0.12661212923E+02 -0.76189564216E+01 -0.38634234326E+03  0.39491076795E+03  0.80472067433E+02 0.  0.
         25    2    1    2    0    0  0.76270235362E+01 -0.47962216819E+01  0.11974402259E+04  0.12039896913E+04  0.12508759762E+03 0.  0.
         24    2    1    2    0    0 -0.20288236460E+02  0.12415178103E+02  0.13784399125E+04  0.13811297467E+04  0.82807219530E+02 0.  0.
        -11    1    5    5    0    0 -0.14118566512E+02  0.39549078205E+02  0.11801473956E+04  0.11808942962E+04  0.00000000000E+00 0.  1.
         12    1    5    5    0    0 -0.61696699477E+01 -0.27133900102E+02  0.19829251693E+03  0.20023545049E+03  0.00000000000E+00 0. -1.
         11    1    3    3    0    0  0.24484760130E+02 -0.85548701058E+01 -0.38103538427E+03  0.38191707653E+03  0.00000000000E+00 0. -1.
        -12    1    3    3    0    0 -0.11823547207E+02  0.93591368427E+00 -0.53069589934E+01  0.12993691420E+02  0.00000000000E+00 0.  1.
          5    1    4    4  501    0 -0.21040886283E+02  0.54961531734E+02  0.56011341443E+03  0.56321221426E+03  0.41800000000E+01 0.  1.
         -5    1    4    4    0  501  0.28667909819E+02 -0.59757753416E+02  0.63732681144E+03  0.64077747707E+03  0.41800000000E+01 0.  1.
</event>
<event>
11    1  0.8453735E-009  0.1327783E+03  0.7561462E-02  0.1115902E+00
         22   -1    0    0    0    0  0.00000000000E+00  0.00000000000E+00  0.57158642838E+03  0.57158642838E+03  0.00000000000E+00 0. -1.
         22   -1    0    0    0    0 -0.00000000000E+00 -0.00000000000E+00 -0.26824935354E+03  0.26824935354E+03  0.00000000000E+00 0. -1.
         24    2    1    2    0    0  0.27295431399E+02  0.31377296962E+02 -0.18104004118E+03  0.20226092772E+03  0.80027564206E+02 0.  0.
         25    2    1    2    0    0 -0.42968980947E+02 -0.46331981210E+02 -0.55788464789E+01  0.14025580375E+03  0.12509029199E+03 0.  0.
        -24    2    1    2    0    0  0.15673549548E+02  0.14954684248E+02  0.48995596251E+03  0.49731905045E+03  0.82462658275E+02 0.  0.
        -13    1    3    3    0    0 -0.20133895605E+02  0.10318391945E+01 -0.10888894330E+03  0.11073951607E+03  0.00000000000E+00 0.  1.
         14    1    3    3    0    0  0.47429327004E+02  0.30345457767E+02 -0.72151097876E+02  0.91521411658E+02  0.00000000000E+00 0. -1.
         11    1    5    5    0    0 -0.99027706775E+01  0.38850723855E+02  0.37540048018E+03  0.37753538130E+03  0.00000000000E+00 0. -1.
        -12    1    5    5    0    0  0.25576320225E+02 -0.23896039607E+02  0.11455548233E+03  0.11978366916E+03  0.00000000000E+00 0.  1.
          5    1    4    4  501    0  0.44830421906E+01 -0.25503665350E+02  0.54693795988E+02  0.60658209116E+02  0.41800000000E+01 0.  1.
         -5    1    4    4    0  501 -0.47452023138E+02 -0.20828315859E+02 -0.60272642466E+02  0.79597594632E+02  0.41800000000E+01 0.  1.
</event>
<event>
11    1  0.1041856E-008  0.1879116E+03  0.7561462E-02  0.1063417E+00
         22   -1    0    0    0    0  0.00000000000E+00  0.00000000000E+00  0.19047631104E+04  0.19047631104E+04  0.00000000000E+00 0. -1.
         22   -1    0    0    0    0 -0.00000000000E+00 -0.00000000000E+00 -0.44190200403E+03  0.44190200403E+03  0.00000000000E+00 0.  1.
        -24    2    1    2    0    0 -0.42962120814E+01  0.20466629774E+02 -0.29534962714E+03  0.30703796141E+03  0.81262335176E+02 0.  0.
         25    2    1    2    0    0  0.26823305830E+02 -0.15833789013E+03 -0.61638745411E+02  0.21269054202E+03  0.12509018564E+03 0.  0.
         24    2    1    2    0    0 -0.22527093749E+02  0.13787126036E+03  0.18198494789E+04  0.18269366110E+04  0.79556899752E+02 0.  0.
        -13    1    5    5    0    0 -0.28336739022E+02  0.10404357072E+02  0.22954473145E+03  0.23152106850E+03  0.00000000000E+00 0.  1.
         14    1    5    5    0    0  0.58096452734E+01  0.12746690329E+03  0.15903047475E+04  0.15954155425E+04  0.00000000000E+00 0. -1.
         13    1    3    3    0    0 -0.23860159780E+00 -0.25365537457E+02 -0.38538988629E+02  0.46138065258E+02  0.00000000000E+00 0. -1.
        -14    1    3    3    0    0 -0.40576104836E+01  0.45832167231E+02 -0.25681063852E+03  0.26089989615E+03  0.00000000000E+00 0.  1.
          5    1    4    4  501    0  0.38476935585E+02 -0.34474288849E+01 -0.40070254700E+02  0.55816279432E+02  0.41800000000E+01 0. -1.
         -5    1    4    4    0  501 -0.11653629755E+02 -0.15489046125E+03 -0.21568490711E+02  0.15687426259E+03  0.41800000000E+01 0. -1.
</event>
<event>
11    1  0.8453735E-009  0.1380315E+03  0.7561462E-02  0.1109777E+00
         22   -1    0    0    0    0  0.00000000000E+00  0.00000000000E+00  0.15309973336E+04  0.15309973336E+04  0.00000000000E+00 0. -1.
         22   -1    0    0    0    0 -0.00000000000E+00 -0.00000000000E+00 -0.76524115721E+02  0.76524115721E+02  0.00000000000E+00 0. -1.
        -24    2    1    2    0    0  0.74354542587E+01 -0.39540606158E+02 -0.36123824107E+02  0.94062739882E+02  0.76968323684E+02 0.  0.
         25    2    1    2    0    0  0.51158285641E+02  0.16935391469E+02  0.52290050983E+03  0.54034830948E+03  0.12508946680E+03 0.  0.
         24    2    1    2    0    0 -0.58593739900E+02  0.22605214689E+02  0.96769653216E+03  0.97311039996E+03  0.81012653770E+02 0.  0.
        -11    1    5    5    0    0 -0.77257827392E+01  0.31028506882E+02  0.13173129354E+03  0.13555659208E+03  0.00000000000E+00 0.  1.
         12    1    5    5    0    0 -0.50867957160E+02 -0.84232921931E+01  0.83596523862E+03  0.83755380788E+03  0.00000000000E+00 0. -1.
         11    1    3    3    0    0 -0.25230363132E+02 -0.38203182584E+02 -0.60290152298E+00  0.45786656064E+02  0.00000000000E+00 0. -1.
        -12    1    3    3    0    0  0.32665817391E+02 -0.13374235743E+01 -0.35520922584E+02  0.48276083818E+02  0.00000000000E+00 0.  1.
          5    1    4    4  501    0  0.56122564020E+02 -0.44027446576E+02  0.34062446124E+03  0.34803829422E+03  0.41800000000E+01 0.  1.
         -5    1    4    4    0  501 -0.49642783790E+01  0.60962838045E+02  0.18227604859E+03  0.19231001527E+03  0.41800000000E+01 0.  1.
</event>
<event>
11    1  0.8453735E-009  0.1777149E+03  0.7561462E-02  0.1071506E+00
         22   -1    0    0    0    0  0.00000000000E+00  0.00000000000E+00  0.14541831552E+04  0.14541831552E+04  0.00000000000E+00 0. -1.
         22   -1    0    0    0    0 -0.00000000000E+00 -0.00000000000E+00 -0.23625876673E+03  0.23625876673E+03  0.00000000000E+00 0.  1.
         24    2    1    2    0    0  0.91057027555E+02 -0.94277567876E+02 -0.18156327853E+03  0.23852169991E+03  0.82144599012E+02 0.  0.
         25    2    1    2    0    0 -0.45577584108E+02  0.74694760073E+02  0.21506172926E+03  0.26373569643E+03  0.12509335244E+03 0.  0.
        -24    2    1    2    0    0 -0.45479443448E+02  0.19582807804E+02  0.11844259378E+04  0.11881845256E+04  0.80410190154E+02 0.  0.
        -13    1    3    3    0    0  0.89169653168E+02 -0.76537746561E+02 -0.97818247229E+02  0.15289755781E+03  0.00000000000E+00 0.  1.
         14    1    3    3    0    0  0.18873743870E+01 -0.17739821316E+02 -0.83745031302E+02  0.85624142099E+02  0.00000000000E+00 0. -1.
         13    1    5    5    0    0 -0.28749191896E+02  0.55641964490E+01  0.11155175908E+04  0.11159018647E+04  0.00000000000E+00 0. -1.
        -14    1    5    5    0    0 -0.16730251551E+02  0.14018611355E+02  0.68908347000E+02  0.72282660905E+02  0.00000000000E+00 0.  1.
          5    1    4    4  501    0  0.33297626195E+02  0.52493473686E+02  0.13693262004E+03  0.15044039192E+03  0.41800000000E+01 0.  1.
         -5    1    4    4    0  501 -0.78875210303E+02  0.22201286387E+02  0.78129109223E+02  0.11329530452E+03  0.41800000000E+01 0.  1.
</event>
<event>
11    1  0.8453735E-009  0.2157666E+03  0.7561462E-02  0.1043902E+00
         22   -1    0    0    0    0  0.00000000000E+00  0.00000000000E+00  0.52015600723E+03  0.52015600723E+03  0.00000000000E+00 0.  1.
         22   -1    0    0    0    0 -0.00000000000E+00 -0.00000000000E+00 -0.12892515591E+04  0.12892515591E+04  0.00000000000E+00 0.  1.
         24    2    1    2    0    0  0.41750811411E+01  0.33217475110E+02 -0.11722897171E+04  0.11755453155E+04  0.80763705097E+02 0.  0.
         25    2    1    2    0    0 -0.17901273340E+03 -0.31942620093E+02  0.42495125467E+02  0.22476482434E+03  0.12508997112E+03 0.  0.
        -24    2    1    2    0    0  0.17483765226E+03 -0.12748550178E+01  0.36069903977E+03  0.40909742646E+03  0.81774550733E+02 0.  0.
        -11    1    3    3    0    0 -0.12592220157E+02  0.54262561126E+02 -0.95021284192E+03  0.95184422806E+03  0.00000000000E+00 0.  1.
         12    1    3    3    0    0  0.16767301298E+02 -0.21045086015E+02 -0.22207687518E+03  0.22370108745E+03  0.00000000000E+00 0. -1.
         11    1    5    5    0    0  0.92851839834E+02  0.11345521978E+02  0.10670930309E+03  0.14190511053E+03  0.00000000000E+00 0. -1.
        -12    1    5    5    0    0  0.81985812422E+02 -0.12620376996E+02  0.25398973668E+03  0.26719231593E+03  0.00000000000E+00 0.  1.
          5    1    4    4  501    0 -0.11247387164E+03  0.42805469966E+02  0.19300243579E+02  0.12195348237E+03  0.41800000000E+01 0. -1.
         -5    1    4    4    0  501 -0.66538861761E+02 -0.74748090059E+02  0.23194881888E+02  0.10281134197E+03  0.41800000000E+01 0. -1.
</event>
<event>
11    1  0.8453735E-009  0.1306592E+03  0.7561462E-02  0.1118462E+00
         22   -1    0    0    0    0  0.00000000000E+00  0.00000000000E+00  0.87209616103E+03  0.87209616103E+03  0.00000000000E+00 0.  1.
         22   -1    0    0    0    0 -0.00000000000E+00 -0.00000000000E+00 -0.85432693016E+03  0.85432693016E+03  0.00000000000E+00 0.  1.
        -24    2    1    2    0    0  0.30360089246E+02 -0.22268795561E+02 -0.82863458831E+03  0.83339082969E+03  0.80544148093E+02 0.  0.
         25    2    1    2    0    0 -0.46855011405E+02  0.11771143338E+02  0.19673550535E+03  0.23809067478E+03  0.12509339888E+03 0.  0.
         24    2    1    2    0    0  0.16494922159E+02  0.10497652223E+02  0.64966831384E+03  0.65494158672E+03  0.80605712249E+02 0.  0.
        -13    1    5    5    0    0  0.46243163694E+02  0.67885904130E+01  0.50745478439E+03  0.50960266223E+03  0.00000000000E+00 0.  1.
         14    1    5    5    0    0 -0.29748241535E+02  0.37090618103E+01  0.14221352944E+03  0.14533892449E+03  0.00000000000E+00 0. -1.
         13    1    3    3    0    0  0.31173175331E+02  0.25468610218E+02 -0.32047605419E+03  0.32299430069E+03  0.00000000000E+00 0. -1.
        -14    1    3    3    0    0 -0.81308608442E+00 -0.47737405779E+02 -0.50815853412E+03  0.51039652901E+03  0.00000000000E+00 0.  1.
          5    1    4    4  501    0 -0.85862603526E+02  0.84816811306E+01  0.91985303504E+02  0.12618674281E+03  0.41800000000E+01 0.  1.
         -5    1    4    4    0  501  0.39007592121E+02  0.32894622072E+01  0.10475020185E+03  0.11190393198E+03  0.41800000000E+01 0.  1.
</event>
<event>
11    1  0.8453735E-009  0.1527356E+03  0.7561462E-02  0.1094116E+00
         22   -1    0    0    0    0  0.00000000000E+00  0.00000000000E+00  0.73604545488E+03  0.73604545488E+03  0.00000000000E+00 0.  1.
         22   -1    0    0    0    0 -0.00000000000E+00 -0.00000000000E+00 -0.82555115306E+02  0.82555115306E+02  0.00000000000E+00 0. -1.
        -24    2    1    2    0    0  0.49192280189E+02  0.47293461994E+02  0.60890870684E+02  0.12203167062E+03  0.80792812329E+02 0.  0.
         25    2    1    2    0    0 -0.62947852063E+02 -0.10966490693E+03  0.12430573947E+03  0.21699032537E+03  0.12507621895E+03 0.  0.
         24    2    1    2    0    0  0.13755571874E+02  0.62371444941E+02  0.46829372941E+03  0.47957857419E+03  0.81346044226E+02 0.  0.
        -13    1    5    5    0    0 -0.17392575575E+02  0.37255982897E+02  0.38482207257E+03  0.38701232213E+03  0.00000000000E+00 0.  1.
         14    1    5    5    0    0  0.31148147449E+02  0.25115462044E+02  0.83471656844E+02  0.92566252055E+02  0.00000000000E+00 0. -1.
         11    1    3    3    0    0  0.42782780804E+02  0.49553895076E+02  0.49223371160E+01  0.65651993520E+02  0.00000000000E+00 0. -1.
        -12    1    3    3    0    0  0.64094993852E+01 -0.22604330822E+01  0.55968533568E+02  0.56379677099E+02  0.00000000000E+00 0.  1.
          5    1    4    4  501    0 -0.67845753109E+02 -0.32086099187E+02  0.60467716296E+01  0.75409547294E+02  0.41800000000E+01 0. -1.
         -5    1    4    4    0  501  0.48979010459E+01 -0.77578807748E+02  0.11825896784E+03  0.14158077808E+03  0.41800000000E+01 0. -1.
</event>
<event>
11    1  0.8453735E-009  0.2530160E+03  0.7561462E-02  0.1022305E+00
         22   -1    0    0    0    0  0.00000000000E+00  0.00000000000E+00  0.11278848815E+04  0.11278848815E+04  0.00000000000E+00 0.  1.
         22   -1    0    0    0    0 -0.00000000000E+00 -0.00000000000E+00 -0.27249728988E+03  0.27249728988E+03  0.00000000000E+00 0.  1.
        -24    2    1    2    0    0  0.20155828159E+03  0.75423052317E+02 -0.15867789543E+03  0.27981616680E+03  0.82486574685E+02 0.  0.
         25    2    1    2    0    0 -0.20683378935E+03 -0.17759858515E+03  0.44274698200E+03  0.53477841937E+03  0.12506635795E+03 0.  0.
         24    2    1    2    0    0  0.52755077555E+01  0.10217553284E+03  0.57131850501E+03  0.58578758516E+03  0.79212311375E+02 0.  0.
        -13    1    5    5    0    0 -0.18908544918E+01  0.39796562407E+02  0.42101724797E+03  0.42289817309E+03  0.00000000000E+00 0.  1.
         14    1    5    5    0    0  0.71663622473E+01  0.62378970430E+02  0.15030125703E+03  0.16288941207E+03  0.00000000000E+00 0. -1.
         11    1    3    3    0    0  0.30742117365E+02 -0.17269253607E+02 -0.33562811613E+02  0.48680254966E+02  0.00000000000E+00 0. -1.
        -12    1    3    3    0    0  0.17081616423E+03  0.92692305924E+02 -0.12511508382E+03  0.23113591183E+03  0.00000000000E+00 0.  1.
          5    1    4    4  501    0 -0.20048345694E+03 -0.13301758581E+03  0.29740579953E+03  0.38256368964E+03  0.41800000000E+01 0.  1.
         -5    1    4    4    0  501 -0.63503324099E+01 -0.44580999340E+02  0.14534118247E+03  0.15221472973E+03  0.41800000000E+01 0.  1.
</event>
<event>
11    1  0.8453735E-009  0.1605832E+03  0.7561462E-02  0.1086530E+00
         22   -1    0    0    0    0  0.00000000000E+00  0.00000000000E+00  0.29625506151E+03  0.29625506151E+03  0.00000000000E+00 0.  1.
         22   -1    0    0    0    0 -0.00000000000E+00 -0.00000000000E+00 -0.78884559382E+03  0.78884559382E+03  0.00000000000E+00 0. -1.
        -24    2    1    2    0    0  0.95072346131E+02  0.47225110200E+02 -0.46899160452E+03  0.48749355117E+03  0.80174031290E+02 0.  0.
         25    2    1    2    0    0 -0.10761980066E+03  0.49601714705E+02 -0.27058633211E+03  0.32079010808E+03  0.12508788401E+03 0.  0.
         24    2    1    2    0    0  0.12547454527E+02 -0.96826824905E+02  0.24698740432E+03  0.27681699608E+03  0.78051257427E+02 0.  0.
        -13    1    5    5    0    0  0.43041625041E+02 -0.72626722645E+02  0.18870291988E+03  0.20672690754E+03  0.00000000000E+00 0.  1.
         14    1    5    5    0    0 -0.30494170514E+02 -0.24200102259E+02  0.58284484445E+02  0.70090088541E+02  0.00000000000E+00 0. -1.
         11    1    3    3    0    0  0.67292905808E+02  0.66439794163E+02 -0.28082964317E+03  0.29632392732E+03  0.00000000000E+00 0. -1.
        -12    1    3    3    0    0  0.27779440323E+02 -0.19214683964E+02 -0.18816196135E+03  0.19116962385E+03  0.00000000000E+00 0.  1.
          5    1    4    4  501    0 -0.58813480668E+02  0.35678521783E+02 -0.30502723836E+02  0.75364918804E+02  0.41800000000E+01 0.  1.
         -5    1    4    4    0  501 -0.48806319990E+02  0.13923192922E+02 -0.24008360827E+03  0.24542518928E+03  0.41800000000E+01 0.  1.
</event>
<event>
11    1  0.8453735E-009  0.1427334E+03  0.7561462E-02  0.1104544E+00
         22   -1    0    0    0    0  0.00000000000E+00  0.00000000000E+00  0.43940980118E+03  0.43940980118E+03  0.00000000000E+00 0.  1.
         22   -1    0    0    0    0 -0.00000000000E+00 -0.00000000000E+00 -0.12690127528E+04  0.12690127528E+04  0.00000000000E+00 0.  1.
         24    2    1    2    0    0 -0.65166164091E+02  0.23058033250E+02 -0.10198206333E+04  0.10250624010E+04  0.77074638561E+02 0.  0.
         25    2    1    2    0    0  0.65581730910E+02 -0.11353349783E+02 -0.22205964183E+03  0.26341556821E+03  0.12508962812E+03 0.  0.
        -24    2    1    2    0    0 -0.41556681890E+00 -0.11704683467E+02  0.41227732351E+03  0.41994458481E+03  0.79017026732E+02 0.  0.
        -11    1    3    3    0    0 -0.14383240635E+02  0.10267825995E+02 -0.74991695527E+03  0.75012515334E+03  0.00000000000E+00 0.  1.
         12    1    3    3    0    0 -0.50782923456E+02  0.12790207255E+02 -0.26990367806E+03  0.27493724765E+03  0.00000000000E+00 0. -1.
         13    1    5    5    0    0 -0.21186487907E+01 -0.35264688640E+02  0.88268267750E+02  0.95075622686E+02  0.00000000000E+00 0. -1.
        -14    1    5    5    0    0  0.17030819718E+01  0.23560005173E+02  0.32400905576E+03  0.32486896212E+03  0.00000000000E+00 0.  1.
          5    1    4    4  501    0 -0.31191706332E+02 -0.24034859628E+02 -0.37203853183E+02  0.54334115553E+02  0.41800000000E+01 0. -1.
         -5    1    4    4    0  501  0.96773437242E+02  0.12681509844E+02 -0.18485578865E+03  0.20908145266E+03  0.41800000000E+01 0. -1.
</event>
<event>
11    1  0.8821819E-009  0.1514442E+03  0.7561462E-02  0.1095412E+00
         22   -1    0    0    0    0  0.00000000000E+00  0.00000000000E+00  0.33832194925E+03  0.33832194925E+03  0.00000000000E+00 0.  1.
         22   -1    0    0    0    0 -0.00000000000E+00 -0.00000000000E+00 -0.83570139195E+03  0.83570139195E+03  0.00000000000E+00 0. -1.
         24    2    1    2    0    0 -0.16988293057E+02 -0.69843942727E+01 -0.65031148560E+03  0.65584125493E+03  0.82977945899E+02 0.  0.
         25    2    1    2    0    0 -0.69457668505E+02  0.76101169847E+01 -0.14093055908E+03  0.20097647578E+03  0.12509132559E+03 0.  0.
        -24    2    1    2    0    0  0.86445961561E+02 -0.62572271198E+00  0.29386260199E+03  0.31720561048E+03  0.82406763532E+02 0.  0.
        -13    1    3    3    0    0 -0.32813350755E+02  0.19826144126E+02 -0.15947771142E+03  0.16402113406E+03  0.00000000000E+00 0.  1.
         14    1    3    3    0    0  0.15825057699E+02 -0.26810538399E+02 -0.49083377418E+03  0.49182012087E+03  0.00000000000E+00 0. -1.
         13    1    5    5    0    0  0.27181773835E+02  0.38146257090E+02  0.14453591176E+03  0.15193622197E+03  0.00000000000E+00 0. -1.
        -14    1    5    5    0    0  0.59264187726E+02 -0.38771979802E+02  0.14932669023E+03  0.16526938852E+03  0.00000000000E+00 0.  1.
          5    1    4    4  501    0 -0.50347159629E+02  0.58503072316E+02 -0.41887112040E+02  0.87917282193E+02  0.41800000000E+01 0.  1.
         -5    1    4    4    0  501 -0.19110508876E+02 -0.50892955331E+02 -0.99043447045E+02  0.11305919359E+03  0.41800000000E+01 0.  1.
</event>
<event>
11    1  0.8453735E-009  0.2318807E+03  0.7561462E-02  0.1034020E+00
         22   -1    0    0    0    0  0.00000000000E+00  0.00000000000E+00  0.16995009371E+03  0.16995009371E+03  0.00000000000E+00 0.  1.
         22   -1    0    0    0    0 -0.00000000000E+00 -0.00000000000E+00 -0.37607567871E+04  0.37607567871E+04  0.00000000000E+00 0.  1.
        -24    2    1    2    0    0 -0.83366793825E+02 -0.17309294590E+03 -0.30182998557E+04  0.30254791156E+04  0.80490185561E+02 0.  0.
         25    2    1    2    0    0  0.59131931116E+02  0.20859619036E+03 -0.70094678720E+03  0.74430064597E+03  0.12509235468E+03 0.  0.
         24    2    1    2    0    0  0.24234862709E+02 -0.35503244460E+02  0.12843994945E+03  0.16092711926E+03  0.86907468961E+02 0.  0.
        -13    1    5    5    0    0  0.25794855023E+02 -0.46681685047E+02  0.13683422866E+03  0.14686102409E+03  0.00000000000E+00 0.  1.
         14    1    5    5    0    0 -0.15599923138E+01  0.11178440587E+02 -0.83942792070E+01  0.14066095172E+02  0.00000000000E+00 0. -1.
         11    1    3    3    0    0 -0.10841397520E+02 -0.11440584781E+03 -0.16219754716E+04  0.16260414092E+04  0.00000000000E+00 0. -1.
        -12    1    3    3    0    0 -0.72525396305E+02 -0.58687098089E+02 -0.13963243841E+04  0.13994377065E+04  0.00000000000E+00 0.  1.
          5    1    4    4  501    0  0.24476583443E+02  0.19463755007E+03 -0.45511247942E+03  0.49560843451E+03  0.41800000000E+01 0.  1.
         -5    1    4    4    0  501  0.34655347672E+02  0.13958640296E+02 -0.24583430778E+03  0.24869221146E+03  0.41800000000E+01 0.  1.
</event>
<event>
11    1  0.8453735E-009  0.1275617E+03  0.7561462E-02  0.1122302E+00
         22   -1    0    0    0    0  0.00000000000E+00  0.00000000000E+00  0.28269237886E+03  0.28269237886E+03  0.00000000000E+00 0. -1.
         22   -1    0    0    0    0 -0.00000000000E+00 -0.00000000000E+00 -0.91496917824E+03  0.91496917824E+03  0.00000000000E+00 0. -1.
        -24    2    1    2    0    0  0.17732824078E+02  0.18758866113E+02 -0.82300757239E+03  0.82732914351E+03  0.80409572744E+02 0.  0.
         25    2    1    2    0    0 -0.44129462739E+01 -0.51302152374E+01 -0.34397274230E+02  0.12990964544E+03  0.12509016868E+03 0.  0.
         24    2    1    2    0    0 -0.13319877804E+02 -0.13628650876E+02  0.22512804724E+03  0.24042276815E+03  0.82202862003E+02 0.  0.
        -13    1    5    5    0    0  0.11079297329E+02 -0.43844510333E+02  0.13152931780E+03  0.13908649595E+03  0.00000000000E+00 0.  1.
         14    1    5    5    0    0 -0.24399175133E+02  0.30215859458E+02  0.93598729446E+02  0.10133627220E+03  0.00000000000E+00 0. -1.
         13    1    3    3    0    0  0.22978410766E+02 -0.28583865968E+02 -0.38215686130E+03  0.38391263511E+03  0.00000000000E+00 0. -1.
        -14    1    3    3    0    0 -0.52455866872E+01  0.47342732082E+02 -0.44085071109E+03  0.44341650841E+03  0.00000000000E+00 0.  1.
          5    1    4    4  501    0  0.11461914591E+02 -0.60340124864E+02  0.23170135093E+01  0.61604765289E+02  0.41800000000E+01 0. -1.
         -5    1    4    4    0  501 -0.15874860865E+02  0.55209909627E+02 -0.36714287739E+02  0.68304880153E+02  0.41800000000E+01 0. -1.
</event>
<event>
11    1  0.8453735E-009  0.2143681E+03  0.7561462E-02  0.1044804E+00
         22   -1    0    0    0    0  0.00000000000E+00  0.00000000000E+00  0.90560523494E+02  0.90560523494E+02  0.00000000000E+00 0. -1.
         22   -1    0    0    0    0 -0.00000000000E+00 -0.00000000000E+00 -0.12353264918E+04  0.12353264918E+04  0.00000000000E+00 0.  1.
         24    2    1    2    0    0  0.15689998886E+03 -0.83181710831E+02 -0.96829346284E+03  0.98773698273E+03  0.80593506838E+02 0.  0.
         25    2    1    2    0    0 -0.13025666543E+03  0.78215639494E+02 -0.94074722261E+02  0.21813455972E+03  0.12509255624E+03 0.  0.
        -24    2    1    2    0    0 -0.26643323434E+02  0.49660713378E+01 -0.82397783204E+02  0.12001547285E+03  0.82944502516E+02 0.  0.
        -11    1    3    3    0    0  0.13595648909E+03 -0.93020762057E+02 -0.73169770189E+03  0.75001237060E+03  0.00000000000E+00 0.  1.
         12    1    3    3    0    0  0.20943499769E+02  0.98390512258E+01 -0.23659576095E+03  0.23772461212E+03  0.00000000000E+00 0. -1.
         13    1    5    5    0    0  0.16672365821E+02 -0.28161359008E+02 -0.31302872455E+02  0.45286860647E+02  0.00000000000E+00 0. -1.
        -14    1    5    5    0    0 -0.43315689255E+02  0.33127430346E+02 -0.51094910748E+02  0.74728612200E+02  0.00000000000E+00 0.  1.
          5    1    4    4  501    0 -0.14874197426E+00  0.43166395751E+02 -0.68263618485E+02  0.80874927233E+02  0.41800000000E+01 0. -1.
         -5    1    4    4    0  501 -0.13010792345E+03  0.35049243743E+02 -0.25811103776E+02  0.13725963249E+03  0.41800000000E+01 0. -1.
</event>
<event>
11    1  0.8453735E-009  0.1681286E+03  0.7561462E-02  0.1079672E+00
         22   -1    0    0    0    0  0.00000000000E+00  0.00000000000E+00  0.24529733645E+03  0.24529733645E+03  0.00000000000E+00 0.  1.
         22   -1    0    0    0    0 -0.00000000000E+00 -0.00000000000E+00 -0.13853082583E+04  0.13853082583E+04  0.00000000000E+00 0. -1.
         24    2    1    2    0    0 -0.16760062394E+01 -0.50412530017E+01 -0.12416939098E+04  0.12443395536E+04  0.80925495832E+02 0.  0.
         25    2    1    2    0    0 -0.70072358937E+02  0.90820501632E+02 -0.54822886253E+02  0.17835827701E+03  0.12509047573E+03 0.  0.
        -24    2    1    2    0    0  0.71748365177E+02 -0.85779248631E+02  0.15650587413E+03  0.20790776417E+03  0.78902739908E+02 0.  0.
        -11    1    3    3    0    0 -0.27570426985E+02 -0.31907925438E+02 -0.53389746492E+03  0.53556021809E+03  0.00000000000E+00 0.  1.
         12    1    3    3    0    0  0.25894420745E+02  0.26866672436E+02 -0.70779644485E+03  0.70877933551E+03  0.00000000000E+00 0. -1.
         11    1    5    5    0    0 -0.15151206365E+02 -0.10589057362E+02  0.41009204347E+02  0.44982685906E+02  0.00000000000E+00 0. -1.
        -12    1    5    5    0    0  0.86899571542E+02 -0.75190191269E+02  0.11549666978E+03  0.16292507827E+03  0.00000000000E+00 0.  1.
          5    1    4    4  501    0 -0.46158719746E+02  0.86352100541E+02  0.19603453823E+02  0.99945387479E+02  0.41800000000E+01 0. -1.
         -5    1    4    4    0  501 -0.23913639191E+02  0.44684010912E+01 -0.74426340076E+02  0.78412889532E+02  0.41800000000E+01 0. -1.
</event>
<event>
11    1  0.8453735E-009  0.1454659E+03  0.7561462E-02  0.1101604E+00
         22   -1    0    0    0    0  0.00000000000E+00  0.00000000000E+00  0.11716858532E+03  0.11716858532E+03  0.00000000000E+00 0. -1.
         22   -1    0    0    0    0 -0.00000000000E+00 -0.00000000000E+00 -0.12362594527E+04  0.12362594527E+04  0.00000000000E+00 0.  1.
        -24    2    1    2    0    0  0.30746495156E+02  0.54805173098E+02 -0.64752515459E+03  0.65545089778E+03  0.79863005351E+02 0.  0.
         25    2    1    2    0    0 -0.41274104819E+02 -0.10248280295E+03 -0.55040213037E+03  0.57514785064E+03  0.12508504446E+03 0.  0.
         24    2    1    2    0    0  0.10527609663E+02  0.47677629856E+02  0.78836417621E+02  0.12282928956E+03  0.80547294656E+02 0.  0.
        -13    1    5    5    0    0 -0.24054698368E+02 -0.10708922607E+02  0.22135171993E+02  0.34398769980E+02  0.00000000000E+00 0.  1.
         14    1    5    5    0    0  0.34582308031E+02  0.58386552463E+02  0.56701245627E+02  0.88430519579E+02  0.00000000000E+00 0. -1.
         11    1    3    3    0    0 -0.77522670786E+01  0.63387673258E+01 -0.76823784569E+01  0.12621273899E+02  0.00000000000E+00 0. -1.
        -12    1    3    3    0    0  0.38498762235E+02  0.48466405772E+02 -0.63984277613E+03  0.64282962389E+03  0.00000000000E+00 0.  1.
          5    1    4    4  501    0 -0.28923026765E+02 -0.81291705647E+02 -0.54206754776E+03  0.54890762576E+03  0.41800000000E+01 0.  1.
         -5    1    4    4    0  501 -0.12351078054E+02 -0.21191097307E+02 -0.83345826075E+01  0.26240224873E+02  0.41800000000E+01 0.  1.
</event>
<event>
11    1  0.8453735E-009  0.1460054E+03  0.7561462E-02  0.1101032E+00
         22   -1    0    0    0    0  0.00000000000E+00  0.00000000000E+00  0.40362789520E+03  0.40362789520E+03  0.00000000000E+00 0. -1.
         22   -1    0    0    0    0 -0.00000000000E+00 -0.00000000000E+00 -0.24487481864E+04  0.24487481864E+04  0.00000000000E+00 0. -1.
        -24    2    1    2    0    0 -0.23905429250E+02  0.10407530007E+02 -0.23526278884E+04  0.23541337477E+04  0.80049576352E+02 0.  0.
         25    2    1    2    0    0 -0.35270458266E+02 -0.58663684365E+02 -0.27928536132E+02  0.14530745772E+03  0.12509524790E+03 0.  0.
         24    2    1    2    0    0  0.59175887517E+02  0.48256154358E+02  0.33543613327E+03  0.35293487622E+03  0.78836446216E+02 0.  0.
        -11    1    5    5    0    0  0.13436808842E+02  0.44439521992E+02  0.72979952294E+02  0.86495620604E+02  0.00000000000E+00 0.  1.
         12    1    5    5    0    0  0.45739078675E+02  0.38166323658E+01  0.26245618097E+03  0.26643925561E+03  0.00000000000E+00 0. -1.
         13    1    3    3    0    0 -0.41641026638E+02  0.49448016853E+01 -0.21974584323E+04  0.21978585004E+04  0.00000000000E+00 0. -1.
        -14    1    3    3    0    0  0.17735597388E+02  0.54627283217E+01 -0.15516945612E+03  0.15627524733E+03  0.00000000000E+00 0.  1.
          5    1    4    4  501    0 -0.63944127338E+02 -0.22166220429E+01 -0.46488383031E+02  0.79198528971E+02  0.41800000000E+01 0. -1.
         -5    1    4    4    0  501  0.28673669071E+02 -0.56447062322E+02  0.18559846899E+02  0.66108928745E+02  0.41800000000E+01 0. -1.
</event>
<event>
11    1  0.8453735E-009  0.3022086E+03  0.7561462E-02  0.9992608E-01
         22   -1    0    0    0    0  0.00000000000E+00  0.00000000000E+00  0.34541503257E+04  0.34541503257E+04  0.00000000000E+00 0. -1.
         22   -1    0    0    0    0 -0.00000000000E+00 -0.00000000000E+00 -0.62318714015E+03  0.62318714015E+03  0.00000000000E+00 0.  1.
         24    2    1    2    0    0  0.18585890132E+03  0.23702118711E+02 -0.47582721400E+03  0.51762172871E+03  0.80096159792E+02 0.  0.
         25    2    1    2    0    0 -0.38647760519E+03  0.15509529454E+03  0.27386326740E+03  0.51387559884E+03  0.12509017606E+03 0.  0.
        -24    2    1    2    0    0  0.20061870387E+03 -0.17879741325E+03  0.30329271322E+04  0.30458401383E+04  0.79238752167E+02 0.  0.
        -11    1    3    3    0    0  0.95295337100E+02  0.28349058532E+02 -0.34051655694E+03  0.35473426102E+03  0.00000000000E+00 0.  1.
         12    1    3    3    0    0  0.90563564224E+02 -0.46469398213E+01 -0.13531065706E+03  0.16288746768E+03  0.00000000000E+00 0. -1.
         11    1    5    5    0    0  0.12598765440E+03 -0.10007617894E+03  0.22005855238E+04  0.22064597840E+04  0.00000000000E+00 0. -1.
        -12    1    5    5    0    0  0.74631049473E+02 -0.78721234308E+02  0.83234160833E+03  0.83938035433E+03  0.00000000000E+00 0.  1.
          5    1    4    4  501    0 -0.37625830320E+03  0.11622689399E+03  0.24028731271E+03  0.46133986026E+03  0.41800000000E+01 0.  1.
         -5    1    4    4    0  501 -0.10219301989E+02  0.38868400549E+02  0.33575954697E+02  0.52535738580E+02  0.41800000000E+01 0.  1.
</event>
<event>
11    1  0.8453735E-009  0.5821103E+03  0.7561462E-02  0.9226710E-01
         22   -1    0    0    0    0  0.00000000000E+00  0.00000000000E+00  0.21541047633E+03  0.21541047633E+03  0.00000000000E+00 0.  1.
         22   -1    0    0    0    0 -0.00000000000E+00 -0.00000000000E+00 -0.39326357988E+03  0.39326357988E+03  0.00000000000E+00 0.  1.
         24    2    1    2    0    0  0.99844303507E+01  0.21210516429E+03 -0.10884148411E+03  0.25237938197E+03  0.82222832658E+02 0.  0.
         25    2    1    2    0    0 -0.10175260618E+02 -0.23355153030E+03 -0.39763025047E+02  0.26810223104E+03  0.12509138617E+03 0.  0.
        -24    2    1    2    0    0  0.19083026706E+00  0.21446366010E+02 -0.29248594392E+02  0.88192443201E+02  0.80389325987E+02 0.  0.
        -11    1    3    3    0    0 -0.27871590616E+02  0.15884912542E+03 -0.88413784204E+02  0.18392081842E+03  0.00000000000E+00 0.  1.
         12    1    3    3    0    0  0.37856020967E+02  0.53256038872E+02 -0.20427699903E+02  0.68458563548E+02  0.00000000000E+00 0. -1.
         11    1    5    5    0    0 -0.37668915645E+02  0.10552325950E+02  0.11598582532E-01  0.39119035307E+02  0.00000000000E+00 0. -1.
        -12    1    5    5    0    0  0.37859745912E+02  0.10894040060E+02 -0.29260192975E+02  0.49073407893E+02  0.00000000000E+00 0.  1.
          5    1    4    4  501    0 -0.57848444962E+02 -0.18343530098E+03 -0.98845573825E+01  0.19263989490E+03  0.41800000000E+01 0. -1.
         -5    1    4    4    0  501  0.47673184345E+02 -0.50116229317E+02 -0.29878467664E+02  0.75462336145E+02  0.41800000000E+01 0. -1.
</event>
<event>
11    1  0.8453735E-009  0.1506634E+03  0.7561462E-02  0.1096203E+00
         22   -1    0    0    0    0  0.00000000000E+00  0.00000000000E+00  0.13692874254E+04  0.13692874254E+04  0.00000000000E+00 0.  1.
         22   -1    0    0    0    0 -0.00000000000E+00 -0.00000000000E+00 -0.16739189705E+03  0.16739189705E+03  0.00000000000E+00 0.  1.
         24    2    1    2    0    0  0.83687395615E+02  0.12355754604E+01 -0.13197415495E+03  0.17490701308E+03  0.78550485800E+02 0.  0.
         25    2    1    2    0    0 -0.91094347970E+02  0.16578703326E+02  0.49973134826E+03  0.52340236423E+03  0.12508229615E+03 0.  0.
        -24    2    1    2    0    0  0.74069523546E+01 -0.17814278787E+02  0.83413833499E+03  0.83836994510E+03  0.81885233546E+02 0.  0.
        -13    1    3    3    0    0  0.30431101199E+02  0.18577584358E+02 -0.10844700750E+03  0.11415748770E+03  0.00000000000E+00 0.  1.
         14    1    3    3    0    0  0.53256294416E+02 -0.17342008898E+02 -0.23527147443E+02  0.60749525384E+02  0.00000000000E+00 0. -1.
         13    1    5    5    0    0 -0.50410889399E+01  0.78844911334E+01  0.98485671439E+01  0.13585729753E+02  0.00000000000E+00 0. -1.
        -14    1    5    5    0    0  0.12448041294E+02 -0.25698769920E+02  0.82428976785E+03  0.82478421535E+03  0.00000000000E+00 0.  1.
          5    1    4    4  501    0 -0.62265286672E+02  0.32516339711E+02  0.99905720434E+02  0.12220026043E+03  0.41800000000E+01 0. -1.
         -5    1    4    4    0  501 -0.28829061297E+02 -0.15937636385E+02  0.39982562783E+03  0.40120210381E+03  0.41800000000E+01 0. -1.
</event>
<event>
11    1  0.8453735E-009  0.1661457E+03  0.7561462E-02  0.1081435E+00
         22   -1    0    0    0    0  0.00000000000E+00  0.00000000000E+00  0.12066450316E+04  0.12066450316E+04  0.00000000000E+00 0. -1.
         22   -1    0    0    0    0 -0.00000000000E+00 -0.00000000000E+00 -0.70453862827E+03  0.70453862827E+03  0.00000000000E+00 0. -1.
         24    2    1    2    0    0 -0.21024708686E+02  0.93748480114E+01 -0.63549336098E+03  0.64096493126E+03  0.80338689905E+02 0.  0.
         25    2    1    2    0    0 -0.55965918449E+02  0.70144114052E+02  0.33166534216E+02  0.15748020717E+03  0.12509043087E+03 0.  0.
        -24    2    1    2    0    0  0.76990627135E+02 -0.79518962063E+02  0.11044332301E+04  0.11127385214E+04  0.78507549751E+02 0.  0.
        -11    1    3    3    0    0  0.27824150717E+02 -0.65263285986E+01 -0.14506971255E+03  0.14785803268E+03  0.00000000000E+00 0.  1.
         12    1    3    3    0    0 -0.48848859403E+02  0.15901176610E+02 -0.49042364843E+03  0.49310689858E+03  0.00000000000E+00 0. -1.
         11    1    5    5    0    0  0.86810465317E+02 -0.65226629163E+02  0.10502447771E+04  0.10558431047E+04  0.00000000000E+00 0. -1.
        -12    1    5    5    0    0 -0.98198381820E+01 -0.14292332900E+02  0.54188453015E+02  0.56895416703E+02  0.00000000000E+00 0.  1.
          5    1    4    4  501    0  0.16390644070E+02 -0.13607536422E+02 -0.24396651808E+02  0.32657116834E+02  0.41800000000E+01 0.  1.
         -5    1    4    4    0  501 -0.72356562519E+02  0.83751650474E+02  0.57563186024E+02  0.12482309034E+03  0.41800000000E+01 0.  1.
</event>
<event>
11    1  0.8453735E-009  0.1950470E+03  0.7561462E-02  0.1058082E+00
         22   -1    0    0    0    0  0.00000000000E+00  0.00000000000E+00  0.13309547604E+03  0.13309547604E+03  0.00000000000E+00 0.  1.
         22   -1    0    0    0    0 -0.00000000000E+00 -0.00000000000E+00 -0.31536100539E+04  0.31536100539E+04  0.00000000000E+00 0.  1.
        -24    2    1    2    0    0 -0.41844576756E+02  0.99975858747E+02 -0.24934646119E+04  0.24971366482E+04  0.81114289651E+02 0.  0.
         25    2    1    2    0    0 -0.86055482186E+02 -0.17423511553E+03 -0.57081362095E+03  0.61582339477E+03  0.12508733821E+03 0.  0.
         24    2    1    2    0    0  0.12790005894E+03  0.74259256783E+02  0.43763655012E+02  0.17374548696E+03  0.79996090175E+02 0.  0.
        -11    1    5    5    0    0  0.12416179450E+03  0.81236087260E+02  0.56483933310E+02  0.15876362244E+03  0.00000000000E+00 0.  1.
         12    1    5    5    0    0  0.37382644378E+01 -0.69768304771E+01 -0.12720278298E+02  0.14981864520E+02  0.00000000000E+00 0. -1.
         11    1    3    3    0    0  0.17421622931E+02  0.11207995513E+02 -0.17591356756E+03  0.17712909236E+03  0.00000000000E+00 0. -1.
        -12    1    3    3    0    0 -0.59266199687E+02  0.88767863233E+02 -0.23175510443E+04  0.23200075558E+04  0.00000000000E+00 0.  1.
          5    1    4    4  501    0 -0.10922991040E+03 -0.12542629886E+03 -0.49799871545E+03  0.52505535210E+03  0.41800000000E+01 0. -1.
         -5    1    4    4    0  501  0.23174428215E+02 -0.48808816665E+02 -0.72814905501E+02  0.90768042672E+02  0.41800000000E+01 0. -1.
</event>
<event>
11    1  0.8453735E-009  0.4307969E+03  0.7561462E-02  0.9563020E-01
         22   -1    0    0    0    0  0.00000000000E+00  0.00000000000E+00  0.22819204456E+04  0.22819204456E+04  0.00000000000E+00 0. -1.
         22   -1    0    0    0    0 -0.00000000000E+00 -0.00000000000E+00 -0.44728373817E+03  0.44728373817E+03  0.00000000000E+00 0. -1.
        -24    2    1    2    0    0  0.25648558929E+02 -0.10196186178E+02 -0.15783073821E+03  0.17914360660E+03  0.80125395936E+02 0.  0.
         25    2    1    2    0    0  0.34858085972E+03  0.18645602913E+03 -0.90922905422E+02  0.42448590688E+03  0.12508734488E+03 0.  0.
         24    2    1    2    0    0 -0.37422941865E+03 -0.17625984295E+03  0.20833903511E+04  0.21255746703E+04  0.80231752125E+02 0.  0.
        -13    1    5    5    0    0 -0.24471967966E+02  0.75978475168E+01  0.10209687261E+03  0.10526336447E+03  0.00000000000E+00 0.  1.
         14    1    5    5    0    0 -0.34975745069E+03 -0.18385769047E+03  0.19812934785E+04  0.20203113058E+04  0.00000000000E+00 0. -1.
         11    1    3    3    0    0  0.16138254889E+02 -0.13092003598E+02 -0.16536759968E+03  0.16666819389E+03  0.00000000000E+00 0. -1.
        -12    1    3    3    0    0  0.95103040394E+01  0.28958174191E+01  0.75368614732E+01  0.12475412711E+02  0.00000000000E+00 0.  1.
          5    1    4    4  501    0  0.32071220103E+03  0.18459079201E+03 -0.48083747313E+02  0.37317501998E+03  0.41800000000E+01 0. -1.
         -5    1    4    4    0  501  0.27868658695E+02  0.18652371187E+01 -0.42839158109E+02  0.51310886900E+02  0.41800000000E+01 0. -1.
</event>
<event>
11    1  0.8453735E-009  0.2460152E+03  0.7561462E-02  0.1026044E+00
         22   -1    0    0    0    0  0.00000000000E+00  0.00000000000E+00  0.95816820765E+03  0.95816820765E+03  0.00000000000E+00 0. -1.
         22   -1    0    0    0    0 -0.00000000000E+00 -0.00000000000E+00 -0.13500617910E+03  0.13500617910E+03  0.00000000000E+00 0.  1.
        -24    2    1    2    0    0  0.86669909072E+02 -0.14085503948E+03  0.92843951090E+02  0.20630827360E+03  0.81186755185E+02 0.  0.
         25    2    1    2    0    0  0.52228606533E+02  0.26608414161E+03  0.45580025665E+03  0.54491301186E+03  0.12509084206E+03 0.  0.
         24    2    1    2    0    0 -0.13889851561E+03 -0.12522910213E+03  0.27451782081E+03  0.34195310130E+03  0.81220464704E+02 0.  0.
        -13    1    5    5    0    0 -0.24404626915E+02  0.93013634161E+01  0.48537372717E+02  0.55117853065E+02  0.00000000000E+00 0.  1.
         14    1    5    5    0    0 -0.11449388869E+03 -0.13453046555E+03  0.22598044809E+03  0.28683524823E+03  0.00000000000E+00 0. -1.
         13    1    3    3    0    0  0.36540676932E+02 -0.56922921489E+02 -0.52131967533E+01  0.67842593419E+02  0.00000000000E+00 0. -1.
        -14    1    3    3    0    0  0.50129232140E+02 -0.83932117990E+02  0.98057147843E+02  0.13846568018E+03  0.00000000000E+00 0.  1.
          5    1    4    4  501    0  0.41788402400E+02  0.70432649910E+02  0.23894757713E+03  0.25262708835E+03  0.41800000000E+01 0.  1.
         -5    1    4    4    0  501  0.10440204133E+02  0.19565149170E+03  0.21685267952E+03  0.29228592351E+03  0.41800000000E+01 0.  1.
</event>
<event>
11    1  0.8453735E-009  0.1303932E+03  0.7561462E-02  0.1118787E+00
         22   -1    0    0    0    0  0.00000000000E+00  0.00000000000E+00  0.31299453926E+03  0.31299453926E+03  0.00000000000E+00 0. -1.
         22   -1    0    0    0    0 -0.00000000000E+00 -0.00000000000E+00 -0.58605134795E+03  0.58605134795E+03  0.00000000000E+00 0. -1.
         24    2    1    2    0    0  0.36263590598E+02 -0.18215263048E+02 -0.51756045885E+03  0.52258376018E+03  0.59817338858E+02 0.  0.
         25    2    1    2    0    0 -0.40609042140E+01  0.40300400308E+02  0.18275865203E+02  0.13276319589E+03  0.12510573818E+03 0.  0.
        -24    2    1    2    0    0 -0.32202686383E+02 -0.22085137260E+02  0.22622778496E+03  0.24369893114E+03  0.81764246807E+02 0.  0.
        -13    1    3    3    0    0  0.15137223163E+02  0.37674825366E+01 -0.27817416980E+02  0.31892603173E+02  0.00000000000E+00 0.  1.
         14    1    3    3    0    0  0.21126367435E+02 -0.21982745585E+02 -0.48974304187E+03  0.49069115700E+03  0.00000000000E+00 0. -1.
         11    1    5    5    0    0 -0.32673379142E+02 -0.32045180388E+02  0.22885613751E+03  0.23338717824E+03  0.00000000000E+00 0. -1.
        -12    1    5    5    0    0  0.47069275881E+00  0.99600431278E+01 -0.26283525543E+01  0.10311752903E+02  0.00000000000E+00 0.  1.
          5    1    4    4  501    0  0.37609269513E+02 -0.12688864242E+02 -0.29842482666E+02  0.49834833207E+02  0.41800000000E+01 0. -1.
         -5    1    4    4    0  501 -0.41670173727E+02  0.52989264551E+02  0.48118347869E+02  0.82928362686E+02  0.41800000000E+01 0. -1.
</event>
<event>
11    1  0.8453735E-009  0.1352067E+03  0.7561462E-02  0.1113032E+00
         22   -1    0    0    0    0  0.00000000000E+00  0.00000000000E+00  0.15074587123E+04  0.15074587123E+04  0.00000000000E+00 0.  1.
         22   -1    0    0    0    0 -0.00000000000E+00 -0.00000000000E+00 -0.10541563942E+04  0.10541563942E+04  0.00000000000E+00 0.  1.
        -24    2    1    2    0    0  0.17364303664E+02 -0.13596272113E+02 -0.98409158345E+03  0.98751530469E+03  0.79144518002E+02 0.  0.
         25    2    1    2    0    0  0.20451652854E+02 -0.21806462962E+02 -0.49462132836E+01  0.12870994232E+03  0.12509193537E+03 0.  0.
         24    2    1    2    0    0 -0.37815956519E+02  0.35402735074E+02  0.14423401148E+04  0.14453898595E+04  0.78252405943E+02 0.  0.
        -13    1    5    5    0    0 -0.26677001883E+02  0.49994705442E+02  0.13528481494E+04  0.13540344340E+04  0.00000000000E+00 0.  1.
         14    1    5    5    0    0 -0.11138954636E+02 -0.14591970367E+02  0.89491965361E+02  0.91355425530E+02  0.00000000000E+00 0. -1.
         13    1    3    3    0    0  0.63550679281E+01 -0.45250824297E+02 -0.43268954351E+03  0.43509569643E+03  0.00000000000E+00 0. -1.
        -14    1    3    3    0    0  0.11009235736E+02  0.31654552184E+02 -0.55140203994E+03  0.55241960826E+03  0.00000000000E+00 0.  1.
          5    1    4    4  501    0  0.26985410100E+02  0.45103727715E+02  0.20687140777E+02  0.56639110212E+02  0.41800000000E+01 0. -1.
         -5    1    4    4    0  501 -0.65337572456E+01 -0.66910190677E+02 -0.25633354060E+02  0.72070832107E+02  0.41800000000E+01 0. -1.
</event>
<event>
11    1  0.8453735E-009  0.1034691E+04  0.7561462E-02  0.8646701E-01
         22   -1    0    0    0    0  0.00000000000E+00  0.00000000000E+00  0.13363760582E+04  0.13363760582E+04  0.00000000000E+00 0.  1.
         22   -1    0    0    0    0 -0.00000000000E+00 -0.00000000000E+00 -0.12708110142E+04  0.12708110142E+04  0.00000000000E+00 0.  1.
        -24    2    1    2    0    0  0.62816223962E+03 -0.80441317533E+03 -0.68384300331E+03  0.12311777018E+04  0.80553859187E+02 0.  0.
         25    2    1    2    0    0 -0.64023920085E+03  0.83128129624E+03  0.63619124331E+03  0.12334191060E+04  0.12509422561E+03 0.  0.
         24    2    1    2    0    0  0.12076961228E+02 -0.26868120911E+02  0.11321680396E+03  0.14259026463E+03  0.81524167908E+02 0.  0.
        -11    1    5    5    0    0  0.15437386642E+02 -0.21402073542E+02 -0.26723375195E+01  0.26523631841E+02  0.00000000000E+00 0.  1.
         12    1    5    5    0    0 -0.33604254138E+01 -0.54660473695E+01  0.11588914148E+03  0.11606663279E+03  0.00000000000E+00 0. -1.
         11    1    3    3    0    0  0.19468068237E+03 -0.21019529356E+03 -0.15972706638E+03  0.32801732463E+03  0.00000000000E+00 0. -1.
        -12    1    3    3    0    0  0.43348155725E+03 -0.59421788177E+03 -0.52411593693E+03  0.90316037713E+03  0.00000000000E+00 0.  1.
          5    1    4    4  501    0 -0.94378460678E+02  0.68067447197E+02  0.94414965128E+02  0.14990706871E+03  0.41800000000E+01 0.  1.
         -5    1    4    4    0  501 -0.54586074017E+03  0.76321384904E+03  0.54177627818E+03  0.10835120373E+04  0.41800000000E+01 0.  1.
</event>
<event>
11    1  0.8453735E-009  0.1541463E+03  0.7561462E-02  0.1092716E+00
         22   -1    0    0    0    0  0.00000000000E+00  0.00000000000E+00  0.22587639551E+03  0.22587639551E+03  0.00000000000E+00 0.  1.
         22   -1    0    0    0    0 -0.00000000000E+00 -0.00000000000E+00 -0.46483393772E+03  0.46483393772E+03  0.00000000000E+00 0.  1.
        -24    2    1    2    0    0  0.74186088669E+02  0.31123504722E+02 -0.28197756303E+03  0.30414938869E+03  0.80766678089E+02 0.  0.
         25    2    1    2    0    0  0.16990754911E+01 -0.88057031357E+02 -0.11051937141E+03  0.18873172334E+03  0.12509278280E+03 0.  0.
         24    2    1    2    0    0 -0.75885164160E+02  0.56933526635E+02  0.15353939222E+03  0.19782922120E+03  0.81006612084E+02 0.  0.
        -13    1    5    5    0    0 -0.29361209454E+01  0.14090524460E+02  0.92238921622E+02  0.93355140982E+02  0.00000000000E+00 0.  1.
         14    1    5    5    0    0 -0.72949043215E+02  0.42843002175E+02  0.61300470601E+02  0.10447408022E+03  0.00000000000E+00 0. -1.
         11    1    3    3    0    0  0.17628675561E+02 -0.76350128892E+01 -0.65203801304E+01  0.20287409418E+02  0.00000000000E+00 0. -1.
        -12    1    3    3    0    0  0.56557413108E+02  0.38758517611E+02 -0.27545718290E+03  0.28386197927E+03  0.00000000000E+00 0.  1.
          5    1    4    4  501    0  0.14856708791E+02  0.47879049268E+01 -0.91554114347E+02  0.92969210407E+02  0.41800000000E+01 0.  1.
         -5    1    4    4    0  501 -0.13157633300E+02 -0.92844936284E+02 -0.18965257058E+02  0.95762512931E+02  0.41800000000E+01 0.  1.
</event>
<event>
11    1  0.2773015E-008  0.1495774E+03  0.7561462E-02  0.1097311E+00
         22   -1    0    0    0    0  0.00000000000E+00  0.00000000000E+00  0.39135036421E+03  0.39135036421E+03  0.00000000000E+00 0. -1.
         22   -1    0    0    0    0 -0.00000000000E+00 -0.00000000000E+00 -0.83623017364E+03  0.83623017364E+03  0.00000000000E+00 0.  1.
        -24    2    1    2    0    0 -0.76502978305E+02 -0.19307773462E+02 -0.51943558640E+03  0.53141674425E+03  0.79780522998E+02 0.  0.
         25    2    1    2    0    0  0.14580434715E+03 -0.21080036110E+02 -0.26995471700E+03  0.33200337637E+03  0.12508963633E+03 0.  0.
         24    2    1    2    0    0 -0.69301368846E+02  0.40387809572E+02  0.34451049398E+03  0.36416041723E+03  0.86553302257E+02 0.  0.
        -13    1    5    5    0    0  0.51106793278E+01 -0.12722886170E+02  0.89604696466E+01  0.16379282401E+02  0.00000000000E+00 0.  1.
         14    1    5    5    0    0 -0.74412048174E+02  0.53110695742E+02  0.33555002433E+03  0.34778113483E+03  0.00000000000E+00 0. -1.
         11    1    3    3    0    0  0.70345222463E+01 -0.11897529240E+02 -0.16442561830E+02  0.21480073202E+02  0.00000000000E+00 0. -1.
        -12    1    3    3    0    0 -0.83537500551E+02 -0.74102442223E+01 -0.50299302457E+03  0.50993667105E+03  0.00000000000E+00 0.  1.
          5    1    4    4  501    0 -0.12664552082E+02  0.11178025002E+02 -0.13332306697E+00  0.17401991191E+02  0.41800000000E+01 0. -1.
         -5    1    4    4    0  501  0.15846889923E+03 -0.32258061112E+02 -0.26982139394E+03  0.31460138518E+03  0.41800000000E+01 0. -1.
</event>
<event>
11    1  0.8453735E-009  0.1278875E+03  0.7561462E-02  0.1121892E+00
         22   -1    0    0    0    0  0.00000000000E+00  0.00000000000E+00  0.53683834412E+02  0.53683834412E+02  0.00000000000E+00 0. -1.
         22   -1    0    0    0    0 -0.00000000000E+00 -0.00000000000E+00 -0.13341214152E+04  0.13341214152E+04  0.00000000000E+00 0.  1.
        -24    2    1    2    0    0  0.97624042771E+01  0.18955431344E+02 -0.85854815307E+03  0.86246111560E+03  0.79244128287E+02 0.  0.
         25    2    1    2    0    0  0.16766582759E+02 -0.24374733258E+02 -0.42031979111E+03  0.43953495953E+03  0.12508800075E+03 0.  0.
         24    2    1    2    0    0 -0.26528987036E+02  0.54193019135E+01 -0.15696366203E+01  0.85809174493E+02  0.81410040423E+02 0.  0.
        -13    1    5    5    0    0 -0.22615328955E+02 -0.26225099229E+02 -0.27889658478E+02  0.44463940259E+02  0.00000000000E+00 0.  1.
         14    1    5    5    0    0 -0.39136580806E+01  0.31644401143E+02  0.26320021857E+02  0.41345234234E+02  0.00000000000E+00 0. -1.
         11    1    3    3    0    0  0.23645463128E+02  0.37322883399E+01 -0.76860995894E+02  0.80502488114E+02  0.00000000000E+00 0. -1.
        -12    1    3    3    0    0 -0.13883058851E+02  0.15223143004E+02 -0.78168715718E+03  0.78195862749E+03  0.00000000000E+00 0.  1.
          5    1    4    4  501    0 -0.24107010468E+01 -0.70353814933E+02 -0.31708648702E+03  0.32483347027E+03  0.41800000000E+01 0. -1.
         -5    1    4    4    0  501  0.19177283806E+02  0.45979081676E+02 -0.10323330409E+03  0.11470148926E+03  0.41800000000E+01 0. -1.
</event>
<event>
11    1  0.8453735E-009  0.1643844E+03  0.7561462E-02  0.1083025E+00
         22   -1    0    0    0    0  0.00000000000E+00  0.00000000000E+00  0.63284923300E+03  0.63284923300E+03  0.00000000000E+00 0.  1.
         22   -1    0    0    0    0 -0.00000000000E+00 -0.00000000000E+00 -0.62263739428E+03  0.62263739428E+03  0.00000000000E+00 0.  1.
        -24    2    1    2    0    0 -0.68249494918E+01 -0.10309449310E+03 -0.50169258931E+03  0.51761184834E+03  0.74508502437E+02 0.  0.
         25    2    1    2    0    0  0.40519327309E+01  0.14052825080E+03 -0.28345058980E+02  0.19030654049E+03  0.12509408280E+03 0.  0.
         24    2    1    2    0    0  0.27730167608E+01 -0.37433757703E+02  0.54024948700E+03  0.54756823845E+03  0.80947462689E+02 0.  0.
        -13    1    5    5    0    0  0.76939842984E+01 -0.60369280583E+02  0.45845292342E+03  0.46247457273E+03  0.00000000000E+00 0.  1.
         14    1    5    5    0    0 -0.49209675376E+01  0.22935522880E+02  0.81796563579E+02  0.85093665714E+02  0.00000000000E+00 0. -1.
         11    1    3    3    0    0 -0.15716676145E+02  0.31904790847E+01 -0.12786880549E+03  0.12887057260E+03  0.00000000000E+00 0. -1.
        -12    1    3    3    0    0  0.88917266529E+01 -0.10628497219E+03 -0.37382378382E+03  0.38874127574E+03  0.00000000000E+00 0.  1.
          5    1    4    4  501    0 -0.28327876333E+02  0.14895370576E+03 -0.35631744975E+02  0.15581004039E+03  0.41800000000E+01 0.  1.
         -5    1    4    4    0  501  0.32379809064E+02 -0.84254549534E+01  0.72866859957E+01  0.34496500098E+02  0.41800000000E+01 0.  1.
</event>
<event>
11    1  0.8453735E-009  0.1363793E+03  0.7561462E-02  0.1111670E+00
         22   -1    0    0    0    0  0.00000000000E+00  0.00000000000E+00  0.66416105500E+03  0.66416105500E+03  0.00000000000E+00 0.  1.
         22   -1    0    0    0    0 -0.00000000000E+00 -0.00000000000E+00 -0.18184858346E+03  0.18184858346E+03  0.00000000000E+00 0.  1.
        -24    2    1    2    0    0  0.10638166616E+02 -0.47201636981E+02 -0.79443370263E+02  0.12621501191E+03  0.85310110945E+02 0.  0.
         25    2    1    2    0    0  0.29414386325E+02  0.81958522855E+02  0.30305094135E+01  0.15244381868E+03  0.12509008064E+03 0.  0.
         24    2    1    2    0    0 -0.40052552941E+02 -0.34756885874E+02  0.55872533239E+03  0.56735080788E+03  0.83070416081E+02 0.  0.
        -11    1    5    5    0    0 -0.60490140942E+02 -0.31395161247E+02  0.29309794598E+03  0.30091713019E+03  0.00000000000E+00 0.  1.
         12    1    5    5    0    0  0.20437588001E+02 -0.33617246264E+01  0.26562738641E+03  0.26643367769E+03  0.00000000000E+00 0. -1.
         13    1    3    3    0    0  0.25098757568E+02 -0.47506692416E+02 -0.92163402607E+01  0.54513983376E+02  0.00000000000E+00 0. -1.
        -14    1    3    3    0    0 -0.14460590952E+02  0.30505543428E+00 -0.70227030002E+02  0.71701028531E+02  0.00000000000E+00 0.  1.
          5    1    4    4  501    0  0.64859428691E+02  0.93486087096E+02 -0.54558114393E+01  0.11398961465E+03  0.41800000000E+01 0.  1.
         -5    1    4    4    0  501 -0.35445042366E+02 -0.11527564241E+02  0.84863208528E+01  0.38454204026E+02  0.41800000000E+01 0.  1.
</event>
<event>
11    1  0.8453735E-009  0.2082660E+03  0.7561462E-02  0.1048827E+00
         22   -1    0    0    0    0  0.00000000000E+00  0.00000000000E+00  0.44777119828E+02  0.44777119828E+02  0.00000000000E+00 0.  1.
         22   -1    0    0    0    0 -0.00000000000E+00 -0.00000000000E+00 -0.20858662185E+04  0.20858662185E+04  0.00000000000E+00 0.  1.
        -24    2    1    2    0    0  0.14564014405E+03  0.61368431222E+01 -0.48503255693E+03  0.51272226509E+03  0.79867561828E+02 0.  0.
         25    2    1    2    0    0 -0.15494207738E+03  0.13646946981E+03 -0.12245183686E+04  0.12480883930E+04  0.12509371805E+03 0.  0.
         24    2    1    2    0    0  0.93019333330E+01 -0.14260631293E+03 -0.33153817313E+03  0.36983268018E+03  0.80221971011E+02 0.  0.
        -13    1    5    5    0    0 -0.82564489259E+00 -0.13282227676E+03 -0.21693995648E+03  0.25437252920E+03  0.00000000000E+00 0.  1.
         14    1    5    5    0    0  0.10127578226E+02 -0.97840361695E+01 -0.11459821665E+03  0.11546015098E+03  0.00000000000E+00 0. -1.
         13    1    3    3    0    0  0.13104635974E+03 -0.25036907270E+01 -0.30601709216E+03  0.33290520807E+03  0.00000000000E+00 0. -1.
        -14    1    3    3    0    0  0.14593784302E+02  0.86405338492E+01 -0.17901546477E+03  0.17981705701E+03  0.00000000000E+00 0.  1.
          5    1    4    4  501    0 -0.72186068729E+02 -0.45190348479E+01 -0.50830201497E+03  0.51343905288E+03  0.41800000000E+01 0.  1.
         -5    1    4    4    0  501 -0.82756008650E+02  0.14098850466E+03 -0.71621635361E+03  0.73464934015E+03  0.41800000000E+01 0.  1.
</event>
<event>
11    1  0.8453735E-009  0.1321856E+03  0.7561462E-02  0.1116612E+00
         22   -1    0    0    0    0  0.00000000000E+00  0.00000000000E+00  0.14818701246E+04  0.14818701246E+04  0.00000000000E+00 0.  1.
         22   -1    0    0    0    0 -0.00000000000E+00 -0.00000000000E+00 -0.24332243865E+03  0.24332243865E+03  0.00000000000E+00 0. -1.
         24    2    1    2    0    0 -0.10186050030E+02 -0.92639921735E+01 -0.20417682318E+03  0.21907054884E+03  0.78193050052E+02 0.  0.
         25    2    1    2    0    0  0.28037085857E+02  0.47389283027E+02  0.12488526352E+03  0.18513618580E+03  0.12508899200E+03 0.  0.
        -24    2    1    2    0    0 -0.17851035827E+02 -0.38125290853E+02  0.13178392456E+04  0.13209858286E+04  0.80815127534E+02 0.  0.
        -11    1    3    3    0    0 -0.84631997636E+01 -0.35190802508E+02 -0.44821244467E+02  0.57610435574E+02  0.00000000000E+00 0.  1.
         12    1    3    3    0    0 -0.17228502661E+01  0.25926810335E+02 -0.15935557872E+03  0.16146011326E+03  0.00000000000E+00 0. -1.
         13    1    5    5    0    0 -0.67288024272E+01  0.10209787695E+02  0.91809015724E+03  0.91817158166E+03  0.00000000000E+00 0. -1.
        -14    1    5    5    0    0 -0.11122233400E+02 -0.48335078548E+02  0.39974908835E+03  0.40281424693E+03  0.00000000000E+00 0.  1.
          5    1    4    4  501    0  0.61105183163E+02  0.41427775600E+02  0.22489917536E+02  0.77287597914E+02  0.41800000000E+01 0. -1.
         -5    1    4    4    0  501 -0.33068097306E+02  0.59615074265E+01  0.10239534598E+03  0.10784858789E+03  0.41800000000E+01 0. -1.
</event>
<event>
11    1  0.8453735E-009  0.1473556E+03  0.7561462E-02  0.1099612E+00
         22   -1    0    0    0    0  0.00000000000E+00  0.00000000000E+00  0.23873357238E+03  0.23873357238E+03  0.00000000000E+00 0.  1.
         22   -1    0    0    0    0 -0.00000000000E+00 -0.00000000000E+00 -0.41245047046E+03  0.41245047046E+03  0.00000000000E+00 0.  1.
         24    2    1    2    0    0 -0.23213510954E+02  0.16074618328E+02 -0.27657313431E+03  0.29046861996E+03  0.84154976749E+02 0.  0.
         25    2    1    2    0    0  0.97296929876E+02 -0.23791906004E+02 -0.53630747327E+02  0.16898477787E+03  0.12508737242E+03 0.  0.
        -24    2    1    2    0    0 -0.74083418922E+02  0.77172876760E+01  0.15648698356E+03  0.19173064501E+03  0.82003382391E+02 0.  0.
        -13    1    3    3    0    0 -0.54868673607E+02  0.15647649137E+02 -0.17310517498E+03  0.18226580006E+03  0.00000000000E+00 0.  1.
         14    1    3    3    0    0  0.31655162653E+02  0.42696919106E+00 -0.10346795934E+03  0.10820281990E+03  0.00000000000E+00 0. -1.
         13    1    5    5    0    0 -0.18727265681E+02  0.71842925611E+01 -0.52902262526E+01  0.20743939677E+02  0.00000000000E+00 0. -1.
        -14    1    5    5    0    0 -0.55356153240E+02  0.53299511489E+00  0.16177720982E+03  0.17098670534E+03  0.00000000000E+00 0.  1.
          5    1    4    4  501    0  0.10200705241E+02 -0.10032233279E+02 -0.76383515462E+02  0.77824250246E+02  0.41800000000E+01 0.  1.
         -5    1    4    4    0  501  0.87096224635E+02 -0.13759672725E+02  0.22752768135E+02  0.91160527625E+02  0.41800000000E+01 0.  1.
</event>
<event>
11    1  0.8453735E-009  0.1270377E+03  0.7561462E-02  0.1122963E+00
         22   -1    0    0    0    0  0.00000000000E+00  0.00000000000E+00  0.44523676796E+03  0.44523676796E+03  0.00000000000E+00 0.  1.
         22   -1    0    0    0    0 -0.00000000000E+00 -0.00000000000E+00 -0.79485794841E+03  0.79485794841E+03  0.00000000000E+00 0. -1.
        -24    2    1    2    0    0 -0.40674134192E+01  0.87354665598E+00 -0.75939388247E+03  0.76352999683E+03  0.79257052575E+02 0.  0.
         25    2    1    2    0    0 -0.17605536186E+02 -0.81767613938E+01  0.12396518317E+03  0.17717856731E+03  0.12509222096E+03 0.  0.
         24    2    1    2    0    0  0.21672949605E+02  0.73032147379E+01  0.28580751885E+03  0.29938615223E+03  0.86157278425E+02 0.  0.
        -11    1    5    5    0    0  0.98050206336E+01  0.28492349957E+02  0.26693167670E+03  0.26862701365E+03  0.00000000000E+00 0.  1.
         12    1    5    5    0    0  0.11867928971E+02 -0.21189135220E+02  0.18875842150E+02  0.30759138582E+02  0.00000000000E+00 0. -1.
         13    1    3    3    0    0 -0.17300581038E+02  0.36962205398E+02 -0.41174891968E+03  0.41376646504E+03  0.00000000000E+00 0. -1.
        -14    1    3    3    0    0  0.13233167619E+02 -0.36088658742E+02 -0.34764496279E+03  0.34976353179E+03  0.00000000000E+00 0.  1.
          5    1    4    4  501    0 -0.27972378463E+01 -0.48346163125E+02  0.12503399621E+03  0.13414972470E+03  0.41800000000E+01 0. -1.
         -5    1    4    4    0  501 -0.14808298339E+02  0.40169401731E+02 -0.10688130380E+01  0.43028842611E+02  0.41800000000E+01 0. -1.
</event>
<event>
11    1  0.8453735E-009  0.1325093E+03  0.7561462E-02  0.1116224E+00
         22   -1    0    0    0    0  0.00000000000E+00  0.00000000000E+00  0.32132877738E+03  0.32132877738E+03  0.00000000000E+00 0.  1.
         22   -1    0    0    0    0 -0.00000000000E+00 -0.00000000000E+00 -0.93080144590E+03  0.93080144590E+03  0.00000000000E+00 0. -1.
        -24    2    1    2    0    0  0.17888506122E+02 -0.28345509538E+02 -0.86486913474E+03  0.86821983258E+03  0.68436765691E+02 0.  0.
         25    2    1    2    0    0  0.27026313472E+02  0.34742177304E+02  0.23543204379E+02  0.13468429001E+03  0.12509250577E+03 0.  0.
         24    2    1    2    0    0 -0.44914819594E+02 -0.63966677653E+01  0.23185326184E+03  0.24922610069E+03  0.79369111495E+02 0.  0.
        -13    1    5    5    0    0 -0.28950458164E+02 -0.16028128049E+02  0.22774191037E+03  0.23013345619E+03  0.00000000000E+00 0.  1.
         14    1    5    5    0    0 -0.15964361430E+02  0.96314602834E+01  0.41113514674E+01  0.19092644498E+02  0.00000000000E+00 0. -1.
         11    1    3    3    0    0 -0.21869676459E+02 -0.67176161187E+00 -0.45010760686E+03  0.45063909259E+03  0.00000000000E+00 0. -1.
        -12    1    3    3    0    0  0.39758182581E+02 -0.27673747926E+02 -0.41476152787E+03  0.41758073999E+03  0.00000000000E+00 0.  1.
          5    1    4    4  501    0  0.26105512485E+01  0.19540687041E+02  0.73869268658E+02  0.76568888460E+02  0.41800000000E+01 0. -1.
         -5    1    4    4    0  501  0.24415762224E+02  0.15201490262E+02 -0.50326064280E+02  0.58115401547E+02  0.41800000000E+01 0. -1.
</event>
<event>
11    1  0.8453735E-009  0.1291800E+03  0.7561462E-02  0.1120281E+00
         22   -1    0    0    0    0  0.00000000000E+00  0.00000000000E+00  0.14845004855E+04  0.14845004855E+04  0.00000000000E+00 0.  1.
         22   -1    0    0    0    0 -0.00000000000E+00 -0.00000000000E+00 -0.64434255521E+03  0.64434255521E+03  0.00000000000E+00 0. -1.
        -24    2    1    2    0    0  0.47594207651E+01 -0.28164809660E+02 -0.52003142628E+03  0.52733548620E+03  0.82668749183E+02 0.  0.
         25    2    1    2    0    0 -0.36845418804E+02  0.30485919749E+02 -0.81757807799E+02  0.15690439962E+03  0.12509066830E+03 0.  0.
         24    2    1    2    0    0  0.32085998039E+02 -0.23211100895E+01  0.14419471644E+04  0.14446031549E+04  0.81435566434E+02 0.  0.
        -11    1    5    5    0    0  0.22846399192E+02  0.38993102854E+02  0.76385755512E+03  0.76519329881E+03  0.00000000000E+00 0.  1.
         12    1    5    5    0    0  0.92395988466E+01 -0.41314212944E+02  0.67808960929E+03  0.67940985613E+03  0.00000000000E+00 0. -1.
         11    1    3    3    0    0 -0.30184960244E+02 -0.19548955508E+02 -0.40985112340E+03  0.41142585826E+03  0.00000000000E+00 0. -1.
        -12    1    3    3    0    0  0.34944381009E+02 -0.86158541521E+01 -0.11018030288E+03  0.11590962794E+03  0.00000000000E+00 0.  1.
          5    1    4    4  501    0 -0.28896556167E+02 -0.13037971065E+02 -0.10285448442E+03  0.10771033846E+03  0.41800000000E+01 0. -1.
         -5    1    4    4    0  501 -0.79488626369E+01  0.43523890814E+02  0.21096676617E+02  0.49194061157E+02  0.41800000000E+01 0. -1.
</event>
<event>
11    1  0.8453735E-009  0.1420955E+03  0.7561462E-02  0.1105241E+00
         22   -1    0    0    0    0  0.00000000000E+00  0.00000000000E+00  0.19168563332E+03  0.19168563332E+03  0.00000000000E+00 0.  1.
         22   -1    0    0    0    0 -0.00000000000E+00 -0.00000000000E+00 -0.47616296708E+03  0.47616296708E+03  0.00000000000E+00 0.  1.
        -24    2    1    2    0    0 -0.16028833658E+02  0.42107934095E+02 -0.31634939355E+03  0.33012576797E+03  0.82922145767E+02 0.  0.
         25    2    1    2    0    0  0.80915811610E+02 -0.44995888574E+02 -0.88366589442E+02  0.17896453453E+03  0.12509057492E+03 0.  0.
         24    2    1    2    0    0 -0.64886977952E+02  0.28879544791E+01  0.12023864923E+03  0.15875829790E+03  0.80797303145E+02 0.  0.
        -13    1    5    5    0    0 -0.18681363385E+02 -0.32519250323E+02  0.78905548634E+02  0.87364641502E+02  0.00000000000E+00 0.  1.
         14    1    5    5    0    0 -0.46205614567E+02  0.35407204802E+02  0.41333100597E+02  0.71393656401E+02  0.00000000000E+00 0. -1.
         11    1    3    3    0    0  0.36296399506E+01 -0.15961621785E+02 -0.17861373954E+03  0.17936224688E+03  0.00000000000E+00 0. -1.
        -12    1    3    3    0    0 -0.19658473608E+02  0.58069555880E+02 -0.13773565401E+03  0.15076352109E+03  0.00000000000E+00 0.  1.
          5    1    4    4  501    0  0.83667181220E+02  0.23257026945E+02 -0.44388727997E+02  0.97616177393E+02  0.41800000000E+01 0. -1.
         -5    1    4    4    0  501 -0.27513696099E+01 -0.68252915519E+02 -0.43977861445E+02  0.81348357137E+02  0.41800000000E+01 0. -1.
</event>
<event>
11    1  0.8453735E-009  0.1377188E+03  0.7561462E-02  0.1110133E+00
         22   -1    0    0    0    0  0.00000000000E+00  0.00000000000E+00  0.29371120273E+03  0.29371120273E+03  0.00000000000E+00 0. -1.
         22   -1    0    0    0    0 -0.00000000000E+00 -0.00000000000E+00 -0.38065863146E+03  0.38065863146E+03  0.00000000000E+00 0. -1.
        -24    2    1    2    0    0 -0.16449444831E+02  0.57293340746E+02 -0.31500612058E+03  0.33143773710E+03  0.84077383670E+02 0.  0.
         25    2    1    2    0    0  0.62156522000E+01 -0.36277941590E+02  0.37666028229E+02  0.13572142913E+03  0.12508738252E+03 0.  0.
         24    2    1    2    0    0  0.10233792631E+02 -0.21015399156E+02  0.19039266361E+03  0.20721066796E+03  0.78361451272E+02 0.  0.
        -11    1    5    5    0    0  0.29091809146E+02 -0.11683945180E+02  0.23972058763E+02  0.39465269994E+02  0.00000000000E+00 0.  1.
         12    1    5    5    0    0 -0.18858016515E+02 -0.93314539750E+01  0.16642060485E+03  0.16774539796E+03  0.00000000000E+00 0. -1.
         11    1    3    3    0    0 -0.50039800676E+02  0.42984256719E+02 -0.18535597515E+03  0.19674467083E+03  0.00000000000E+00 0. -1.
        -12    1    3    3    0    0  0.33590355845E+02  0.14309084027E+02 -0.12965014543E+03  0.13469306627E+03  0.00000000000E+00 0.  1.
          5    1    4    4  501    0  0.92940521623E+01  0.18085985168E+02 -0.37469436931E+02  0.42835888796E+02  0.41800000000E+01 0. -1.
         -5    1    4    4    0  501 -0.30783999623E+01 -0.54363926758E+02  0.75135465160E+02  0.92885540337E+02  0.41800000000E+01 0. -1.
</event>
<event>
11    1  0.8453735E-009  0.1694428E+03  0.7561462E-02  0.1078518E+00
         22   -1    0    0    0    0  0.00000000000E+00  0.00000000000E+00  0.26368714770E+03  0.26368714770E+03  0.00000000000E+00 0.  1.
         22   -1    0    0    0    0 -0.00000000000E+00 -0.00000000000E+00 -0.40799893891E+03  0.40799893891E+03  0.00000000000E+00 0. -1.
        -24    2    1    2    0    0 -0.23753563255E+02 -0.28797551043E+01 -0.14851982601E+03  0.17154040668E+03  0.82434505225E+02 0.  0.
         25    2    1    2    0    0  0.28610981153E+02 -0.11144718949E+03 -0.19454363410E+03  0.25833258834E+03  0.12509770719E+03 0.  0.
         24    2    1    2    0    0 -0.48574178975E+01  0.11432694459E+03  0.19875166890E+03  0.24181309159E+03  0.76662250207E+02 0.  0.
        -11    1    5    5    0    0 -0.39887408577E+02  0.71588265244E+02  0.12891310613E+03  0.15275625688E+03  0.00000000000E+00 0.  1.
         12    1    5    5    0    0  0.35029990679E+02  0.42738679346E+02  0.69838562762E+02  0.89056834706E+02  0.00000000000E+00 0. -1.
         13    1    3    3    0    0 -0.40773660968E+02  0.24824230003E+02 -0.11652545063E+03  0.12592424099E+03  0.00000000000E+00 0. -1.
        -14    1    3    3    0    0  0.17020097713E+02 -0.27703985107E+02 -0.31994375371E+02  0.45616165691E+02  0.00000000000E+00 0.  1.
          5    1    4    4  501    0  0.11072426536E+02  0.61618367653E+01  0.13301293342E+02  0.18840479460E+02  0.41800000000E+01 0.  1.
         -5    1    4    4    0  501  0.17538554617E+02 -0.11760902625E+03 -0.20784492744E+03  0.23949210888E+03  0.41800000000E+01 0.  1.
</event>
<event>
11    1  0.8453735E-009  0.1389973E+03  0.7561462E-02  0.1108683E+00
         22   -1    0    0    0    0  0.00000000000E+00  0.00000000000E+00  0.28762420906E+03  0.28762420906E+03  0.00000000000E+00 0. -1.
         22   -1    0    0    0    0 -0.00000000000E+00 -0.00000000000E+00 -0.21168746800E+03  0.21168746800E+03  0.00000000000E+00 0. -1.
        -24    2    1    2    0    0 -0.55540151106E+02 -0.39093399308E+02 -0.12369337868E+03  0.16198039536E+03  0.79527317928E+02 0.  0.
         25    2    1    2    0    0  0.40701753234E+02 -0.31277836022E+01  0.14149286560E+02  0.13233830015E+03  0.12508720011E+03 0.  0.
         24    2    1    2    0    0  0.14838397872E+02  0.42221182910E+02  0.18548083317E+03  0.20499298155E+03  0.74941154747E+02 0.  0.
        -11    1    5    5    0    0  0.34223416455E+02  0.32710247101E+02  0.54268131197E+02  0.72015502240E+02  0.00000000000E+00 0.  1.
         12    1    5    5    0    0 -0.19385018583E+02  0.95109358087E+01  0.13121270197E+03  0.13297747931E+03  0.00000000000E+00 0. -1.
         11    1    3    3    0    0 -0.37037377951E+02 -0.30160770280E+02 -0.13157337314E+03  0.13997496901E+03  0.00000000000E+00 0. -1.
        -12    1    3    3    0    0 -0.18502773155E+02 -0.89326290277E+01  0.78799944669E+01  0.22005426344E+02  0.00000000000E+00 0.  1.
          5    1    4    4  501    0  0.47552905915E+02  0.52789655181E+02  0.23765325586E+02  0.75035256083E+02  0.41800000000E+01 0.  1.
         -5    1    4    4    0  501 -0.68511526811E+01 -0.55917438783E+02 -0.96160390257E+01  0.57303044070E+02  0.41800000000E+01 0.  1.
</event>
<event>
11    1  0.8453735E-009  0.1242238E+04  0.7561462E-02  0.8477569E-01
         22   -1    0    0    0    0  0.00000000000E+00  0.00000000000E+00  0.13370341007E+04  0.13370341007E+04  0.00000000000E+00 0. -1.
         22   -1    0    0    0    0 -0.00000000000E+00 -0.00000000000E+00 -0.16224776350E+04  0.16224776350E+04  0.00000000000E+00 0. -1.
        -24    2    1    2    0    0  0.89735572817E+02  0.85227942095E+02 -0.35379043105E+03  0.38308534630E+03  0.79186099198E+02 0.  0.
         25    2    1    2    0    0  0.66232002180E+03 -0.10591183118E+04 -0.29718058960E+03  0.12901018869E+04  0.12508863237E+03 0.  0.
         24    2    1    2    0    0 -0.75205559462E+03  0.97389036971E+03  0.36552748639E+03  0.12863245025E+04  0.83488399597E+02 0.  0.
        -11    1    5    5    0    0 -0.18307177960E+03  0.25317017912E+03  0.56669898814E+02  0.31752463450E+03  0.00000000000E+00 0.  1.
         12    1    5    5    0    0 -0.56898381502E+03  0.72072019059E+03  0.30885758757E+03  0.96879986803E+03  0.00000000000E+00 0. -1.
         11    1    3    3    0    0  0.83722833390E+02  0.50305523231E+02 -0.17133241719E+03  0.19721804096E+03  0.00000000000E+00 0. -1.
        -12    1    3    3    0    0  0.60127394267E+01  0.34922418864E+02 -0.18245801386E+03  0.18586730535E+03  0.00000000000E+00 0.  1.
          5    1    4    4  501    0  0.21294744463E+03 -0.45573220574E+03 -0.12184496058E+03  0.51759262392E+03  0.41800000000E+01 0.  1.
         -5    1    4    4    0  501  0.44937257717E+03 -0.60338610607E+03 -0.17533562903E+03  0.77250926294E+03  0.41800000000E+01 0.  1.
</event>
<event>
11    1  0.8453735E-009  0.1309444E+03  0.7561462E-02  0.1118114E+00
         22   -1    0    0    0    0  0.00000000000E+00  0.00000000000E+00  0.40098482125E+02  0.40098482125E+02  0.00000000000E+00 0. -1.
         22   -1    0    0    0    0 -0.00000000000E+00 -0.00000000000E+00 -0.20312106432E+04  0.20312106432E+04  0.00000000000E+00 0. -1.
         24    2    1    2    0    0  0.15498027930E+02  0.11262993937E+02 -0.14909383707E+04  0.14932598323E+04  0.80997886790E+02 0.  0.
         25    2    1    2    0    0  0.12512092874E+02 -0.38496832664E+02 -0.46264362934E+03  0.48096149036E+03  0.12508504646E+03 0.  0.
        -24    2    1    2    0    0 -0.28010120804E+02  0.27233838727E+02 -0.37530161039E+02  0.97087802658E+02  0.80568477694E+02 0.  0.
        -13    1    3    3    0    0 -0.82425966413E+01  0.36062288092E+01 -0.18124105316E+02  0.20234339108E+02  0.00000000000E+00 0.  1.
         14    1    3    3    0    0  0.23740624571E+02  0.76567651276E+01 -0.14728142654E+04  0.14730254932E+04  0.00000000000E+00 0. -1.
         13    1    5    5    0    0 -0.14965050223E+01 -0.22833371866E+01  0.23847118786E+02  0.24002879627E+02  0.00000000000E+00 0. -1.
        -14    1    5    5    0    0 -0.26513615782E+02  0.29517175914E+02 -0.61377279825E+02  0.73084923031E+02  0.00000000000E+00 0.  1.
          5    1    4    4  501    0 -0.31219018227E+01  0.43943231621E+02 -0.21338363617E+03  0.21792384555E+03  0.41800000000E+01 0.  1.
         -5    1    4    4    0  501  0.15633994697E+02 -0.82440064285E+02 -0.24925999317E+03  0.26303764480E+03  0.41800000000E+01 0.  1.
</event>
<event>
11    1  0.8453735E-009  0.1361374E+03  0.7561462E-02  0.1111950E+00
         22   -1    0    0    0    0  0.00000000000E+00  0.00000000000E+00  0.99451355349E+03  0.99451355349E+03  0.00000000000E+00 0. -1.
         22   -1    0    0    0    0 -0.00000000000E+00 -0.00000000000E+00 -0.15414027979E+03  0.15414027979E+03  0.00000000000E+00 0.  1.
         24    2    1    2    0    0 -0.26299752013E+02  0.16402565029E+02 -0.98475157922E+02  0.13067393330E+03  0.80109918367E+02 0.  0.
         25    2    1    2    0    0  0.77626930145E+02 -0.70565581077E+01  0.11012886668E+03  0.18398911362E+03  0.12509153191E+03 0.  0.
        -24    2    1    2    0    0 -0.51327178131E+02 -0.93460069213E+01  0.82871956494E+03  0.83399078637E+03  0.77734724321E+02 0.  0.
        -13    1    3    3    0    0  0.90133492266E+01  0.41449616007E+02 -0.53020776547E+02  0.67900764923E+02  0.00000000000E+00 0.  1.
         14    1    3    3    0    0 -0.35313101240E+02 -0.25047050978E+02 -0.45454381375E+02  0.62773168377E+02  0.00000000000E+00 0. -1.
         11    1    5    5    0    0 -0.55274420682E+02 -0.36438611288E+02  0.59663926617E+03  0.60030113103E+03  0.00000000000E+00 0. -1.
        -12    1    5    5    0    0  0.39472425509E+01  0.27092604366E+02  0.23208029877E+03  0.23368965534E+03  0.00000000000E+00 0.  1.
          5    1    4    4  501    0 -0.49537880449E+00 -0.34099158265E+02 -0.12050325003E+02  0.36409898753E+02  0.41800000000E+01 0. -1.
         -5    1    4    4    0  501  0.78122308949E+02  0.27042600157E+02  0.12217919169E+03  0.14757921486E+03  0.41800000000E+01 0. -1.
</event>
<event>
11    1  0.8453735E-009  0.1481105E+03  0.7561462E-02  0.1098825E+00
         22   -1    0    0    0    0  0.00000000000E+00  0.00000000000E+00  0.29783419637E+04  0.29783419637E+04  0.00000000000E+00 0.  1.
         22   -1    0    0    0    0 -0.00000000000E+00 -0.00000000000E+00 -0.60956839264E+02  0.60956839264E+02  0.00000000000E+00 0. -1.
        -24    2    1    2    0    0  0.44641089068E+02  0.64839287888E+02  0.59755848032E+01  0.11211007737E+03  0.79599005941E+02 0.  0.
         25    2    1    2    0    0 -0.72411645273E+02 -0.56326130548E+02  0.84639660636E+03  0.86049434820E+03  0.12508888313E+03 0.  0.
         24    2    1    2    0    0  0.27770556205E+02 -0.85131573407E+01  0.20650129332E+04  0.20666943773E+04  0.78125266762E+02 0.  0.
        -13    1    5    5    0    0  0.44867022782E+02 -0.24058162380E+01  0.19231129156E+04  0.19236377320E+04  0.00000000000E+00 0.  1.
         14    1    5    5    0    0 -0.17096466576E+02 -0.61073411027E+01  0.14190001761E+03  0.14305664536E+03  0.00000000000E+00 0. -1.
         13    1    3    3    0    0  0.14295468574E+02  0.53348031531E+02 -0.30660751372E+02  0.63170044837E+02  0.00000000000E+00 0. -1.
        -14    1    3    3    0    0  0.30345620494E+02  0.11491256357E+02  0.36636336175E+02  0.48940032532E+02  0.00000000000E+00 0.  1.
          5    1    4    4  501    0 -0.58567619143E+02 -0.82481783389E+02  0.79184945036E+03  0.79829595704E+03  0.41800000000E+01 0.  1.
         -5    1    4    4    0  501 -0.13844026131E+02  0.26155652842E+02  0.54547156001E+02  0.62198391160E+02  0.41800000000E+01 0.  1.
</event>
<event>
11    1  0.8453735E-009  0.1497392E+03  0.7561462E-02  0.1097146E+00
         22   -1    0    0    0    0  0.00000000000E+00  0.00000000000E+00  0.22441427186E+03  0.22441427186E+03  0.00000000000E+00 0. -1.
         22   -1    0    0    0    0 -0.00000000000E+00 -0.00000000000E+00 -0.24726288060E+04  0.24726288060E+04  0.00000000000E+00 0. -1.
         24    2    1    2    0    0 -0.75894479428E+02 -0.28777178975E+02 -0.22897800657E+04  0.22925873502E+04  0.79220649697E+02 0.  0.
         25    2    1    2    0    0  0.10820867594E+03  0.45548795174E+02 -0.12762863759E+03  0.21382263951E+03  0.12508893534E+03 0.  0.
        -24    2    1    2    0    0 -0.32314196509E+02 -0.16771616199E+02  0.16919416909E+03  0.19063308813E+03  0.79930050852E+02 0.  0.
        -13    1    3    3    0    0 -0.24777524236E+02  0.20267078570E+02 -0.33546102697E+03  0.33698483763E+03  0.00000000000E+00 0.  1.
         14    1    3    3    0    0 -0.51116955192E+02 -0.49044257545E+02 -0.19543190387E+04  0.19556025126E+04  0.00000000000E+00 0. -1.
         13    1    5    5    0    0 -0.48548547071E+02 -0.32192481320E+02  0.15078475678E+03  0.16164578607E+03  0.00000000000E+00 0. -1.
        -14    1    5    5    0    0  0.16234350562E+02  0.15420865120E+02  0.18409412315E+02  0.28987302065E+02  0.00000000000E+00 0.  1.
          5    1    4    4  501    0  0.16588060001E+02  0.71448489627E+02 -0.36796763057E+02  0.82167661376E+02  0.41800000000E+01 0.  1.
         -5    1    4    4    0  501  0.91620615936E+02 -0.25899694453E+02 -0.90831874532E+02  0.13165497814E+03  0.41800000000E+01 0.  1.
</event>
<event>
11    1  0.8453735E-009  0.1302112E+03  0.7561462E-02  0.1119010E+00
         22   -1    0    0    0    0  0.00000000000E+00  0.00000000000E+00  0.52415719118E+02  0.52415719118E+02  0.00000000000E+00 0.  1.
         22   -1    0    0    0    0 -0.00000000000E+00 -0.00000000000E+00 -0.13976890970E+04  0.13976890970E+04  0.00000000000E+00 0.  1.
         24    2    1    2    0    0 -0.41012796765E+02 -0.40776231782E+01 -0.10190617947E+04  0.10231803331E+04  0.81929092564E+02 0.  0.
         25    2    1    2    0    0  0.53219601861E+01  0.10307182332E+02 -0.31423872150E+03  0.33841940775E+03  0.12508860934E+03 0.  0.
        -24    2    1    2    0    0  0.35690836579E+02 -0.62295591540E+01 -0.11972861668E+02  0.88505075204E+02  0.79857095473E+02 0.  0.
        -13    1    3    3    0    0 -0.24281017627E+02  0.34862818459E+02 -0.70397314557E+03  0.70525397809E+03  0.00000000000E+00 0.  1.
         14    1    3    3    0    0 -0.16731779138E+02 -0.38940441637E+02 -0.31508864911E+03  0.31792635504E+03  0.00000000000E+00 0. -1.
         11    1    5    5    0    0  0.44329866105E+01  0.25511619076E+02 -0.30716109668E+02  0.40174288684E+02  0.00000000000E+00 0. -1.
        -12    1    5    5    0    0  0.31257849969E+02 -0.31741178230E+02  0.18743247999E+02  0.48330786520E+02  0.00000000000E+00 0.  1.
          5    1    4    4  501    0  0.41317996233E+02 -0.37973884457E+02 -0.89557002822E+02  0.10576919149E+03  0.41800000000E+01 0.  1.
         -5    1    4    4    0  501 -0.35996036047E+02  0.48281066789E+02 -0.22468171868E+03  0.23265021627E+03  0.41800000000E+01 0.  1.
</event>
<event>
11    1  0.8453735E-009  0.2214858E+03  0.7561462E-02  0.1040291E+00
         22   -1    0    0    0    0  0.00000000000E+00  0.00000000000E+00  0.25221697193E+03  0.25221697193E+03  0.00000000000E+00 0.  1.
         22   -1    0    0    0    0 -0.00000000000E+00 -0.00000000000E+00 -0.96783349291E+03  0.96783349291E+03  0.00000000000E+00 0. -1.
        -24    2    1    2    0    0 -0.13104703813E+03  0.13751633762E+03 -0.76608295515E+03  0.79356151681E+03  0.82296521635E+02 0.  0.
         25    2    1    2    0    0  0.28395648968E+02 -0.16929036077E+03 -0.91873039672E+02  0.23141761557E+03  0.12509163939E+03 0.  0.
         24    2    1    2    0    0  0.10265138916E+03  0.31774023151E+02  0.14233947384E+03  0.19507133246E+03  0.79027860220E+02 0.  0.
        -13    1    5    5    0    0  0.96519399307E+02 -0.17570373130E+01  0.12125675680E+03  0.15499123424E+03  0.00000000000E+00 0.  1.
         14    1    5    5    0    0  0.61319898563E+01  0.33531060464E+02  0.21082717043E+02  0.40080098221E+02  0.00000000000E+00 0. -1.
         11    1    3    3    0    0 -0.50863071670E+02  0.82673408571E+02 -0.24551413975E+03  0.26400594191E+03  0.00000000000E+00 0. -1.
        -12    1    3    3    0    0 -0.80183966461E+02  0.54842929053E+02 -0.52056881540E+03  0.52955557490E+03  0.00000000000E+00 0.  1.
          5    1    4    4  501    0  0.32319095656E+02  0.63451419100E+01 -0.17107545588E+00  0.33200699341E+02  0.41800000000E+01 0. -1.
         -5    1    4    4    0  501 -0.39234466881E+01 -0.17563550268E+03 -0.91701964216E+02  0.19821691623E+03  0.41800000000E+01 0. -1.
</event>
<event>
11    1  0.8453735E-009  0.2186852E+03  0.7561462E-02  0.1042044E+00
         22   -1    0    0    0    0  0.00000000000E+00  0.00000000000E+00  0.69881313936E+02  0.69881313936E+02  0.00000000000E+00 0. -1.
         22   -1    0    0    0    0 -0.00000000000E+00 -0.00000000000E+00 -0.14026785404E+04  0.14026785404E+04  0.00000000000E+00 0.  1.
         24    2    1    2    0    0  0.94603009138E+00  0.12456035070E+02 -0.64241877236E+03  0.64767313884E+03  0.81379161342E+02 0.  0.
         25    2    1    2    0    0  0.81741386380E+02  0.15042090084E+03 -0.52035421417E+03  0.56189432645E+03  0.12509446124E+03 0.  0.
        -24    2    1    2    0    0 -0.82687416472E+02 -0.16287693591E+03 -0.17002423989E+03  0.26299238901E+03  0.83009935762E+02 0.  0.
        -13    1    3    3    0    0  0.12730402531E+02 -0.30340100660E+02 -0.38962032020E+03  0.39100713391E+03  0.00000000000E+00 0.  1.
         14    1    3    3    0    0 -0.11784372439E+02  0.42796135730E+02 -0.25279845216E+03  0.25666600492E+03  0.00000000000E+00 0. -1.
         11    1    5    5    0    0 -0.86660213023E+02 -0.12782166926E+03 -0.16719155836E+03  0.22759918463E+03  0.00000000000E+00 0. -1.
        -12    1    5    5    0    0  0.39727965515E+01 -0.35055266644E+02 -0.28326815214E+01  0.35393204383E+02  0.00000000000E+00 0.  1.
          5    1    4    4  501    0  0.91895431067E+02  0.15810301655E+03 -0.38902172022E+03  0.42987987310E+03  0.41800000000E+01 0.  1.
         -5    1    4    4    0  501 -0.10154044686E+02 -0.76821157116E+01 -0.13133249396E+03  0.13201445335E+03  0.41800000000E+01 0.  1.
</event>
<event>
11    1  0.8453735E-009  0.1593785E+03  0.7561462E-02  0.1087663E+00
         22   -1    0    0    0    0  0.00000000000E+00  0.00000000000E+00  0.65898341932E+03  0.65898341932E+03  0.00000000000E+00 0.  1.
         22   -1    0    0    0    0 -0.00000000000E+00 -0.00000000000E+00 -0.10576764453E+04  0.10576764453E+04  0.00000000000E+00 0.  1.
         24    2    1    2    0    0 -0.98914945575E+02 -0.16769980121E+02 -0.10047847633E+04  0.10128346093E+04  0.78588335730E+02 0.  0.
         25    2    1    2    0    0  0.52316104883E+02  0.31196602820E+02  0.62362005047E+02  0.15247195318E+03  0.12509386066E+03 0.  0.
        -24    2    1    2    0    0  0.46598840692E+02 -0.14426622699E+02  0.54372973227E+03  0.55135330215E+03  0.77258414679E+02 0.  0.
        -13    1    3    3    0    0 -0.26874530048E+02  0.71400904768E+01 -0.62063419567E+03  0.62125681171E+03  0.00000000000E+00 0.  1.
         14    1    3    3    0    0 -0.72040415527E+02 -0.23910070598E+02 -0.38415056766E+03  0.39157779760E+03  0.00000000000E+00 0. -1.
         11    1    5    5    0    0 -0.16954026743E+02 -0.17620058249E+02  0.93300219210E+02  0.96451212435E+02  0.00000000000E+00 0. -1.
        -12    1    5    5    0    0  0.63552867435E+02  0.31934355504E+01  0.45042951306E+03  0.45490208971E+03  0.00000000000E+00 0.  1.
          5    1    4    4  501    0  0.37212742672E+02  0.65816817591E+02  0.80365912481E+02  0.11042098525E+03  0.41800000000E+01 0. -1.
         -5    1    4    4    0  501  0.15103362211E+02 -0.34620214772E+02 -0.18003907433E+02  0.42050967929E+02  0.41800000000E+01 0. -1.
</event>
<event>
11    1  0.8453735E-009  0.1327852E+03  0.7561462E-02  0.1115893E+00
         22   -1    0    0    0    0  0.00000000000E+00  0.00000000000E+00  0.12286901773E+03  0.12286901773E+03  0.00000000000E+00 0. -1.
         22   -1    0    0    0    0 -0.00000000000E+00 -0.00000000000E+00 -0.24117988995E+04  0.24117988995E+04  0.00000000000E+00 0.  1.
         24    2    1    2    0    0 -0.51162294016E+01  0.51676778306E+02 -0.17286925843E+04  0.17312885528E+04  0.79280117313E+02 0.  0.
         25    2    1    2    0    0 -0.82230720817E+01 -0.11187460977E+02 -0.65797160243E+03  0.66990211757E+03  0.12509771907E+03 0.  0.
        -24    2    1    2    0    0  0.13339301483E+02 -0.40489317329E+02  0.97734304943E+02  0.13347724682E+03  0.80292336337E+02 0.  0.
        -11    1    3    3    0    0 -0.89666237806E+01  0.39727271289E+02 -0.16923245798E+04  0.16928145615E+04  0.00000000000E+00 0.  1.
         12    1    3    3    0    0  0.38503943791E+01  0.11949507017E+02 -0.36368004511E+02  0.38473991305E+02  0.00000000000E+00 0. -1.
         13    1    5    5    0    0  0.39871594199E+02  0.19617272416E+01  0.52919948745E+02  0.66288108836E+02  0.00000000000E+00 0. -1.
        -14    1    5    5    0    0 -0.26532292716E+02 -0.42451044570E+02  0.44814356198E+02  0.67189137986E+02  0.00000000000E+00 0.  1.
          5    1    4    4  501    0 -0.46280730555E+02  0.21302925823E+01 -0.58143956218E+03  0.58329742073E+03  0.41800000000E+01 0. -1.
         -5    1    4    4    0  501  0.38057658474E+02 -0.13317753560E+02 -0.76532040258E+02  0.86604696838E+02  0.41800000000E+01 0. -1.
</event>
<event>
11    1  0.8453735E-009  0.1442844E+03  0.7561462E-02  0.1102866E+00
         22   -1    0    0    0    0  0.00000000000E+00  0.00000000000E+00  0.14053148911E+04  0.14053148911E+04  0.00000000000E+00 0. -1.
         22   -1    0    0    0    0 -0.00000000000E+00 -0.00000000000E+00 -0.68869412463E+03  0.68869412463E+03  0.00000000000E+00 0.  1.
         24    2    1    2    0    0  0.17430877339E+02 -0.72639165602E+02 -0.52727834931E+03  0.53849646805E+03  0.79848009251E+02 0.  0.
         25    2    1    2    0    0 -0.23349138638E+02  0.52461283249E+02 -0.12379314077E+03  0.18512329718E+03  0.12509406439E+03 0.  0.
        -24    2    1    2    0    0  0.59182612988E+01  0.20177882352E+02  0.13676922565E+04  0.13703892505E+04  0.83321164829E+02 0.  0.
        -13    1    3    3    0    0  0.33551837350E+02 -0.46771287570E+02 -0.47091157172E+03  0.47441647053E+03  0.00000000000E+00 0.  1.
         14    1    3    3    0    0 -0.16120960011E+02 -0.25867878031E+02 -0.56366777587E+02  0.64079997511E+02  0.00000000000E+00 0. -1.
         11    1    5    5    0    0  0.20130130117E+02  0.22016284377E+02  0.13253892054E+04  0.13257248903E+04  0.00000000000E+00 0. -1.
        -12    1    5    5    0    0 -0.14211868818E+02 -0.18384020248E+01  0.42303051137E+02  0.44664360209E+02  0.00000000000E+00 0.  1.
          5    1    4    4  501    0 -0.59698449247E+02 -0.10844602568E+02 -0.77763022425E+02  0.98722187497E+02  0.41800000000E+01 0.  1.
         -5    1    4    4    0  501  0.36349310610E+02  0.63305885817E+02 -0.46030118341E+02  0.86401109688E+02  0.41800000000E+01 0.  1.
</event>
<event>
11    1  0.8453735E-009  0.1530169E+03  0.7561462E-02  0.1093835E+00
         22   -1    0    0    0    0  0.00000000000E+00  0.00000000000E+00  0.11402977980E+04  0.11402977980E+04  0.00000000000E+00 0.  1.
         22   -1    0    0    0    0 -0.00000000000E+00 -0.00000000000E+00 -0.25155435066E+03  0.25155435066E+03  0.00000000000E+00 0.  1.
         24    2    1    2    0    0  0.61449759162E+02  0.65428546039E+02 -0.22375569826E+03  0.25037782753E+03  0.67568309690E+02 0.  0.
         25    2    1    2    0    0 -0.52851000008E+02  0.39035031102E+01  0.43272798988E+03  0.45355311796E+03  0.12509377301E+03 0.  0.
        -24    2    1    2    0    0 -0.85987591542E+01 -0.69332049150E+02  0.67977115575E+03  0.68792120319E+03  0.79157349102E+02 0.  0.
        -13    1    3    3    0    0  0.43443611035E+02  0.80011820749E+01 -0.14296637486E+03  0.14963539219E+03  0.00000000000E+00 0.  1.
         14    1    3    3    0    0  0.18006148128E+02  0.57427363965E+02 -0.80789323397E+02  0.10074243534E+03  0.00000000000E+00 0. -1.
         13    1    5    5    0    0  0.27488295243E+01 -0.30353488163E+01 -0.68235261124E+00  0.41515071090E+01  0.00000000000E+00 0. -1.
        -14    1    5    5    0    0 -0.11347588679E+02 -0.66296700333E+02  0.68045350836E+03  0.68376969608E+03  0.00000000000E+00 0.  1.
          5    1    4    4  501    0 -0.87757767397E+02 -0.11730801953E+02  0.21672352766E+03  0.23414866494E+03  0.41800000000E+01 0. -1.
         -5    1    4    4    0  501  0.34906767389E+02  0.15634305064E+02  0.21600446222E+03  0.21940445302E+03  0.41800000000E+01 0. -1.
</event>
<event>
11    1  0.8453735E-009  0.1328092E+03  0.7561462E-02  0.1115865E+00
         22   -1    0    0    0    0  0.00000000000E+00  0.00000000000E+00  0.54721179691E+03  0.54721179691E+03  0.00000000000E+00 0. -1.
         22   -1    0    0    0    0 -0.00000000000E+00 -0.00000000000E+00 -0.12980668508E+04  0.12980668508E+04  0.00000000000E+00 0. -1.
        -24    2    1    2    0    0 -0.77773892046E+01 -0.32760688910E+02 -0.75320704728E+03  0.75815118722E+03  0.79615426263E+02 0.  0.
         25    2    1    2    0    0 -0.36632141646E+02  0.27643229747E+02 -0.53017657117E+03  0.54666315471E+03  0.12508935264E+03 0.  0.
         24    2    1    2    0    0  0.44409530850E+02  0.51174591624E+01  0.53252856458E+03  0.54046430575E+03  0.80725453739E+02 0.  0.
        -13    1    5    5    0    0  0.28375687242E+02 -0.34055607282E+02  0.17882951031E+03  0.18424157449E+03  0.00000000000E+00 0.  1.
         14    1    5    5    0    0  0.16033843608E+02  0.39173066444E+02  0.35369905427E+03  0.35622273126E+03  0.00000000000E+00 0. -1.
         11    1    3    3    0    0  0.33546361185E+02 -0.13989479519E+02 -0.46209323024E+03  0.46352046052E+03  0.00000000000E+00 0. -1.
        -12    1    3    3    0    0 -0.41323750390E+02 -0.18771209391E+02 -0.29111381704E+03  0.29463072670E+03  0.00000000000E+00 0.  1.
          5    1    4    4  501    0 -0.42636810041E+02 -0.13097874206E+02 -0.47784391264E+03  0.47993929733E+03  0.41800000000E+01 0. -1.
         -5    1    4    4    0  501  0.60046683959E+01  0.40741103953E+02 -0.52332658533E+02  0.66723857375E+02  0.41800000000E+01 0. -1.
</event>
<event>
11    1  0.8453735E-009  0.1391535E+03  0.7561462E-02  0.1108507E+00
         22   -1    0    0    0    0  0.00000000000E+00  0.00000000000E+00  0.24115926416E+03  0.24115926416E+03  0.00000000000E+00 0.  1.
         22   -1    0    0    0    0 -0.00000000000E+00 -0.00000000000E+00 -0.98033492912E+03  0.98033492912E+03  0.00000000000E+00 0. -1.
         24    2    1    2    0    0 -0.48431459370E+02 -0.18220770268E+02 -0.79168476814E+03  0.79734924178E+03  0.79520051099E+02 0.  0.
         25    2    1    2    0    0 -0.14404716209E+02  0.29534234701E+01 -0.14942632141E+03  0.19542641628E+03  0.12508812930E+03 0.  0.
        -24    2    1    2    0    0  0.62836175579E+02  0.15267346797E+02  0.20193542459E+03  0.22871853522E+03  0.85748328303E+02 0.  0.
        -13    1    3    3    0    0  0.13498817534E+02  0.11804158129E+02 -0.65499449088E+02  0.67909749336E+02  0.00000000000E+00 0.  1.
         14    1    3    3    0    0 -0.61930276904E+02 -0.30024928396E+02 -0.72618531906E+03  0.72943949244E+03  0.00000000000E+00 0. -1.
         13    1    5    5    0    0  0.44763014938E+02  0.76100362725E+01  0.27293681524E+02  0.52977214060E+02  0.00000000000E+00 0. -1.
        -14    1    5    5    0    0  0.18073160641E+02  0.76573105250E+01  0.17464174307E+03  0.17574132116E+03  0.00000000000E+00 0.  1.
          5    1    4    4  501    0  0.22131817079E+02 -0.40383529935E+02 -0.13616779539E+02  0.48203069428E+02  0.41800000000E+01 0. -1.
         -5    1    4    4    0  501 -0.36536533289E+02  0.43336953405E+02 -0.13580954187E+03  0.14722334685E+03  0.41800000000E+01 0. -1.
</event>
<event>
11    1  0.8453735E-009  0.4567699E+03  0.7561462E-02  0.9495672E-01
         22   -1    0    0    0    0  0.00000000000E+00  0.00000000000E+00  0.30325775400E+04  0.30325775400E+04  0.00000000000E+00 0. -1.
         22   -1    0    0    0    0 -0.00000000000E+00 -0.00000000000E+00 -0.95678658751E+03  0.95678658751E+03  0.00000000000E+00 0.  1.
         24    2    1    2    0    0 -0.40182032201E+02  0.28846153539E+02 -0.86713341965E+03  0.87211440049E+03  0.78844554551E+02 0.  0.
         25    2    1    2    0    0  0.38327125862E+03 -0.28216874062E+03  0.87332239251E+03  0.10024248995E+04  0.12509045491E+03 0.  0.
        -24    2    1    2    0    0 -0.34308922642E+03  0.25332258708E+03  0.20696019796E+04  0.21148248276E+04  0.85727164965E+02 0.  0.
        -13    1    3    3    0    0 -0.62729802691E+02  0.10265356418E+02 -0.62527802725E+03  0.62850061022E+03  0.00000000000E+00 0.  1.
         14    1    3    3    0    0  0.22547770490E+02  0.18580797121E+02 -0.24185539240E+03  0.24361379027E+03  0.00000000000E+00 0. -1.
         11    1    5    5    0    0 -0.29200454901E+03  0.18265720430E+03  0.15357941323E+04  0.15739421615E+04  0.00000000000E+00 0. -1.
        -12    1    5    5    0    0 -0.51084677405E+02  0.70665382782E+02  0.53380784736E+03  0.54088266610E+03  0.00000000000E+00 0.  1.
          5    1    4    4  501    0  0.23151689292E+03 -0.93933180150E+02  0.42375397238E+03  0.49194350849E+03  0.41800000000E+01 0. -1.
         -5    1    4    4    0  501  0.15175436570E+03 -0.18823556047E+03  0.44956842013E+03  0.51048139096E+03  0.41800000000E+01 0. -1.
</event>
<event>
11    1  0.8453735E-009  0.6571331E+03  0.7561462E-02  0.9097974E-01
         22   -1    0    0    0    0  0.00000000000E+00  0.00000000000E+00  0.18930479978E+04  0.18930479978E+04  0.00000000000E+00 0. -1.
         22   -1    0    0    0    0 -0.00000000000E+00 -0.00000000000E+00 -0.65559385468E+03  0.65559385468E+03  0.00000000000E+00 0. -1.
         24    2    1    2    0    0 -0.19831401854E+03  0.61527106244E+03 -0.38058895139E+03  0.75433954157E+03  0.79330094167E+02 0.  0.
         25    2    1    2    0    0  0.17305279772E+03 -0.61264587532E+03  0.11680846657E+04  0.13361701798E+04  0.12508686482E+03 0.  0.
        -24    2    1    2    0    0  0.25261220819E+02 -0.26251871182E+01  0.44995842875E+03  0.45813213108E+03  0.82325215092E+02 0.  0.
        -11    1    3    3    0    0 -0.17311810417E+03  0.43993624539E+03 -0.29837866822E+03  0.55905599688E+03  0.00000000000E+00 0.  1.
         12    1    3    3    0    0 -0.25195914374E+02  0.17533481704E+03 -0.82210283172E+02  0.19528354469E+03  0.00000000000E+00 0. -1.
         11    1    5    5    0    0  0.15972248948E+02 -0.38218643280E+02  0.14002176763E+03  0.14602011108E+03  0.00000000000E+00 0. -1.
        -12    1    5    5    0    0  0.92889718705E+01  0.35593456162E+02  0.30993666112E+03  0.31211201999E+03  0.00000000000E+00 0.  1.
          5    1    4    4  501    0  0.61805773104E+02 -0.39701899317E+03  0.80079465097E+03  0.89595400549E+03  0.41800000000E+01 0. -1.
         -5    1    4    4    0  501  0.11124702462E+03 -0.21562688215E+03  0.36729001476E+03  0.44021617432E+03  0.41800000000E+01 0. -1.
</event>
<event>
11    1  0.8453735E-009  0.1316783E+03  0.7561462E-02  0.1117224E+00
         22   -1    0    0    0    0  0.00000000000E+00  0.00000000000E+00  0.12673562604E+03  0.12673562604E+03  0.00000000000E+00 0. -1.
         22   -1    0    0    0    0 -0.00000000000E+00 -0.00000000000E+00 -0.12748391234E+04  0.12748391234E+04  0.00000000000E+00 0.  1.
        -24    2    1    2    0    0  0.38649885207E+01  0.23498769119E+02 -0.80485824766E+03  0.80912588627E+03  0.79503274885E+02 0.  0.
         25    2    1    2    0    0  0.35435720283E+02 -0.10027565318E+02 -0.44053637587E+03  0.45943078783E+03  0.12509239786E+03 0.  0.
         24    2    1    2    0    0 -0.39300708804E+02 -0.13471203801E+02  0.97291126201E+02  0.13301807532E+03  0.80636381864E+02 0.  0.
        -13    1    5    5    0    0 -0.38227152135E+02 -0.26468395645E+02  0.13780527253E+02  0.48495299357E+02  0.00000000000E+00 0.  1.
         14    1    5    5    0    0 -0.10735566686E+01  0.12997191844E+02  0.83510598948E+02  0.84522775962E+02  0.00000000000E+00 0. -1.
         13    1    3    3    0    0  0.10235234778E+02  0.39302458495E+02 -0.20280691379E+03  0.20683347784E+03  0.00000000000E+00 0. -1.
        -14    1    3    3    0    0 -0.63702462578E+01 -0.15803689376E+02 -0.60205133387E+03  0.60229240843E+03  0.00000000000E+00 0.  1.
          5    1    4    4  501    0 -0.50958217940E+01 -0.35417766124E+02 -0.38213224262E+03  0.38382666505E+03  0.41800000000E+01 0.  1.
         -5    1    4    4    0  501  0.40531542077E+02  0.25390200806E+02 -0.58404133252E+02  0.75604122778E+02  0.41800000000E+01 0.  1.
</event>
<event>
11    1  0.8453735E-009  0.1369707E+03  0.7561462E-02  0.1110989E+00
         22   -1    0    0    0    0  0.00000000000E+00  0.00000000000E+00  0.42224832309E+03  0.42224832309E+03  0.00000000000E+00 0. -1.
         22   -1    0    0    0    0 -0.00000000000E+00 -0.00000000000E+00 -0.31091882875E+03  0.31091882875E+03  0.00000000000E+00 0. -1.
         24    2    1    2    0    0 -0.16936715794E+01 -0.26906159216E+02 -0.26633061835E+03  0.27987197247E+03  0.81667085036E+02 0.  0.
         25    2    1    2    0    0  0.48243472323E+02  0.49894475321E+02  0.15555950846E+03  0.21134121241E+03  0.12509778616E+03 0.  0.
        -24    2    1    2    0    0 -0.46549800743E+02 -0.22988316105E+02  0.22210060424E+03  0.24195396696E+03  0.80732255623E+02 0.  0.
        -13    1    3    3    0    0  0.29356788849E+02  0.90725553181E+01 -0.16643634011E+03  0.16924889252E+03  0.00000000000E+00 0.  1.
         14    1    3    3    0    0 -0.31050460428E+02 -0.35978714534E+02 -0.99894278243E+02  0.11062307995E+03  0.00000000000E+00 0. -1.
         13    1    5    5    0    0 -0.34305923813E+02 -0.33135672194E+02  0.22091775125E+03  0.22600779190E+03  0.00000000000E+00 0. -1.
        -14    1    5    5    0    0 -0.12243876931E+02  0.10147356089E+02  0.11828529860E+01  0.15946175061E+02  0.00000000000E+00 0.  1.
          5    1    4    4  501    0 -0.37187060423E+02  0.22124511354E+02  0.18124402909E+02  0.47099234032E+02  0.41800000000E+01 0. -1.
         -5    1    4    4    0  501  0.85430532746E+02  0.27769963967E+02  0.13743510555E+03  0.16424197838E+03  0.41800000000E+01 0. -1.
</event>
<event>
11    1  0.8453735E-009  0.1353761E+03  0.7561462E-02  0.1112834E+00
         22   -1    0    0    0    0  0.00000000000E+00  0.00000000000E+00  0.53605266799E+03  0.53605266799E+03  0.00000000000E+00 0.  1.
         22   -1    0    0    0    0 -0.00000000000E+00 -0.00000000000E+00 -0.45818642585E+03  0.45818642585E+03  0.00000000000E+00 0.  1.
        -24    2    1    2    0    0  0.42194597424E+02  0.18509597458E+02 -0.23911849427E+03  0.25572763105E+03  0.78076742550E+02 0.  0.
         25    2    1    2    0    0 -0.65759331499E+02 -0.20370727977E+02 -0.18308457035E+03  0.23217900808E+03  0.12509146915E+03 0.  0.
         24    2    1    2    0    0  0.23564734075E+02  0.18611305196E+01  0.50006930677E+03  0.50633245471E+03  0.75792365199E+02 0.  0.
        -11    1    5    5    0    0 -0.15359016475E+01 -0.10277006005E+02  0.43983959537E+03  0.43996232282E+03  0.00000000000E+00 0.  1.
         12    1    5    5    0    0  0.25100635723E+02  0.12138136525E+02  0.60229711400E+02  0.66370131891E+02  0.00000000000E+00 0. -1.
         11    1    3    3    0    0 -0.21195032721E+02  0.17122052659E+02 -0.70442772108E+02  0.75528658412E+02  0.00000000000E+00 0. -1.
        -12    1    3    3    0    0  0.63389630145E+02  0.13875447991E+01 -0.16867572217E+03  0.18019897263E+03  0.00000000000E+00 0.  1.
          5    1    4    4  501    0 -0.29573110592E+02 -0.45462058728E+02 -0.12312157858E+02  0.55771222732E+02  0.41800000000E+01 0.  1.
         -5    1    4    4    0  501 -0.36186220907E+02  0.25091330750E+02 -0.17077241250E+03  0.17640778535E+03  0.41800000000E+01 0.  1.
</event>
<event>
11    1  0.8453735E-009  0.1507253E+03  0.7561462E-02  0.1096140E+00
         22   -1    0    0    0    0  0.00000000000E+00  0.00000000000E+00  0.54495412103E+03  0.54495412103E+03  0.00000000000E+00 0.  1.
         22   -1    0    0    0    0 -0.00000000000E+00 -0.00000000000E+00 -0.18926412291E+04  0.18926412291E+04  0.00000000000E+00 0.  1.
         24    2    1    2    0    0  0.72931139644E+01  0.56143138344E+01 -0.18272468259E+04  0.18290309141E+04  0.80239716439E+02 0.  0.
         25    2    1    2    0    0 -0.29128539684E+02  0.76006019029E+02  0.41004095653E+02  0.15477595512E+03  0.12509545823E+03 0.  0.
        -24    2    1    2    0    0  0.21835425720E+02 -0.81620332864E+02  0.43855562217E+03  0.45378848088E+03  0.80338577804E+02 0.  0.
        -13    1    3    3    0    0  0.45385774972E+01  0.40870156657E+02 -0.12683514395E+04  0.12690178653E+04  0.00000000000E+00 0.  1.
         14    1    3    3    0    0  0.27545364672E+01 -0.35255842822E+02 -0.55889538637E+03  0.56001304880E+03  0.00000000000E+00 0. -1.
         11    1    5    5    0    0 -0.57051972547E+01 -0.11510073838E+02  0.50760477434E+01  0.13812940895E+02  0.00000000000E+00 0. -1.
        -12    1    5    5    0    0  0.27540622974E+02 -0.70110259026E+02  0.43347957443E+03  0.43997553998E+03  0.00000000000E+00 0.  1.
          5    1    4    4  501    0 -0.55248240586E+02  0.99293316868E+02  0.35415105522E+02  0.11909337917E+03  0.41800000000E+01 0. -1.
         -5    1    4    4    0  501  0.26119700902E+02 -0.23287297839E+02  0.55889901307E+01  0.35682575951E+02  0.41800000000E+01 0. -1.
</event>
<event>
11    1  0.8453735E-009  0.2443451E+03  0.7561462E-02  0.1026955E+00
         22   -1    0    0    0    0  0.00000000000E+00  0.00000000000E+00  0.24133493076E+04  0.24133493076E+04  0.00000000000E+00 0. -1.
         22   -1    0    0    0    0 -0.00000000000E+00 -0.00000000000E+00 -0.16309153807E+03  0.16309153807E+03  0.00000000000E+00 0. -1.
         24    2    1    2    0    0 -0.97573084631E+02 -0.68767595342E+02 -0.94666476391E+02  0.17255091578E+03  0.81009800461E+02 0.  0.
         25    2    1    2    0    0  0.54377773663E+02  0.25904562552E+03  0.98262401399E+03  0.10253098828E+04  0.12509526195E+03 0.  0.
        -24    2    1    2    0    0  0.43195310968E+02 -0.19027803018E+03  0.13623002319E+04  0.13785800471E+04  0.80928737728E+02 0.  0.
        -11    1    3    3    0    0 -0.14785711723E+01 -0.58166666697E+01  0.13493277504E+02  0.14767813706E+02  0.00000000000E+00 0.  1.
         12    1    3    3    0    0 -0.96094513459E+02 -0.62950928672E+02 -0.10815975389E+03  0.15778310207E+03  0.00000000000E+00 0. -1.
         11    1    5    5    0    0 -0.16796299759E+01  0.44773662541E+01  0.61915281048E+01  0.78232337113E+01  0.00000000000E+00 0. -1.
        -12    1    5    5    0    0  0.44874940944E+02 -0.19475539644E+03  0.13561087038E+04  0.13707568134E+04  0.00000000000E+00 0.  1.
          5    1    4    4  501    0  0.14979682872E+01  0.20259151291E+03  0.55749842638E+03  0.59318423177E+03  0.41800000000E+01 0.  1.
         -5    1    4    4    0  501  0.52879805376E+02  0.56454112619E+02  0.42512558761E+03  0.43212565105E+03  0.41800000000E+01 0.  1.
</event>
<event>
11    1  0.8453735E-009  0.1417538E+03  0.7561462E-02  0.1105616E+00
         22   -1    0    0    0    0  0.00000000000E+00  0.00000000000E+00  0.21767155113E+03  0.21767155113E+03  0.00000000000E+00 0. -1.
         22   -1    0    0    0    0 -0.00000000000E+00 -0.00000000000E+00 -0.16969216795E+04  0.16969216795E+04  0.00000000000E+00 0. -1.
         24    2    1    2    0    0  0.39193735726E+02 -0.60050703300E+02 -0.10895146032E+04  0.10950942924E+04  0.83947618822E+02 0.  0.
         25    2    1    2    0    0 -0.79495356595E+02 -0.17479765305E+01 -0.58075701395E+03  0.59937199399E+03  0.12508201624E+03 0.  0.
        -24    2    1    2    0    0  0.40301620869E+02  0.61798679830E+02  0.19102148882E+03  0.22012694423E+03  0.80767350519E+02 0.  0.
        -13    1    3    3    0    0 -0.18952242342E+02 -0.45698906377E+02 -0.41913058244E+03  0.42204030929E+03  0.00000000000E+00 0.  1.
         14    1    3    3    0    0  0.58145978068E+02 -0.14351796922E+02 -0.67038402079E+03  0.67305398310E+03  0.00000000000E+00 0. -1.
         13    1    5    5    0    0  0.20229671916E+02  0.74210125877E+02  0.10036781738E+03  0.12645189273E+03  0.00000000000E+00 0. -1.
        -14    1    5    5    0    0  0.20071948953E+02 -0.12411446047E+02  0.90653671446E+02  0.93675051505E+02  0.00000000000E+00 0.  1.
          5    1    4    4  501    0 -0.53750747893E+01  0.21867660155E+02 -0.13081259934E+02  0.26375703804E+02  0.41800000000E+01 0. -1.
         -5    1    4    4    0  501 -0.74120281805E+02 -0.23615636686E+02 -0.56767575401E+03  0.57299629019E+03  0.41800000000E+01 0. -1.
</event>
<event>
11    1  0.8453735E-009  0.2752662E+03  0.7561462E-02  0.1011239E+00
         22   -1    0    0    0    0  0.00000000000E+00  0.00000000000E+00  0.98901044324E+02  0.98901044324E+02  0.00000000000E+00 0.  1.
         22   -1    0    0    0    0 -0.00000000000E+00 -0.00000000000E+00 -0.13586322637E+04  0.13586322637E+04  0.00000000000E+00 0. -1.
        -24    2    1    2    0    0  0.17813760670E+02  0.23911799391E+02 -0.39935235189E+03  0.40840322098E+03  0.80136045086E+02 0.  0.
         25    2    1    2    0    0  0.22724223008E+03  0.29945733920E+02 -0.68694782836E+03  0.73490204707E+03  0.12509165356E+03 0.  0.
         24    2    1    2    0    0 -0.24505599075E+03 -0.53857533311E+02 -0.17343103912E+03  0.31422803997E+03  0.75550402227E+02 0.  0.
        -11    1    5    5    0    0 -0.18352786667E+03 -0.73038664731E+02 -0.12794448787E+03  0.23534425077E+03  0.00000000000E+00 0.  1.
         12    1    5    5    0    0 -0.61528124078E+02  0.19181131420E+02 -0.45486551245E+02  0.78883789204E+02  0.00000000000E+00 0. -1.
         13    1    3    3    0    0 -0.57548098341E+01  0.50735665177E+01 -0.35307761429E+03  0.35316095569E+03  0.00000000000E+00 0. -1.
        -14    1    3    3    0    0  0.23568570504E+02  0.18838232873E+02 -0.46274737605E+02  0.55242265285E+02  0.00000000000E+00 0.  1.
          5    1    4    4  501    0  0.35538084619E+02 -0.40561770163E+02 -0.10461385488E+03  0.11776987599E+03  0.41800000000E+01 0.  1.
         -5    1    4    4    0  501  0.19170414546E+03  0.70507504083E+02 -0.58233397347E+03  0.61713217108E+03  0.41800000000E+01 0.  1.
</event>
<event>
11    1  0.8453735E-009  0.1402567E+03  0.7561462E-02  0.1107272E+00
         22   -1    0    0    0    0  0.00000000000E+00  0.00000000000E+00  0.11099395157E+04  0.11099395157E+04  0.00000000000E+00 0. -1.
         22   -1    0    0    0    0 -0.00000000000E+00 -0.00000000000E+00 -0.56869146356E+02  0.56869146356E+02  0.00000000000E+00 0.  1.
        -24    2    1    2    0    0 -0.25890358045E+02 -0.16327161021E+02  0.19471029442E+02  0.87474406228E+02  0.79597512088E+02 0.  0.
         25    2    1    2    0    0  0.70348013439E+01  0.75579824450E+02  0.25407608601E+03  0.29319575638E+03  0.12508915134E+03 0.  0.
         24    2    1    2    0    0  0.18855556701E+02 -0.59252663429E+02  0.77952325389E+03  0.78613849945E+03  0.80565667743E+02 0.  0.
        -13    1    5    5    0    0  0.61012602430E+01  0.20111117137E+02  0.13595416105E+03  0.13756895113E+03  0.00000000000E+00 0.  1.
         14    1    5    5    0    0  0.12754296458E+02 -0.79363780566E+02  0.64356909284E+03  0.64856954832E+03  0.00000000000E+00 0. -1.
         13    1    3    3    0    0  0.25732839046E+02 -0.20001625839E+02  0.13862149995E+02  0.35417555591E+02  0.00000000000E+00 0. -1.
        -14    1    3    3    0    0 -0.51623197090E+02  0.36744648180E+01  0.56088794474E+01  0.52056850636E+02  0.00000000000E+00 0.  1.
          5    1    4    4  501    0 -0.25126072175E+02 -0.22737677765E+02  0.26645660845E+02  0.43310335198E+02  0.41800000000E+01 0. -1.
         -5    1    4    4    0  501  0.32160873518E+02  0.98317502216E+02  0.22743042517E+03  0.24988542118E+03  0.41800000000E+01 0. -1.
</event>
<event>
11    1  0.8453735E-009  0.1601479E+03  0.7561462E-02  0.1086938E+00
         22   -1    0    0    0    0  0.00000000000E+00  0.00000000000E+00  0.17517247796E+03  0.17517247796E+03  0.00000000000E+00 0.  1.
         22   -1    0    0    0    0 -0.00000000000E+00 -0.00000000000E+00 -0.11591979037E+04  0.11591979037E+04  0.00000000000E+00 0.  1.
        -24    2    1    2    0    0  0.17068047833E+02  0.92667490667E+02 -0.90991121631E+03  0.91798142222E+03  0.76634769374E+02 0.  0.
         25    2    1    2    0    0 -0.46283968630E+02 -0.17613788276E+03 -0.15557221655E+03  0.27022496198E+03  0.12510817727E+03 0.  0.
         24    2    1    2    0    0  0.29215920797E+02  0.83470392093E+02  0.81458007081E+02  0.14616399751E+03  0.83112158348E+02 0.  0.
        -13    1    5    5    0    0  0.12762755368E+02  0.86825075453E+02  0.31141680260E+02  0.93119739591E+02  0.00000000000E+00 0.  1.
         14    1    5    5    0    0  0.16453165429E+02 -0.33546833603E+01  0.50316326821E+02  0.53044257916E+02  0.00000000000E+00 0. -1.
         11    1    3    3    0    0 -0.17617004929E+02  0.31869444828E+02 -0.13210229123E+03  0.13702932432E+03  0.00000000000E+00 0. -1.
        -12    1    3    3    0    0  0.34685052762E+02  0.60798045840E+02 -0.77780892509E+03  0.78095209790E+03  0.00000000000E+00 0.  1.
          5    1    4    4  501    0 -0.65492569781E+02 -0.48867098609E+02 -0.22096812109E+02  0.84752649094E+02  0.41800000000E+01 0. -1.
         -5    1    4    4    0  501  0.19208601152E+02 -0.12727078415E+03 -0.13347540444E+03  0.18547231288E+03  0.41800000000E+01 0. -1.
</event>
<event>
11    1  0.8453735E-009  0.1590083E+03  0.7561462E-02  0.1088014E+00
         22   -1    0    0    0    0  0.00000000000E+00  0.00000000000E+00  0.97335239036E+03  0.97335239036E+03  0.00000000000E+00 0.  1.
         22   -1    0    0    0    0 -0.00000000000E+00 -0.00000000000E+00 -0.28022642547E+03  0.28022642547E+03  0.00000000000E+00 0.  1.
        -24    2    1    2    0    0 -0.76365729924E+02 -0.62030720310E+02 -0.24303564673E+03  0.27515966307E+03  0.83468434944E+02 0.  0.
         25    2    1    2    0    0  0.95516463850E+02  0.29998828457E+02  0.34496753368E+03  0.38035774534E+03  0.12508433382E+03 0.  0.
         24    2    1    2    0    0 -0.19150733926E+02  0.32031891853E+02  0.59119407794E+03  0.59806140743E+03  0.82305628951E+02 0.  0.
        -11    1    5    5    0    0 -0.27361031327E+02 -0.19776352695E+02  0.32497007927E+03  0.32671896575E+03  0.00000000000E+00 0.  1.
         12    1    5    5    0    0  0.82102974010E+01  0.51808244548E+02  0.26622399867E+03  0.27134244168E+03  0.00000000000E+00 0. -1.
         11    1    3    3    0    0 -0.11049164362E+02  0.13734613972E+02 -0.73025461498E+01  0.19080116204E+02  0.00000000000E+00 0. -1.
        -12    1    3    3    0    0 -0.65316565562E+02 -0.75765334283E+02 -0.23573310058E+03  0.25607954687E+03  0.00000000000E+00 0.  1.
          5    1    4    4  501    0  0.54153592354E+02 -0.11009873492E+02  0.36379568771E+02  0.66293093933E+02  0.41800000000E+01 0. -1.
         -5    1    4    4    0  501  0.41362871496E+02  0.41008701949E+02  0.30858796491E+03  0.31406465141E+03  0.41800000000E+01 0. -1.
</event>
<event>
11    1  0.8453735E-009  0.2021002E+03  0.7561462E-02  0.1053048E+00
         22   -1    0    0    0    0  0.00000000000E+00  0.00000000000E+00  0.58795083092E+03  0.58795083092E+03  0.00000000000E+00 0.  1.
         22   -1    0    0    0    0 -0.00000000000E+00 -0.00000000000E+00 -0.80984934163E+03  0.80984934163E+03  0.00000000000E+00 0. -1.
         24    2    1    2    0    0 -0.45837122449E+02  0.93342844212E-01 -0.72648151659E+03  0.73025555977E+03  0.58281541842E+02 0.  0.
         25    2    1    2    0    0 -0.11800082637E+03 -0.40204409415E+02  0.60038318605E+02  0.18652759119E+03  0.12508938011E+03 0.  0.
        -24    2    1    2    0    0  0.16383794882E+03  0.40111066571E+02  0.44454468728E+03  0.48101702159E+03  0.72839720888E+02 0.  0.
        -13    1    3    3    0    0 -0.34741596920E+02 -0.18802900601E+02 -0.23588789255E+03  0.23917279418E+03  0.00000000000E+00 0.  1.
         14    1    3    3    0    0 -0.11095525530E+02  0.18896243445E+02 -0.49059362404E+03  0.49108276558E+03  0.00000000000E+00 0. -1.
         11    1    5    5    0    0  0.13129846632E+02 -0.13655970771E+02  0.21144179435E+02  0.28389341913E+02  0.00000000000E+00 0. -1.
        -12    1    5    5    0    0  0.15070810218E+03  0.53767037342E+02  0.42340050784E+03  0.45262767968E+03  0.00000000000E+00 0.  1.
          5    1    4    4  501    0 -0.36914046592E+01 -0.59586047634E+02  0.28588554178E+02  0.66324214063E+02  0.41800000000E+01 0. -1.
         -5    1    4    4    0  501 -0.11430942171E+03  0.19381638219E+02  0.31449764426E+02  0.12020337713E+03  0.41800000000E+01 0. -1.
</event>
<event>
11    1  0.8453735E-009  0.1312683E+03  0.7561462E-02  0.1117720E+00
         22   -1    0    0    0    0  0.00000000000E+00  0.00000000000E+00  0.16074636099E+04  0.16074636099E+04  0.00000000000E+00 0. -1.
         22   -1    0    0    0    0 -0.00000000000E+00 -0.00000000000E+00 -0.15042252109E+03  0.15042252109E+03  0.00000000000E+00 0.  1.
        -24    2    1    2    0    0  0.37531087647E+02 -0.35893352859E+01 -0.11174790925E+03  0.14554348202E+03  0.85286834091E+02 0.  0.
         25    2    1    2    0    0 -0.74901230021E+02 -0.20961749335E+02  0.24765230608E+03  0.28814602349E+03  0.12508747721E+03 0.  0.
         24    2    1    2    0    0  0.37370142374E+02  0.24551084621E+02  0.13211366920E+04  0.13241966255E+04  0.78072150764E+02 0.  0.
        -13    1    5    5    0    0 -0.13850562744E+02 -0.17287765598E+02  0.23252596885E+03  0.23357874715E+03  0.00000000000E+00 0.  1.
         14    1    5    5    0    0  0.51220705119E+02  0.41838850219E+02  0.10886107232E+04  0.10906178784E+04  0.00000000000E+00 0. -1.
         11    1    3    3    0    0 -0.26562976085E+02 -0.67184934953E+01 -0.46870290510E+02  0.54291380401E+02  0.00000000000E+00 0. -1.
        -12    1    3    3    0    0  0.64094063731E+02  0.31291582094E+01 -0.64877618736E+02  0.91252101617E+02  0.00000000000E+00 0.  1.
          5    1    4    4  501    0 -0.10306613108E+03  0.45245672474E+01  0.14031501576E+03  0.17420928544E+03  0.41800000000E+01 0. -1.
         -5    1    4    4    0  501  0.28164901063E+02 -0.25486316582E+02  0.10733729032E+03  0.11393673806E+03  0.41800000000E+01 0. -1.
</event>
<event>
11    1  0.8453735E-009  0.1474598E+03  0.7561462E-02  0.1099503E+00
         22   -1    0    0    0    0  0.00000000000E+00  0.00000000000E+00  0.11596144035E+04  0.11596144035E+04  0.00000000000E+00 0. -1.
         22   -1    0    0    0    0 -0.00000000000E+00 -0.00000000000E+00 -0.31260872199E+03  0.31260872199E+03  0.00000000000E+00 0. -1.
        -24    2    1    2    0    0  0.67534723429E+01 -0.55243456337E+02 -0.25542185909E+03  0.27391975145E+03  0.81818428705E+02 0.  0.
         25    2    1    2    0    0 -0.84077356492E+02  0.58735009131E+02  0.10118403777E+03  0.19079728594E+03  0.12508633678E+03 0.  0.
         24    2    1    2    0    0  0.77323884149E+02 -0.34915527938E+01  0.10012435028E+04  0.10075060881E+04  0.81171371821E+02 0.  0.
        -13    1    5    5    0    0  0.52846232803E+02 -0.14495676816E+02  0.92599528345E+03  0.92761528337E+03  0.00000000000E+00 0.  1.
         14    1    5    5    0    0  0.24477651346E+02  0.11004124022E+02  0.75248219355E+02  0.79890804708E+02  0.00000000000E+00 0. -1.
         13    1    3    3    0    0 -0.12709137195E+02 -0.53359239088E+02 -0.24631653876E+03  0.25235008981E+03  0.00000000000E+00 0. -1.
        -14    1    3    3    0    0  0.19462609538E+02 -0.18842172495E+01 -0.91053203350E+01  0.21569661636E+02  0.00000000000E+00 0.  1.
          5    1    4    4  501    0  0.38683450784E+01  0.35402761571E+02  0.92611062480E+02  0.99310628405E+02  0.41800000000E+01 0.  1.
         -5    1    4    4    0  501 -0.87945701570E+02  0.23332247560E+02  0.85729752892E+01  0.91486657531E+02  0.41800000000E+01 0.  1.
</event>
<event>
11    1  0.8453735E-009  0.2946742E+03  0.7561462E-02  0.1002471E+00
         22   -1    0    0    0    0  0.00000000000E+00  0.00000000000E+00  0.42115218779E+03  0.42115218779E+03  0.00000000000E+00 0.  1.
         22   -1    0    0    0    0 -0.00000000000E+00 -0.00000000000E+00 -0.15376901894E+04  0.15376901894E+04  0.00000000000E+00 0. -1.
        -24    2    1    2    0    0  0.11852073150E+02 -0.95973316126E+01 -0.15337871001E+03  0.17298649854E+03  0.78528463508E+02 0.  0.
         25    2    1    2    0    0  0.25469888853E+03  0.28279733951E+02 -0.13099212521E+04  0.13406015779E+04  0.12509051439E+03 0.  0.
         24    2    1    2    0    0 -0.26655096168E+03 -0.18682402338E+02  0.34676196050E+03  0.44525430076E+03  0.81296296142E+02 0.  0.
        -13    1    5    5    0    0 -0.26088458920E+03 -0.24870604452E+02  0.34912206786E+03  0.43653812447E+03  0.00000000000E+00 0.  1.
         14    1    5    5    0    0 -0.56663724758E+01  0.61882021137E+01 -0.23601073558E+01  0.87161762927E+01  0.00000000000E+00 0. -1.
         11    1    3    3    0    0  0.30710780891E+02 -0.33775396276E+02 -0.64914638467E+02  0.79358929830E+02  0.00000000000E+00 0. -1.
        -12    1    3    3    0    0 -0.18858707741E+02  0.24178064663E+02 -0.88464071547E+02  0.93627568713E+02  0.00000000000E+00 0.  1.
          5    1    4    4  501    0  0.19485371973E+03  0.60205256729E+02 -0.11302108435E+04  0.11484714486E+04  0.41800000000E+01 0.  1.
         -5    1    4    4    0  501  0.59845168802E+02 -0.31925522779E+02 -0.17971040855E+03  0.19213012928E+03  0.41800000000E+01 0.  1.
</event>
<event>
11    1  0.8453735E-009  0.1753495E+03  0.7561462E-02  0.1073468E+00
         22   -1    0    0    0    0  0.00000000000E+00  0.00000000000E+00  0.31528439150E+04  0.31528439150E+04  0.00000000000E+00 0.  1.
         22   -1    0    0    0    0 -0.00000000000E+00 -0.00000000000E+00 -0.74928472382E+03  0.74928472382E+03  0.00000000000E+00 0.  1.
        -24    2    1    2    0    0  0.19580884820E+02 -0.42171660560E+02 -0.72336845844E+03  0.72938087521E+03  0.81072032485E+02 0.  0.
         25    2    1    2    0    0  0.88017590699E+02  0.10085182261E+03  0.37954052575E+03  0.42144661635E+03  0.12509217943E+03 0.  0.
         24    2    1    2    0    0 -0.10759847552E+03 -0.58680162045E+02  0.27473871239E+04  0.27513011473E+04  0.80630026251E+02 0.  0.
        -11    1    5    5    0    0 -0.55880564210E+02 -0.66205585690E+02  0.21088376022E+04  0.21106164619E+04  0.00000000000E+00 0.  1.
         12    1    5    5    0    0 -0.51717911309E+02  0.75254236450E+01  0.63854952174E+03  0.64068468537E+03  0.00000000000E+00 0. -1.
         13    1    3    3    0    0 -0.14858450375E+02 -0.84381466815E+01 -0.31509867208E+02  0.35844770866E+02  0.00000000000E+00 0. -1.
        -14    1    3    3    0    0  0.34439335195E+02 -0.33733513878E+02 -0.69185859123E+03  0.69353610434E+03  0.00000000000E+00 0.  1.
          5    1    4    4  501    0  0.46707048265E+02 -0.16547396473E+02  0.17549573136E+03  0.18240501312E+03  0.41800000000E+01 0. -1.
         -5    1    4    4    0  501  0.41310542433E+02  0.11739921908E+03  0.20404479439E+03  0.23904160323E+03  0.41800000000E+01 0. -1.
</event>
<event>
11    1  0.9535144E-009  0.1583150E+03  0.7561462E-02  0.1088673E+00
         22   -1    0    0    0    0  0.00000000000E+00  0.00000000000E+00  0.45458812080E+03  0.45458812080E+03  0.00000000000E+00 0. -1.
         22   -1    0    0    0    0 -0.00000000000E+00 -0.00000000000E+00 -0.50258520215E+03  0.50258520215E+03  0.00000000000E+00 0.  1.
         24    2    1    2    0    0  0.43294391277E+02  0.34167929132E+02 -0.28915296965E+03  0.30567360101E+03  0.82371468356E+02 0.  0.
         25    2    1    2    0    0 -0.12681053174E+03  0.13171271962E+02 -0.15456345497E+03  0.23620837555E+03  0.12510052639E+03 0.  0.
        -24    2    1    2    0    0  0.83516140466E+02 -0.47339201094E+02  0.39571934327E+03  0.41529134639E+03  0.81591409314E+02 0.  0.
        -11    1    3    3    0    0  0.24489136129E+02 -0.26222698654E+02 -0.10427713607E+03  0.11027723618E+03  0.00000000000E+00 0.  1.
         12    1    3    3    0    0  0.18805255148E+02  0.60390627786E+02 -0.18487583359E+03  0.19539636483E+03  0.00000000000E+00 0. -1.
         13    1    5    5    0    0  0.64569643392E+02 -0.59797514739E+02  0.37281403855E+03  0.38306042468E+03  0.00000000000E+00 0. -1.
        -14    1    5    5    0    0  0.18946497075E+02  0.12458313645E+02  0.22905304722E+02  0.32230921717E+02  0.00000000000E+00 0.  1.
          5    1    4    4  501    0 -0.11523190711E+03 -0.38002066528E+02 -0.81759776079E+02  0.14637172835E+03  0.41800000000E+01 0.  1.
         -5    1    4    4    0  501 -0.11578624636E+02  0.51173338491E+02 -0.72803678887E+02  0.89836647200E+02  0.41800000000E+01 0.  1.
</event>
<event>
11    1  0.8453735E-009  0.1526145E+03  0.7561462E-02  0.1094237E+00
         22   -1    0    0    0    0  0.00000000000E+00  0.00000000000E+00  0.19568619960E+03  0.19568619960E+03  0.00000000000E+00 0. -1.
         22   -1    0    0    0    0 -0.00000000000E+00 -0.00000000000E+00 -0.25090352849E+03  0.25090352849E+03  0.00000000000E+00 0.  1.
         24    2    1    2    0    0  0.60188425456E+02  0.38977182161E+02 -0.95093101611E+02  0.14312175019E+03  0.79367941361E+02 0.  0.
         25    2    1    2    0    0 -0.13121058171E+03 -0.36862532401E+02 -0.82864686297E+01  0.18518034646E+03  0.12509209450E+03 0.  0.
        -24    2    1    2    0    0  0.71022156252E+02 -0.21146497601E+01  0.48162241351E+02  0.11828763143E+03  0.81386386057E+02 0.  0.
        -11    1    3    3    0    0  0.45377252181E+02  0.48126596207E+02 -0.24698760480E+02  0.70606607674E+02  0.00000000000E+00 0.  1.
         12    1    3    3    0    0  0.14811173275E+02 -0.91494140461E+01 -0.70394341130E+02  0.72515142518E+02  0.00000000000E+00 0. -1.
         13    1    5    5    0    0  0.69251735663E+02  0.25992393837E+02  0.16263724145E+02  0.75735831366E+02  0.00000000000E+00 0. -1.
        -14    1    5    5    0    0  0.17704205895E+01 -0.28107043597E+02  0.31898517206E+02  0.42551800065E+02  0.00000000000E+00 0.  1.
          5    1    4    4  501    0 -0.11099720655E+03 -0.30234161735E+02 -0.59487336644E+02  0.12957893355E+03  0.41800000000E+01 0.  1.
         -5    1    4    4    0  501 -0.20213375157E+02 -0.66283706662E+01  0.51200868014E+02  0.55601412917E+02  0.41800000000E+01 0.  1.
</event>
<event>
11    1  0.8453735E-009  0.1443660E+03  0.7561462E-02  0.1102779E+00
         22   -1    0    0    0    0  0.00000000000E+00  0.00000000000E+00  0.16166718452E+04  0.16166718452E+04  0.00000000000E+00 0. -1.
         22   -1    0    0    0    0 -0.00000000000E+00 -0.00000000000E+00 -0.48928257101E+02  0.48928257101E+02  0.00000000000E+00 0.  1.
         24    2    1    2    0    0  0.32899111856E+02  0.83240963210E+01  0.17197389671E+02  0.89463365239E+02  0.80970990904E+02 0.  0.
         25    2    1    2    0    0 -0.25493793496E+02  0.65550796141E+02  0.50389733217E+03  0.52393413168E+03  0.12509041766E+03 0.  0.
        -24    2    1    2    0    0 -0.74053183607E+01 -0.73874892462E+02  0.10466488663E+04  0.10522026054E+04  0.78384533259E+02 0.  0.
        -11    1    3    3    0    0  0.85125002215E+01 -0.87778963728E+01 -0.30708135656E+02  0.33053044039E+02  0.00000000000E+00 0.  1.
         12    1    3    3    0    0  0.24386611635E+02  0.17101992694E+02  0.47905525327E+02  0.56410321201E+02  0.00000000000E+00 0. -1.
         11    1    5    5    0    0 -0.23373472442E+02 -0.83555636343E+02  0.93347925464E+03  0.93750273728E+03  0.00000000000E+00 0. -1.
        -12    1    5    5    0    0  0.15968154081E+02  0.96807438808E+01  0.11316961167E+03  0.11469986814E+03  0.00000000000E+00 0.  1.
          5    1    4    4  501    0 -0.25706078599E+02 -0.89919762735E+01  0.36673628709E+03  0.36776981222E+03  0.41800000000E+01 0.  1.
         -5    1    4    4    0  501  0.21228510320E+00  0.74542772414E+02  0.13716104508E+03  0.15616431946E+03  0.41800000000E+01 0.  1.
</event>
<event>
11    1  0.8453735E-009  0.2004306E+03  0.7561462E-02  0.1054220E+00
         22   -1    0    0    0    0  0.00000000000E+00  0.00000000000E+00  0.10969121058E+04  0.10969121058E+04  0.00000000000E+00 0.  1.
         22   -1    0    0    0    0 -0.00000000000E+00 -0.00000000000E+00 -0.37038239620E+03  0.37038239620E+03  0.00000000000E+00 0.  1.
        -24    2    1    2    0    0  0.13317636997E+03  0.69597432519E+02 -0.25306253884E+03  0.30492361127E+03  0.79737143233E+02 0.  0.
         25    2    1    2    0    0 -0.20313998857E+03 -0.33014443506E+02  0.78584586686E+02  0.25333797415E+03  0.12509509761E+03 0.  0.
         24    2    1    2    0    0  0.69963618600E+02 -0.36582989013E+02  0.90100766177E+03  0.90903291660E+03  0.91064888222E+02 0.  0.
        -13    1    5    5    0    0  0.28282837349E+02 -0.16056529212E+01  0.70622669900E+03  0.70679462887E+03  0.00000000000E+00 0.  1.
         14    1    5    5    0    0  0.41680781251E+02 -0.34977336091E+02  0.19478096277E+03  0.20223828773E+03  0.00000000000E+00 0. -1.
         13    1    3    3    0    0  0.64188384123E+02  0.56232125270E+02 -0.75420718100E+02  0.11388803839E+03  0.00000000000E+00 0. -1.
        -14    1    3    3    0    0  0.68987985845E+02  0.13365307249E+02 -0.17764182075E+03  0.19103557288E+03  0.00000000000E+00 0.  1.
          5    1    4    4  501    0 -0.20962704660E+03 -0.30099855647E+01  0.71618413262E+02  0.22158345651E+03  0.41800000000E+01 0.  1.
         -5    1    4    4    0  501  0.64870580358E+01 -0.30004457941E+02  0.69661734238E+01  0.31754517639E+02  0.41800000000E+01 0.  1.
</event>
<event>
11    1  0.8453735E-009  0.1275581E+03  0.7561462E-02  0.1122306E+00
         22   -1    0    0    0    0  0.00000000000E+00  0.00000000000E+00  0.12994151424E+04  0.12994151424E+04  0.00000000000E+00 0. -1.
         22   -1    0    0    0    0 -0.00000000000E+00 -0.00000000000E+00 -0.14630273466E+03  0.14630273466E+03  0.00000000000E+00 0. -1.
         24    2    1    2    0    0  0.12893631737E+02 -0.21344441678E+02 -0.11613962765E+03  0.14404286643E+03  0.81474556325E+02 0.  0.
         25    2    1    2    0    0 -0.20935599793E+01  0.28108380057E+02  0.26674239709E+03  0.29596343788E+03  0.12509350957E+03 0.  0.
        -24    2    1    2    0    0 -0.10800071758E+02 -0.67639383795E+01  0.10025096383E+04  0.10057115727E+04  0.79169440245E+02 0.  0.
        -11    1    3    3    0    0  0.60280443566E+01 -0.42010830196E+02 -0.22762352465E+02  0.48159857373E+02  0.00000000000E+00 0.  1.
         12    1    3    3    0    0  0.68655873807E+01  0.20666388518E+02 -0.93377275186E+02  0.95883009056E+02  0.00000000000E+00 0. -1.
         11    1    5    5    0    0 -0.29284420234E+02  0.17647317747E+02  0.81511725853E+03  0.81583402126E+03  0.00000000000E+00 0. -1.
        -12    1    5    5    0    0  0.18484348476E+02 -0.24411256126E+02  0.18739237975E+03  0.18987755147E+03  0.00000000000E+00 0.  1.
          5    1    4    4  501    0  0.25408864207E+02  0.61201885197E+02  0.78476289258E+02  0.10279728356E+03  0.41800000000E+01 0. -1.
         -5    1    4    4    0  501 -0.27502424187E+02 -0.33093505140E+02  0.18826610783E+03  0.19316615432E+03  0.41800000000E+01 0. -1.
</event>
<event>
11    1  0.8453735E-009  0.1500276E+03  0.7561462E-02  0.1096851E+00
         22   -1    0    0    0    0  0.00000000000E+00  0.00000000000E+00  0.15148666261E+04  0.15148666261E+04  0.00000000000E+00 0.  1.
         22   -1    0    0    0    0 -0.00000000000E+00 -0.00000000000E+00 -0.25329885283E+04  0.25329885283E+04  0.00000000000E+00 0.  1.
        -24    2    1    2    0    0 -0.54964838896E+02 -0.72462171308E+02 -0.20367169173E+04  0.20403473931E+04  0.80807074303E+02 0.  0.
         25    2    1    2    0    0  0.15384063033E+02  0.41901020848E+02 -0.48401242652E+03  0.50190314950E+03  0.12508548083E+03 0.  0.
         24    2    1    2    0    0  0.39580775863E+02  0.30561150461E+02  0.15026074417E+04  0.15056046118E+04  0.80718656529E+02 0.  0.
        -13    1    5    5    0    0  0.40538352208E+02  0.49702625958E+02  0.74529407151E+03  0.74804876983E+03  0.00000000000E+00 0.  1.
         14    1    5    5    0    0 -0.95757634555E+00 -0.19141475497E+02  0.75731337019E+03  0.75755584197E+03  0.00000000000E+00 0. -1.
         11    1    3    3    0    0  0.18025817394E+02 -0.28670775510E+02 -0.79178177997E+03  0.79250572903E+03  0.00000000000E+00 0. -1.
        -12    1    3    3    0    0 -0.72990656290E+02 -0.43791395798E+02 -0.12449351374E+04  0.12478416640E+04  0.00000000000E+00 0.  1.
          5    1    4    4  501    0  0.26629810942E+02 -0.40013516082E+02 -0.14040823490E+03  0.14846606726E+03  0.41800000000E+01 0. -1.
         -5    1    4    4    0  501 -0.11245747909E+02  0.81914536930E+02 -0.34360419162E+03  0.35343708225E+03  0.41800000000E+01 0. -1.
</event>
<event>
11    1  0.8453735E-009  0.1498259E+03  0.7561462E-02  0.1097057E+00
         22   -1    0    0    0    0  0.00000000000E+00  0.00000000000E+00  0.27087070673E+03  0.27087070673E+03  0.00000000000E+00 0.  1.
         22   -1    0    0    0    0 -0.00000000000E+00 -0.00000000000E+00 -0.30878118372E+03  0.30878118372E+03  0.00000000000E+00 0.  1.
        -24    2    1    2    0    0 -0.28241163550E+02  0.74887691595E+02 -0.16483303759E+03  0.20354265291E+03  0.88622523109E+02 0.  0.
         25    2    1    2    0    0 -0.22550335399E+02 -0.99284377537E+02 -0.53975490226E+02  0.17007792477E+03  0.12508893516E+03 0.  0.
         24    2    1    2    0    0  0.50791498949E+02  0.24396685942E+02  0.18089805082E+03  0.20603131276E+03  0.80930973054E+02 0.  0.
        -13    1    5    5    0    0  0.40819094165E+02  0.35733088228E+02  0.18292271710E+03  0.19079772660E+03  0.00000000000E+00 0.  1.
         14    1    5    5    0    0  0.99724047847E+01 -0.11336402287E+02 -0.20246662828E+01  0.15233586169E+02  0.00000000000E+00 0. -1.
         11    1    3    3    0    0 -0.52150593329E+02  0.25374332037E+02 -0.51438911910E+02  0.77520982768E+02  0.00000000000E+00 0. -1.
        -12    1    3    3    0    0  0.23909429779E+02  0.49513359558E+02 -0.11339412568E+03  0.12602167014E+03  0.00000000000E+00 0.  1.
          5    1    4    4  501    0  0.24482258357E+02 -0.62913852664E+01  0.27608386051E+02  0.37665075112E+02  0.41800000000E+01 0.  1.
         -5    1    4    4    0  501 -0.47032593756E+02 -0.92992992270E+02 -0.81583876277E+02  0.13241284966E+03  0.41800000000E+01 0.  1.
</event>
<event>
11    1  0.8453735E-009  0.1699844E+03  0.7561462E-02  0.1078045E+00
         22   -1    0    0    0    0  0.00000000000E+00  0.00000000000E+00  0.71749299406E+03  0.71749299406E+03  0.00000000000E+00 0.  1.
         22   -1    0    0    0    0 -0.00000000000E+00 -0.00000000000E+00 -0.11340208787E+03  0.11340208787E+03  0.00000000000E+00 0. -1.
         24    2    1    2    0    0 -0.46338260498E+02  0.95672845797E+02  0.10356924584E+02  0.13383260827E+03  0.80643495346E+02 0.  0.
         25    2    1    2    0    0  0.16743745394E+02 -0.14396583538E+03  0.15418737538E+03  0.24582014687E+03  0.12508910070E+03 0.  0.
        -24    2    1    2    0    0  0.29594515104E+02  0.48292989582E+02  0.43954660624E+03  0.45124232679E+03  0.84913899120E+02 0.  0.
        -13    1    3    3    0    0 -0.45524066219E+02  0.89747026796E+01  0.80951939133E+01  0.47101147096E+02  0.00000000000E+00 0.  1.
         14    1    3    3    0    0 -0.81419427938E+00  0.86698143118E+02  0.22617306706E+01  0.86731461178E+02  0.00000000000E+00 0. -1.
         11    1    5    5    0    0  0.23631978672E+02 -0.38636982107E+00  0.27388581978E+02  0.36176706875E+02  0.00000000000E+00 0. -1.
        -12    1    5    5    0    0  0.59625364326E+01  0.48679359403E+02  0.41215802426E+03  0.41506561991E+03  0.00000000000E+00 0.  1.
          5    1    4    4  501    0  0.43369388527E+02 -0.13214726089E+03  0.68246635437E+02  0.15498025058E+03  0.41800000000E+01 0.  1.
         -5    1    4    4    0  501 -0.26625643133E+02 -0.11818574486E+02  0.85940739941E+02  0.90839896283E+02  0.41800000000E+01 0.  1.
</event>
<event>
11    1  0.8453735E-009  0.1696557E+03  0.7561462E-02  0.1078332E+00
         22   -1    0    0    0    0  0.00000000000E+00  0.00000000000E+00  0.20736086270E+04  0.20736086270E+04  0.00000000000E+00 0. -1.
         22   -1    0    0    0    0 -0.00000000000E+00 -0.00000000000E+00 -0.20418744562E+02  0.20418744562E+02  0.00000000000E+00 0.  1.
        -24    2    1    2    0    0  0.27965973694E+02  0.76170819836E+01  0.26135898952E+03  0.27514178631E+03  0.80959036244E+02 0.  0.
         25    2    1    2    0    0 -0.82561032769E+01  0.10931838174E+03  0.78868095117E+03  0.80602944163E+03  0.12508855344E+03 0.  0.
         24    2    1    2    0    0 -0.19709870417E+02 -0.11693546372E+03  0.10031499418E+04  0.10128561437E+04  0.74198250542E+02 0.  0.
        -11    1    5    5    0    0 -0.97504205376E+01 -0.77259427205E+02  0.35613550066E+03  0.36454983833E+03  0.00000000000E+00 0.  1.
         12    1    5    5    0    0 -0.99594498791E+01 -0.39676036519E+02  0.64701444112E+03  0.64830630533E+03  0.00000000000E+00 0. -1.
         13    1    3    3    0    0  0.37302189393E+02  0.57682574268E+01  0.26281663687E+03  0.26551329673E+03  0.00000000000E+00 0. -1.
        -14    1    3    3    0    0 -0.93362156991E+01  0.18488245568E+01 -0.14576473465E+01  0.96284895808E+01  0.00000000000E+00 0.  1.
          5    1    4    4  501    0  0.21879215047E+02  0.25360150549E+02  0.55249643081E+03  0.55352652669E+03  0.41800000000E+01 0. -1.
         -5    1    4    4    0  501 -0.30135318324E+02  0.83958231191E+02  0.23618452036E+03  0.25250291494E+03  0.41800000000E+01 0. -1.
</event>
<event>
11    1  0.8453735E-009  0.1340404E+03  0.7561462E-02  0.1114402E+00
         22   -1    0    0    0    0  0.00000000000E+00  0.00000000000E+00  0.20992820507E+03  0.20992820507E+03  0.00000000000E+00 0.  1.
         22   -1    0    0    0    0 -0.00000000000E+00 -0.00000000000E+00 -0.55246404851E+03  0.55246404851E+03  0.00000000000E+00 0. -1.
        -24    2    1    2    0    0 -0.14904052611E+02 -0.25395663533E+02 -0.44311902340E+03  0.45187669469E+03  0.83492561318E+02 0.  0.
         25    2    1    2    0    0  0.11831752974E+01  0.68724759738E+02 -0.35057373968E+02  0.14697348486E+03  0.12509074018E+03 0.  0.
         24    2    1    2    0    0  0.13720877314E+02 -0.43329096205E+02  0.13564055392E+03  0.16354207403E+03  0.79258924149E+02 0.  0.
        -11    1    5    5    0    0  0.14692138953E+02 -0.53800611028E+02  0.14107908548E+03  0.15170258091E+03  0.00000000000E+00 0.  1.
         12    1    5    5    0    0 -0.97126163890E+00  0.10471514823E+02 -0.54385315585E+01  0.11839493121E+02  0.00000000000E+00 0. -1.
         11    1    3    3    0    0 -0.46652522135E+02  0.22348731626E+00 -0.20086795014E+03  0.20621455129E+03  0.00000000000E+00 0. -1.
        -12    1    3    3    0    0  0.31748469524E+02 -0.25619150849E+02 -0.24225107326E+03  0.24566214340E+03  0.00000000000E+00 0.  1.
          5    1    4    4  501    0  0.41210287285E+01  0.70184098358E+02  0.33654161346E+02  0.78056809543E+02  0.41800000000E+01 0. -1.
         -5    1    4    4    0  501 -0.29378534311E+01 -0.14593386196E+01 -0.68711535315E+02  0.68916675321E+02  0.41800000000E+01 0. -1.
</event>
<event>
11    1  0.8453735E-009  0.1613238E+03  0.7561462E-02  0.1085839E+00
         22   -1    0    0    0    0  0.00000000000E+00  0.00000000000E+00  0.82026775198E+03  0.82026775198E+03  0.00000000000E+00 0.  1.
         22   -1    0    0    0    0 -0.00000000000E+00 -0.00000000000E+00 -0.16815973240E+03  0.16815973240E+03  0.00000000000E+00 0. -1.
        -24    2    1    2    0    0  0.89341601685E+02  0.46465594570E+02 -0.99261090603E+02  0.16430002909E+03  0.83670557429E+02 0.  0.
         25    2    1    2    0    0 -0.10835319720E+03 -0.28457605473E+02  0.18355952196E+03  0.24878031074E+03  0.12508914524E+03 0.  0.
         24    2    1    2    0    0  0.19011595517E+02 -0.18007989097E+02  0.56780958823E+03  0.57534714455E+03  0.89055487365E+02 0.  0.
        -13    1    5    5    0    0  0.48297696658E+02 -0.23531988503E+02  0.47099555599E+03  0.47404982412E+03  0.00000000000E+00 0.  1.
         14    1    5    5    0    0 -0.29286101141E+02  0.55239994058E+01  0.96814032238E+02  0.10129732044E+03  0.00000000000E+00 0. -1.
         13    1    3    3    0    0  0.89447245301E+02  0.51462655347E+02 -0.11098915338E+03  0.15155133373E+03  0.00000000000E+00 0. -1.
        -14    1    3    3    0    0 -0.10564361568E+00 -0.49970607763E+01  0.11728062774E+02  0.12748695361E+02  0.00000000000E+00 0.  1.
          5    1    4    4  501    0 -0.10870686840E+03 -0.60170005628E+02  0.10078494431E+03  0.16003965201E+03  0.41800000000E+01 0.  1.
         -5    1    4    4    0  501  0.35367119934E+00  0.31712400155E+02  0.82774577652E+02  0.88740658733E+02  0.41800000000E+01 0.  1.
</event>
<event>
11    1  0.8453735E-009  0.1262701E+03  0.7561462E-02  0.1123939E+00
         22   -1    0    0    0    0  0.00000000000E+00  0.00000000000E+00  0.21196967483E+04  0.21196967483E+04  0.00000000000E+00 0. -1.
         22   -1    0    0    0    0 -0.00000000000E+00 -0.00000000000E+00 -0.50552739963E+02  0.50552739963E+02  0.00000000000E+00 0. -1.
        -24    2    1    2    0    0 -0.15791948221E+02 -0.11135357955E+02  0.25371770825E+01  0.76380051030E+02  0.73851832085E+02 0.  0.
         25    2    1    2    0    0 -0.16530158991E+01  0.50166739444E+01  0.29633739139E+03  0.32170196623E+03  0.12509358922E+03 0.  0.
         24    2    1    2    0    0  0.17444964120E+02  0.61186840105E+01  0.17702694398E+04  0.17721674710E+04  0.79886735322E+02 0.  0.
        -13    1    5    5    0    0  0.73733721790E+01  0.83727242164E+01  0.32393418872E+02  0.34260804344E+02  0.00000000000E+00 0.  1.
         14    1    5    5    0    0  0.10071591941E+02 -0.22540402059E+01  0.17378760210E+04  0.17379066666E+04  0.00000000000E+00 0. -1.
         13    1    3    3    0    0 -0.28106877468E+02 -0.36917125090E+02 -0.54361939806E+01  0.46716409225E+02  0.00000000000E+00 0. -1.
        -14    1    3    3    0    0  0.12314929247E+02  0.25781767135E+02  0.79733710631E+01  0.29663641804E+02  0.00000000000E+00 0.  1.
          5    1    4    4  501    0  0.37098590291E+02 -0.46047512589E+02  0.11609689660E+03  0.13035582310E+03  0.41800000000E+01 0.  1.
         -5    1    4    4    0  501 -0.38751606190E+02  0.51064186533E+02  0.18024049479E+03  0.19134614313E+03  0.41800000000E+01 0.  1.
</event>
<event>
11    1  0.8453735E-009  0.1659786E+03  0.7561462E-02  0.1081585E+00
         22   -1    0    0    0    0  0.00000000000E+00  0.00000000000E+00  0.10886396997E+04  0.10886396997E+04  0.00000000000E+00 0. -1.
         22   -1    0    0    0    0 -0.00000000000E+00 -0.00000000000E+00 -0.42896150419E+03  0.42896150419E+03  0.00000000000E+00 0.  1.
        -24    2    1    2    0    0 -0.48667068849E+02 -0.31216016376E+02 -0.39620172105E+03  0.40847455725E+03  0.80825348091E+02 0.  0.
         25    2    1    2    0    0  0.12992482397E+03  0.80286681224E+02  0.46472251614E+03  0.50491675439E+03  0.12508997077E+03 0.  0.
         24    2    1    2    0    0 -0.81257755119E+02 -0.49070664848E+02  0.59115740043E+03  0.60420989226E+03  0.81189709376E+02 0.  0.
        -13    1    5    5    0    0  0.57663371621E+01 -0.11589250053E+02  0.13021710503E+02  0.18360999578E+02  0.00000000000E+00 0.  1.
         14    1    5    5    0    0 -0.87024092282E+02 -0.37481414795E+02  0.57813568993E+03  0.58584889268E+03  0.00000000000E+00 0. -1.
         13    1    3    3    0    0 -0.66925330109E+01  0.24624008829E+02 -0.61922335233E+02  0.66973930821E+02  0.00000000000E+00 0. -1.
        -14    1    3    3    0    0 -0.41974535838E+02 -0.55840025204E+02 -0.33427938581E+03  0.34150062643E+03  0.00000000000E+00 0.  1.
          5    1    4    4  501    0  0.84330863234E+02  0.87785562849E+02  0.18581775421E+03  0.22217945387E+03  0.41800000000E+01 0. -1.
         -5    1    4    4    0  501  0.45593960735E+02 -0.74988816255E+01  0.27890476193E+03  0.28273730052E+03  0.41800000000E+01 0. -1.
</event>
<event>
11    1  0.8453735E-009  0.1348363E+03  0.7561462E-02  0.1113465E+00
         22   -1    0    0    0    0  0.00000000000E+00  0.00000000000E+00  0.28755895946E+04  0.28755895946E+04  0.00000000000E+00 0.  1.
         22   -1    0    0    0    0 -0.00000000000E+00 -0.00000000000E+00 -0.34077739978E+03  0.34077739978E+03  0.00000000000E+00 0.  1.
        -24    2    1    2    0    0  0.26999764022E+01 -0.93971927622E+01 -0.32423855904E+03  0.33413164137E+03  0.80110632844E+02 0.  0.
         25    2    1    2    0    0 -0.43494417869E+02  0.37892487393E+02  0.43181963344E+03  0.45325820736E+03  0.12508877540E+03 0.  0.
         24    2    1    2    0    0  0.40794441466E+02 -0.28495294631E+02  0.24272311204E+04  0.24289771456E+04  0.77478344217E+02 0.  0.
        -11    1    5    5    0    0  0.34420061271E+02 -0.50587577615E+02  0.12259289340E+04  0.12274549258E+04  0.00000000000E+00 0.  1.
         12    1    5    5    0    0  0.63743801953E+01  0.22092282984E+02  0.12013021864E+04  0.12015222198E+04  0.00000000000E+00 0. -1.
         13    1    3    3    0    0 -0.90121035364E+01 -0.12102303061E+02 -0.69454659863E+01  0.16610937580E+02  0.00000000000E+00 0. -1.
        -14    1    3    3    0    0  0.11712079939E+02  0.27051102986E+01 -0.31729309305E+03  0.31752070379E+03  0.00000000000E+00 0.  1.
          5    1    4    4  501    0  0.25407318676E+02 -0.16631097519E+02  0.33779643096E+02  0.45614273366E+02  0.41800000000E+01 0. -1.
         -5    1    4    4    0  501 -0.68901736545E+02  0.54523584912E+02  0.39803999035E+03  0.40764393400E+03  0.41800000000E+01 0. -1.
</event>
<event>
11    1  0.8453735E-009  0.1277931E+03  0.7561462E-02  0.1122011E+00
         22   -1    0    0    0    0  0.00000000000E+00  0.00000000000E+00  0.26112432182E+03  0.26112432182E+03  0.00000000000E+00 0. -1.
         22   -1    0    0    0    0 -0.00000000000E+00 -0.00000000000E+00 -0.90286560329E+03  0.90286560329E+03  0.00000000000E+00 0. -1.
        -24    2    1    2    0    0 -0.55741163795E+01  0.25561927749E+02 -0.84659029642E+03  0.85110196658E+03  0.83516133748E+02 0.  0.
         25    2    1    2    0    0  0.32675962578E+02 -0.15480273315E+02  0.55177567412E+02  0.14143150977E+03  0.12510375940E+03 0.  0.
         24    2    1    2    0    0 -0.27101846198E+02 -0.10081654434E+02  0.14967144754E+03  0.17145644878E+03  0.78483258056E+02 0.  0.
        -13    1    5    5    0    0  0.38881866014E+01 -0.51506661506E+00 -0.88346797076E+01  0.96661706069E+01  0.00000000000E+00 0.  1.
         14    1    5    5    0    0 -0.30990032799E+02 -0.95665878190E+01  0.15850612725E+03  0.16179027817E+03  0.00000000000E+00 0. -1.
         13    1    3    3    0    0  0.19573033806E+02  0.36255337605E+02 -0.73719033515E+03  0.73834080437E+03  0.00000000000E+00 0. -1.
        -14    1    3    3    0    0 -0.25147150186E+02 -0.10693409856E+02 -0.10939996127E+03  0.11276116220E+03  0.00000000000E+00 0.  1.
          5    1    4    4  501    0  0.52424017154E+02  0.17968848253E+02 -0.18050762514E+02  0.58433376673E+02  0.41800000000E+01 0. -1.
         -5    1    4    4    0  501 -0.19748054576E+02 -0.33449121568E+02  0.73228329926E+02  0.82998133093E+02  0.41800000000E+01 0. -1.
</event>
<event>
11    1  0.8453735E-009  0.1324102E+03  0.7561462E-02  0.1116343E+00
         22   -1    0    0    0    0  0.00000000000E+00  0.00000000000E+00  0.10956648366E+04  0.10956648366E+04  0.00000000000E+00 0.  1.
         22   -1    0    0    0    0 -0.00000000000E+00 -0.00000000000E+00 -0.42264360605E+03  0.42264360605E+03  0.00000000000E+00 0. -1.
         24    2    1    2    0    0  0.13550407286E+02  0.41674224151E+02 -0.40209477822E+03  0.41242642475E+03  0.80591504903E+02 0.  0.
         25    2    1    2    0    0 -0.16635636436E+02 -0.14210616590E+02  0.30114838146E+03  0.32682814589E+03  0.12509038040E+03 0.  0.
        -24    2    1    2    0    0  0.30852291496E+01 -0.27463607561E+02  0.77396762733E+03  0.77905387203E+03  0.84470580597E+02 0.  0.
        -13    1    3    3    0    0 -0.27979787902E+02 -0.53447466950E+01 -0.10615642463E+03  0.10991187988E+03  0.00000000000E+00 0.  1.
         14    1    3    3    0    0  0.41530195188E+02  0.47018970846E+02 -0.29593835360E+03  0.30251454488E+03  0.00000000000E+00 0. -1.
         11    1    5    5    0    0  0.22178610909E+02  0.27587557013E+01  0.57437292935E+02  0.61632330270E+02  0.00000000000E+00 0. -1.
        -12    1    5    5    0    0 -0.19093381759E+02 -0.30222363262E+02  0.71653033440E+03  0.71742154176E+03  0.00000000000E+00 0.  1.
          5    1    4    4  501    0  0.18780861249E+02 -0.54417750715E+02  0.76450346979E+02  0.95792172412E+02  0.41800000000E+01 0.  1.
         -5    1    4    4    0  501 -0.35416497685E+02  0.40207134125E+02  0.22469803448E+03  0.23103597348E+03  0.41800000000E+01 0.  1.
</event>
<event>
11    1  0.8453735E-009  0.1846981E+03  0.7561462E-02  0.1065905E+00
         22   -1    0    0    0    0  0.00000000000E+00  0.00000000000E+00  0.36775080399E+04  0.36775080399E+04  0.00000000000E+00 0. -1.
         22   -1    0    0    0    0 -0.00000000000E+00 -0.00000000000E+00 -0.38931799246E+03  0.38931799246E+03  0.00000000000E+00 0.  1.
        -24    2    1    2    0    0  0.72313185949E+02  0.11518815622E+03 -0.36339148945E+03  0.39626680030E+03  0.80476668803E+02 0.  0.
         25    2    1    2    0    0 -0.62563109189E+02 -0.11483209104E+03  0.91686888129E+03  0.93455388865E+03  0.12506747599E+03 0.  0.
         24    2    1    2    0    0 -0.97500767600E+01 -0.35606517628E+00  0.27347126556E+04  0.27360053434E+04  0.83526879918E+02 0.  0.
        -11    1    5    5    0    0  0.21236233661E+02 -0.76867683523E+01  0.23342452333E+03  0.23451454564E+03  0.00000000000E+00 0.  1.
         12    1    5    5    0    0 -0.30986310421E+02  0.73307031760E+01  0.25012881323E+04  0.25014907978E+04  0.00000000000E+00 0. -1.
         13    1    3    3    0    0  0.98481979694E+01  0.10854114982E+02 -0.17890816043E+01  0.14764810472E+02  0.00000000000E+00 0. -1.
        -14    1    3    3    0    0  0.62464987980E+02  0.10433404123E+03 -0.36160240785E+03  0.38150198983E+03  0.00000000000E+00 0.  1.
          5    1    4    4  501    0 -0.80968360389E+02 -0.47893018103E+02  0.71203779192E+03  0.71823736055E+03  0.41800000000E+01 0.  1.
         -5    1    4    4    0  501  0.18405251199E+02 -0.66939072936E+02  0.20483108937E+03  0.21631652810E+03  0.41800000000E+01 0.  1.
</event>
<event>
11    1  0.8453735E-009  0.1411962E+03  0.7561462E-02  0.1106230E+00
         22   -1    0    0    0    0  0.00000000000E+00  0.00000000000E+00  0.40022344253E+03  0.40022344253E+03  0.00000000000E+00 0.  1.
         22   -1    0    0    0    0 -0.00000000000E+00 -0.00000000000E+00 -0.56687327739E+03  0.56687327739E+03  0.00000000000E+00 0. -1.
         24    2    1    2    0    0  0.37410608796E+02  0.26160872604E+02 -0.46217384044E+03  0.47127056857E+03  0.80045893788E+02 0.  0.
         25    2    1    2    0    0  0.78753194507E+01  0.26274766446E+02 -0.46765256297E+02  0.13633310607E+03  0.12508933850E+03 0.  0.
        -24    2    1    2    0    0 -0.45285928246E+02 -0.52435639050E+02  0.34228926187E+03  0.35949304529E+03  0.85281881294E+02 0.  0.
        -13    1    3    3    0    0  0.99344615263E+01  0.40841185861E+02 -0.11057279577E+03  0.11829217705E+03  0.00000000000E+00 0.  1.
         14    1    3    3    0    0  0.27476147269E+02 -0.14680313257E+02 -0.35160104467E+03  0.35297839152E+03  0.00000000000E+00 0. -1.
         11    1    5    5    0    0  0.15215995421E+02  0.12414754431E+02  0.41706528518E+02  0.46098667717E+02  0.00000000000E+00 0. -1.
        -12    1    5    5    0    0 -0.60501923668E+02 -0.64850393481E+02  0.30058273335E+03  0.31339437757E+03  0.00000000000E+00 0.  1.
          5    1    4    4  501    0  0.41595555776E+02  0.46068728434E+01 -0.75784527121E+02  0.86672835933E+02  0.41800000000E+01 0.  1.
         -5    1    4    4    0  501 -0.33720236326E+02  0.21667893602E+02  0.29019270824E+02  0.49660270138E+02  0.41800000000E+01 0.  1.
</event>
<event>
11    1  0.8453735E-009  0.1376527E+03  0.7561462E-02  0.1110208E+00
         22   -1    0    0    0    0  0.00000000000E+00  0.00000000000E+00  0.59690007325E+03  0.59690007325E+03  0.00000000000E+00 0. -1.
         22   -1    0    0    0    0 -0.00000000000E+00 -0.00000000000E+00 -0.14395504112E+03  0.14395504112E+03  0.00000000000E+00 0.  1.
         24    2    1    2    0    0 -0.26777667031E+02 -0.29157377408E+02 -0.96343367590E+02  0.13083711298E+03  0.79177708636E+02 0.  0.
         25    2    1    2    0    0 -0.31393877711E+02 -0.24333547501E+01  0.15612266598E+03  0.20252108053E+03  0.12509598096E+03 0.  0.
        -24    2    1    2    0    0  0.58171544741E+02  0.31590732158E+02  0.39316573374E+03  0.40749692086E+03  0.84217239012E+02 0.  0.
        -11    1    3    3    0    0 -0.48219817013E+02 -0.28999120612E+02 -0.93611664641E+02  0.10922107629E+03  0.00000000000E+00 0.  1.
         12    1    3    3    0    0  0.21442149982E+02 -0.15825679581E+00 -0.27317029489E+01  0.21616036688E+02  0.00000000000E+00 0. -1.
         13    1    5    5    0    0  0.68474986074E+02  0.15497980274E+02  0.17591177178E+03  0.18940423058E+03  0.00000000000E+00 0. -1.
        -14    1    5    5    0    0 -0.10303441333E+02  0.16092751884E+02  0.21725396196E+03  0.21809269028E+03  0.00000000000E+00 0.  1.
          5    1    4    4  501    0  0.29602307812E+02  0.36069098174E+02  0.25731445597E+02  0.53449566541E+02  0.41800000000E+01 0.  1.
         -5    1    4    4    0  501 -0.60996185523E+02 -0.38502452924E+02  0.13039122038E+03  0.14907151399E+03  0.41800000000E+01 0.  1.
</event>
<event>
11    1  0.8453735E-009  0.1374532E+03  0.7561462E-02  0.1110436E+00
         22   -1    0    0    0    0  0.00000000000E+00  0.00000000000E+00  0.69171185062E+03  0.69171185062E+03  0.00000000000E+00 0. -1.
         22   -1    0    0    0    0 -0.00000000000E+00 -0.00000000000E+00 -0.10000006890E+03  0.10000006890E+03  0.00000000000E+00 0. -1.
        -24    2    1    2    0    0 -0.22526987075E+02  0.51938063075E+02 -0.25744943040E+02  0.10135819380E+03  0.80035328545E+02 0.  0.
         25    2    1    2    0    0 -0.12647557366E+02 -0.66527209669E+02  0.12390250567E+03  0.18863852048E+03  0.12508729017E+03 0.  0.
         24    2    1    2    0    0  0.35174544441E+02  0.14589146594E+02  0.49355421909E+03  0.50171520525E+03  0.81684075683E+02 0.  0.
        -11    1    5    5    0    0 -0.13389510837E+02 -0.13177472477E+02  0.34660618036E+02  0.39424398841E+02  0.00000000000E+00 0.  1.
         12    1    5    5    0    0  0.48564055279E+02  0.27766619071E+02  0.45889360106E+03  0.46229080641E+03  0.00000000000E+00 0. -1.
         13    1    3    3    0    0 -0.34159494901E+02 -0.39014816475E+01 -0.27902414009E+02  0.44279084887E+02  0.00000000000E+00 0. -1.
        -14    1    3    3    0    0  0.11632507826E+02  0.55839544722E+02  0.21574709692E+01  0.57079108911E+02  0.00000000000E+00 0.  1.
          5    1    4    4  501    0  0.28282613009E+02  0.26811799147E+02  0.45020368969E+02  0.59691580597E+02  0.41800000000E+01 0. -1.
         -5    1    4    4    0  501 -0.40930170375E+02 -0.93339008815E+02  0.78882136702E+02  0.12894693988E+03  0.41800000000E+01 0. -1.
</event>
<event>
11    1  0.8453735E-009  0.2974500E+03  0.7561462E-02  0.1001276E+00
         22   -1    0    0    0    0  0.00000000000E+00  0.00000000000E+00  0.19802047942E+03  0.19802047942E+03  0.00000000000E+00 0. -1.
         22   -1    0    0    0    0 -0.00000000000E+00 -0.00000000000E+00 -0.99883397011E+03  0.99883397011E+03  0.00000000000E+00 0. -1.
        -24    2    1    2    0    0 -0.33138865886E+03  0.37899344986E+02 -0.62207949195E+03  0.71045928505E+03  0.80713678201E+02 0.  0.
         25    2    1    2    0    0  0.16229833048E+03 -0.11324389035E+03 -0.16053124055E+03  0.28387201448E+03  0.12509242436E+03 0.  0.
         24    2    1    2    0    0  0.16909032838E+03  0.75344545366E+02 -0.18202758201E+02  0.20252315000E+03  0.80099601819E+02 0.  0.
        -13    1    5    5    0    0  0.16505710219E+03  0.84637766149E+02 -0.28968063416E+02  0.18774063795E+03  0.00000000000E+00 0.  1.
         14    1    5    5    0    0  0.40332261948E+01 -0.92932207831E+01  0.10765305215E+02  0.14782512048E+02  0.00000000000E+00 0. -1.
         11    1    3    3    0    0 -0.14998316876E+03  0.56529007877E+02 -0.27130154989E+03  0.31511110837E+03  0.00000000000E+00 0. -1.
        -12    1    3    3    0    0 -0.18140549009E+03 -0.18629662892E+02 -0.35077794205E+03  0.39534817668E+03  0.00000000000E+00 0.  1.
          5    1    4    4  501    0  0.20715971679E+02 -0.49726422528E+02  0.81388310910E+01  0.54640475397E+02  0.41800000000E+01 0.  1.
         -5    1    4    4    0  501  0.14158235880E+03 -0.63517467823E+02 -0.16867007164E+03  0.22923153908E+03  0.41800000000E+01 0.  1.
</event>
<event>
11    1  0.8453735E-009  0.1337857E+03  0.7561462E-02  0.1114703E+00
         22   -1    0    0    0    0  0.00000000000E+00  0.00000000000E+00  0.11559973550E+04  0.11559973550E+04  0.00000000000E+00 0.  1.
         22   -1    0    0    0    0 -0.00000000000E+00 -0.00000000000E+00 -0.57078983584E+02  0.57078983584E+02  0.00000000000E+00 0. -1.
         24    2    1    2    0    0  0.38021939811E+02  0.22808821872E+02  0.17385505638E+02  0.93846505607E+02  0.80864086876E+02 0.  0.
         25    2    1    2    0    0 -0.78543635658E+02 -0.84705509837E+01  0.32497579139E+03  0.35706680063E+03  0.12508629894E+03 0.  0.
        -24    2    1    2    0    0  0.40521695847E+02 -0.14338270888E+02  0.75655707443E+03  0.76216303239E+03  0.81647334491E+02 0.  0.
        -13    1    3    3    0    0  0.90719646215E-01  0.23454872889E+02  0.42364909702E+02  0.48424424275E+02  0.00000000000E+00 0.  1.
         14    1    3    3    0    0  0.37931220165E+02 -0.64605101706E+00 -0.24979404065E+02  0.45422081332E+02  0.00000000000E+00 0. -1.
         13    1    5    5    0    0 -0.14593242697E+02  0.17812357715E+02  0.10533748069E+03  0.10782498624E+03  0.00000000000E+00 0. -1.
        -14    1    5    5    0    0  0.55114938545E+02 -0.32150628604E+02  0.65121959373E+03  0.65433804615E+03  0.00000000000E+00 0.  1.
          5    1    4    4  501    0 -0.15974080419E+02 -0.49339520238E+02  0.23170783570E+03  0.23747747899E+03  0.41800000000E+01 0.  1.
         -5    1    4    4    0  501 -0.62569555239E+02  0.40868969255E+02  0.93267955686E+02  0.11958932163E+03  0.41800000000E+01 0.  1.
</event>
<event>
11    1  0.8453735E-009  0.1497544E+03  0.7561462E-02  0.1097130E+00
         22   -1    0    0    0    0  0.00000000000E+00  0.00000000000E+00  0.13407771611E+04  0.13407771611E+04  0.00000000000E+00 0. -1.
         22   -1    0    0    0    0 -0.00000000000E+00 -0.00000000000E+00 -0.10710336503E+04  0.10710336503E+04  0.00000000000E+00 0. -1.
        -24    2    1    2    0    0 -0.26509541416E+02 -0.37385188792E+02 -0.10007358555E+04  0.10050514842E+04  0.80968051326E+02 0.  0.
         25    2    1    2    0    0 -0.33513085873E+02  0.93379102998E+02  0.31684339186E+02  0.16276876437E+03  0.12508792708E+03 0.  0.
         24    2    1    2    0    0  0.60022627289E+02 -0.55993914206E+02  0.12387950271E+04  0.12439905628E+04  0.78494376251E+02 0.  0.
        -11    1    5    5    0    0 -0.70241945163E+00  0.14637137310E+02  0.71569610459E+02  0.73054420283E+02  0.00000000000E+00 0.  1.
         12    1    5    5    0    0  0.60725046741E+02 -0.70631051516E+02  0.11672254166E+04  0.11709361425E+04  0.00000000000E+00 0. -1.
         11    1    3    3    0    0 -0.35166825826E+02 -0.43468858063E+02 -0.98155059797E+03  0.98314181258E+03  0.00000000000E+00 0. -1.
        -12    1    3    3    0    0  0.86572844101E+01  0.60836692710E+01 -0.19185257495E+02  0.21909671616E+02  0.00000000000E+00 0.  1.
          5    1    4    4  501    0  0.44058077696E+02  0.93766805200E+01  0.90900565417E+01  0.46142582023E+02  0.41800000000E+01 0.  1.
         -5    1    4    4    0  501 -0.77571163569E+02  0.84002422478E+02  0.22594282644E+02  0.11662618234E+03  0.41800000000E+01 0.  1.
</event>
<event>
11    1  0.8453735E-009  0.1862445E+03  0.7561462E-02  0.1064701E+00
         22   -1    0    0    0    0  0.00000000000E+00  0.00000000000E+00  0.35269575670E+03  0.35269575670E+03  0.00000000000E+00 0. -1.
         22   -1    0    0    0    0 -0.00000000000E+00 -0.00000000000E+00 -0.63191749501E+03  0.63191749501E+03  0.00000000000E+00 0. -1.
         24    2    1    2    0    0 -0.12495893696E+02 -0.12992356084E+03 -0.34519598161E+03  0.37734622147E+03  0.78699594147E+02 0.  0.
         25    2    1    2    0    0  0.44607722508E+02  0.15123483066E+03 -0.22570711068E+03  0.30241384872E+03  0.12509441703E+03 0.  0.
        -24    2    1    2    0    0 -0.32111828811E+02 -0.21311269816E+02  0.29168135398E+03  0.30485318152E+03  0.79825498767E+02 0.  0.
        -11    1    3    3    0    0  0.16231156664E+02 -0.21811652857E+02 -0.20881727607E+02  0.34281849350E+02  0.00000000000E+00 0.  1.
         12    1    3    3    0    0 -0.28727050360E+02 -0.10811190799E+03 -0.32431425400E+03  0.34306437213E+03  0.00000000000E+00 0. -1.
         11    1    5    5    0    0 -0.58510666019E+02 -0.20427462001E+02  0.19360419901E+03  0.20328149231E+03  0.00000000000E+00 0. -1.
        -12    1    5    5    0    0  0.26398837207E+02 -0.88380781495E+00  0.98077154967E+02  0.10157168921E+03  0.00000000000E+00 0.  1.
          5    1    4    4  501    0  0.28732584053E+02  0.14975393900E+03 -0.11642570842E+03  0.19189638250E+03  0.41800000000E+01 0. -1.
         -5    1    4    4    0  501  0.15875138454E+02  0.14808916576E+01 -0.10928140225E+03  0.11051746622E+03  0.41800000000E+01 0. -1.
</event>
<event>
11    1  0.8453735E-009  0.1747795E+03  0.7561462E-02  0.1073946E+00
         22   -1    0    0    0    0  0.00000000000E+00  0.00000000000E+00  0.11719090850E+04  0.11719090850E+04  0.00000000000E+00 0. -1.
         22   -1    0    0    0    0 -0.00000000000E+00 -0.00000000000E+00 -0.88426382858E+03  0.88426382858E+03  0.00000000000E+00 0.  1.
         24    2    1    2    0    0  0.11244390729E+03 -0.52581447419E+02 -0.78022550067E+03  0.79417541508E+03  0.80958737202E+02 0.  0.
         25    2    1    2    0    0 -0.10028946054E+03  0.25832673900E+02 -0.26209070908E+02  0.16447702597E+03  0.12506187964E+03 0.  0.
        -24    2    1    2    0    0 -0.12154446747E+02  0.26748773519E+02  0.10940798280E+04  0.10975204726E+04  0.81714687481E+02 0.  0.
        -13    1    3    3    0    0  0.92543195723E+02 -0.18701274314E+02 -0.36204982789E+03  0.37415779907E+03  0.00000000000E+00 0.  1.
         14    1    3    3    0    0  0.19900711564E+02 -0.33880173105E+02 -0.41817567278E+03  0.42001761601E+03  0.00000000000E+00 0. -1.
         11    1    5    5    0    0 -0.95242012557E+01  0.13144471267E+02  0.10667986820E+04  0.10669221694E+04  0.00000000000E+00 0. -1.
        -12    1    5    5    0    0 -0.26302454909E+01  0.13604302252E+02  0.27281146002E+02  0.30598303193E+02  0.00000000000E+00 0.  1.
          5    1    4    4  501    0 -0.52573050491E+02  0.59877969898E+02  0.27964919493E+02  0.84550612294E+02  0.41800000000E+01 0. -1.
         -5    1    4    4    0  501 -0.47716410049E+02 -0.34045295998E+02 -0.54173990401E+02  0.79926413679E+02  0.41800000000E+01 0. -1.
</event>
<event>
11    1  0.8453735E-009  0.1591425E+03  0.7561462E-02  0.1087887E+00
         22   -1    0    0    0    0  0.00000000000E+00  0.00000000000E+00  0.75585122050E+03  0.75585122050E+03  0.00000000000E+00 0.  1.
         22   -1    0    0    0    0 -0.00000000000E+00 -0.00000000000E+00 -0.13302603152E+04  0.13302603152E+04  0.00000000000E+00 0.  1.
         24    2    1    2    0    0  0.88660160084E+02  0.34886762479E+02 -0.10083627231E+04  0.10160646026E+04  0.80710501371E+02 0.  0.
         25    2    1    2    0    0 -0.12353181821E+03 -0.57754137634E+01 -0.29052528116E+03  0.33962638969E+03  0.12509068737E+03 0.  0.
        -24    2    1    2    0    0  0.34871658127E+02 -0.29111348715E+02  0.72447890957E+03  0.73042054344E+03  0.81123219263E+02 0.  0.
        -11    1    3    3    0    0  0.24903649683E+02  0.47568310545E+02 -0.30369978759E+03  0.30840962520E+03  0.00000000000E+00 0.  1.
         12    1    3    3    0    0  0.63756510401E+02 -0.12681548066E+02 -0.70466293553E+03  0.70765497736E+03  0.00000000000E+00 0. -1.
         13    1    5    5    0    0 -0.23203698623E+02  0.43407239814E+01  0.12523597658E+03  0.12744137219E+03  0.00000000000E+00 0. -1.
        -14    1    5    5    0    0  0.58075356750E+02 -0.33452072697E+02  0.59924293299E+03  0.60297917126E+03  0.00000000000E+00 0.  1.
          5    1    4    4  501    0 -0.49207066436E+01  0.38801525095E+02 -0.28605968045E+02  0.48636873989E+02  0.41800000000E+01 0. -1.
         -5    1    4    4    0  501 -0.11861111157E+03 -0.44576938858E+02 -0.26191931312E+03  0.29098951570E+03  0.41800000000E+01 0. -1.
</event>
<event>
11    1  0.8453735E-009  0.1994428E+03  0.7561462E-02  0.1054918E+00
         22   -1    0    0    0    0  0.00000000000E+00  0.00000000000E+00  0.48249044370E+03  0.48249044370E+03  0.00000000000E+00 0. -1.
         22   -1    0    0    0    0 -0.00000000000E+00 -0.00000000000E+00 -0.43159000196E+03  0.43159000196E+03  0.00000000000E+00 0.  1.
         24    2    1    2    0    0 -0.15023594233E+03 -0.53035466145E+02 -0.31508860907E+03  0.36216613502E+03  0.80621825525E+02 0.  0.
         25    2    1    2    0    0  0.15716267380E+03 -0.82896076767E+02  0.92927306223E+02  0.23633570375E+03  0.12508882862E+03 0.  0.
        -24    2    1    2    0    0 -0.69267314664E+01  0.13593154291E+03  0.27306174459E+03  0.31557860689E+03  0.80633596000E+02 0.  0.
        -11    1    3    3    0    0 -0.92231536609E+02 -0.68376069467E+02 -0.24001743462E+03  0.26606448869E+03  0.00000000000E+00 0.  1.
         12    1    3    3    0    0 -0.58004405723E+02  0.15340603322E+02 -0.75071174452E+02  0.96101646329E+02  0.00000000000E+00 0. -1.
         13    1    5    5    0    0 -0.41228749555E+02  0.10116855821E+03  0.19419613937E+03  0.22281612937E+03  0.00000000000E+00 0. -1.
        -14    1    5    5    0    0  0.34302018088E+02  0.34762984704E+02  0.78865605221E+02  0.92762477529E+02  0.00000000000E+00 0.  1.
          5    1    4    4  501    0  0.16112809805E+03 -0.91970699035E+02  0.11031894964E+03  0.21589028813E+03  0.41800000000E+01 0.  1.
         -5    1    4    4    0  501 -0.39654242478E+01  0.90746222672E+01 -0.17391643419E+02  0.20445415613E+02  0.41800000000E+01 0.  1.
</event>
<event>
11    1  0.8453735E-009  0.1523350E+03  0.7561462E-02  0.1094516E+00
         22   -1    0    0    0    0  0.00000000000E+00  0.00000000000E+00  0.54339758887E+03  0.54339758887E+03  0.00000000000E+00 0.  1.
         22   -1    0    0    0    0 -0.00000000000E+00 -0.00000000000E+00 -0.68255393232E+03  0.68255393232E+03  0.00000000000E+00 0. -1.
        -24    2    1    2    0    0 -0.33048452044E+02  0.24186968538E+01 -0.59877417084E+03  0.60539828451E+03  0.82936873293E+02 0.  0.
         25    2    1    2    0    0  0.10993421736E+03  0.31628817096E+02  0.26243124296E+02  0.17152635875E+03  0.12508667377E+03 0.  0.
         24    2    1    2    0    0 -0.76885765318E+02 -0.34047513950E+02  0.43337470309E+03  0.44902687792E+03  0.82102677804E+02 0.  0.
        -11    1    5    5    0    0 -0.52459280863E+02  0.65093985985E+01  0.34253316333E+03  0.34658810770E+03  0.00000000000E+00 0.  1.
         12    1    5    5    0    0 -0.24426484454E+02 -0.40556912549E+02  0.90841539761E+02  0.10243877022E+03  0.00000000000E+00 0. -1.
         11    1    3    3    0    0 -0.18424537306E+02 -0.12393058658E+01 -0.58399718259E+03  0.58428906264E+03  0.00000000000E+00 0. -1.
        -12    1    3    3    0    0 -0.14623914739E+02  0.36580027195E+01 -0.14776988248E+02  0.21109221868E+02  0.00000000000E+00 0.  1.
          5    1    4    4  501    0  0.13735724966E+03  0.21018840513E+02  0.15230735778E+02  0.13985082554E+03  0.41800000000E+01 0.  1.
         -5    1    4    4    0  501 -0.27423032299E+02  0.10609976584E+02  0.11012388518E+02  0.31675533214E+02  0.41800000000E+01 0.  1.
</event>
<event>
11    1  0.8453735E-009  0.1636745E+03  0.7561462E-02  0.1083671E+00
         22   -1    0    0    0    0  0.00000000000E+00  0.00000000000E+00  0.64279440787E+03  0.64279440787E+03  0.00000000000E+00 0.  1.
         22   -1    0    0    0    0 -0.00000000000E+00 -0.00000000000E+00 -0.17923114958E+03  0.17923114958E+03  0.00000000000E+00 0.  1.
        -24    2    1    2    0    0 -0.93143637064E+02 -0.39744925864E+02 -0.10860538697E+03  0.16848234373E+03  0.79597574162E+02 0.  0.
         25    2    1    2    0    0  0.12100147284E+03  0.77641134182E+02  0.21958604858E+03  0.29075043237E+03  0.12509308152E+03 0.  0.
         24    2    1    2    0    0 -0.27857835774E+02 -0.37896208318E+02  0.35258259668E+03  0.36279278135E+03  0.71357782346E+02 0.  0.
        -13    1    5    5    0    0 -0.92116924674E+01 -0.48314592715E+02  0.32048935453E+03  0.32424154810E+03  0.00000000000E+00 0.  1.
         14    1    5    5    0    0 -0.18646143306E+02  0.10418384397E+02  0.32093242153E+02  0.38551233256E+02  0.00000000000E+00 0. -1.
         11    1    3    3    0    0 -0.25313851962E+02  0.77958787373E+01  0.59214133948E+01  0.27140927822E+02  0.00000000000E+00 0. -1.
        -12    1    3    3    0    0 -0.67829785101E+02 -0.47540804602E+02 -0.11452680036E+03  0.14134141591E+03  0.00000000000E+00 0.  1.
          5    1    4    4  501    0  0.26807086678E+02 -0.24387011953E+02  0.10339633628E+03  0.10964315302E+03  0.41800000000E+01 0.  1.
         -5    1    4    4    0  501  0.94194386159E+02  0.10202814614E+03  0.11618971230E+03  0.18110727934E+03  0.41800000000E+01 0.  1.
</event>
<event>
11    1  0.8453735E-009  0.1301444E+03  0.7561462E-02  0.1119092E+00
         22   -1    0    0    0    0  0.00000000000E+00  0.00000000000E+00  0.22687882179E+03  0.22687882179E+03  0.00000000000E+00 0. -1.
         22   -1    0    0    0    0 -0.00000000000E+00 -0.00000000000E+00 -0.98303084398E+03  0.98303084398E+03  0.00000000000E+00 0.  1.
        -24    2    1    2    0    0  0.14194650474E+02 -0.22396970095E+02 -0.77120064183E+03  0.77589899929E+03  0.81029098246E+02 0.  0.
         25    2    1    2    0    0 -0.49389525685E+02  0.24126851789E+02 -0.17702825661E+03  0.22362455891E+03  0.12509000554E+03 0.  0.
         24    2    1    2    0    0  0.35194875210E+02 -0.17298816947E+01  0.19207687625E+03  0.21038610757E+03  0.78275897556E+02 0.  0.
        -13    1    5    5    0    0  0.34393287643E+02  0.47712964473E+01  0.24065375412E+02  0.42246962002E+02  0.00000000000E+00 0.  1.
         14    1    5    5    0    0  0.80158756792E+00 -0.65011781420E+01  0.16801150084E+03  0.16813914557E+03  0.00000000000E+00 0. -1.
         13    1    3    3    0    0 -0.47882840015E+01  0.27364218086E+02 -0.16105424088E+03  0.16343254450E+03  0.00000000000E+00 0. -1.
        -14    1    3    3    0    0  0.18982934476E+02 -0.49761188180E+02 -0.61014640095E+03  0.61246645479E+03  0.00000000000E+00 0.  1.
          5    1    4    4  501    0 -0.17559665519E+02 -0.10843630700E+02  0.14975596515E+02  0.25839254457E+02  0.41800000000E+01 0. -1.
         -5    1    4    4    0  501 -0.31829860165E+02  0.34970482490E+02 -0.19200385312E+03  0.19778530446E+03  0.41800000000E+01 0. -1.
</event>
<event>
11    1  0.8453735E-009  0.1522298E+03  0.7561462E-02  0.1094622E+00
         22   -1    0    0    0    0  0.00000000000E+00  0.00000000000E+00  0.17206512133E+03  0.17206512133E+03  0.00000000000E+00 0. -1.
         22   -1    0    0    0    0 -0.00000000000E+00 -0.00000000000E+00 -0.48325223960E+03  0.48325223960E+03  0.00000000000E+00 0.  1.
         24    2    1    2    0    0 -0.56385561506E+02 -0.36134920069E+02 -0.18812331695E+03  0.21531206084E+03  0.80522277462E+02 0.  0.
         25    2    1    2    0    0  0.10974758080E+03  0.75708215951E+02 -0.22938217493E+03  0.29332551560E+03  0.12508960976E+03 0.  0.
        -24    2    1    2    0    0 -0.53362019298E+02 -0.39573295882E+02  0.10631837361E+03  0.14667978449E+03  0.76143363219E+02 0.  0.
        -13    1    3    3    0    0 -0.47312895034E+02 -0.34956521105E+02 -0.19511983226E+03  0.20379454689E+03  0.00000000000E+00 0.  1.
         14    1    3    3    0    0 -0.90726664724E+01 -0.11783989643E+01  0.69965153060E+01  0.11517513945E+02  0.00000000000E+00 0. -1.
         11    1    5    5    0    0 -0.45357438187E+02 -0.61142388891E+02  0.92664749094E+02  0.11992683037E+03  0.00000000000E+00 0. -1.
        -12    1    5    5    0    0 -0.80045811105E+01  0.21569093009E+02  0.13653624514E+02  0.26752954124E+02  0.00000000000E+00 0.  1.
          5    1    4    4  501    0  0.64308393220E+01 -0.28678561618E+02 -0.72705170301E+02  0.78532348617E+02  0.41800000000E+01 0.  1.
         -5    1    4    4    0  501  0.10331674148E+03  0.10438677757E+03 -0.15667700463E+03  0.21479316698E+03  0.41800000000E+01 0.  1.
</event>
<event>
11    1  0.8453735E-009  0.1381449E+03  0.7561462E-02  0.1109648E+00
         22   -1    0    0    0    0  0.00000000000E+00  0.00000000000E+00  0.45302328983E+03  0.45302328983E+03  0.00000000000E+00 0. -1.
         22   -1    0    0    0    0 -0.00000000000E+00 -0.00000000000E+00 -0.84134797719E+03  0.84134797719E+03  0.00000000000E+00 0.  1.
         24    2    1    2    0    0  0.57724925267E+02 -0.19092201928E+02 -0.76185100148E+03  0.76831645949E+03  0.78718195519E+02 0.  0.
         25    2    1    2    0    0 -0.16988432173E+02  0.13575516761E+02 -0.14468595950E+02  0.12778834570E+03  0.12509044546E+03 0.  0.
        -24    2    1    2    0    0 -0.40736493095E+02  0.55166851675E+01  0.38799491006E+03  0.39826646182E+03  0.79913882982E+02 0.  0.
        -13    1    3    3    0    0  0.43530156018E+02 -0.14625058703E+02 -0.74243430867E+03  0.74385312362E+03  0.00000000000E+00 0.  1.
         14    1    3    3    0    0  0.14194769249E+02 -0.44671432254E+01 -0.19416692807E+02  0.24463335876E+02  0.00000000000E+00 0. -1.
         13    1    5    5    0    0 -0.47418285755E+02  0.28982773568E+02  0.33908074251E+03  0.34360478013E+03  0.00000000000E+00 0. -1.
        -14    1    5    5    0    0  0.66817926600E+01 -0.23466088400E+02  0.48914167550E+02  0.54661681689E+02  0.00000000000E+00 0.  1.
          5    1    4    4  501    0  0.30238786996E+02  0.26462525627E+02 -0.52080310513E+02  0.65912674386E+02  0.41800000000E+01 0. -1.
         -5    1    4    4    0  501 -0.47227219169E+02 -0.12887008866E+02  0.37611714563E+02  0.61875671312E+02  0.41800000000E+01 0. -1.
</event>
<event>
11    1  0.8453735E-009  0.1381939E+03  0.7561462E-02  0.1109592E+00
         22   -1    0    0    0    0  0.00000000000E+00  0.00000000000E+00  0.18891143167E+03  0.18891143167E+03  0.00000000000E+00 0. -1.
         22   -1    0    0    0    0 -0.00000000000E+00 -0.00000000000E+00 -0.39677339880E+03  0.39677339880E+03  0.00000000000E+00 0.  1.
        -24    2    1    2    0    0 -0.13091289250E+02  0.51813430710E+02 -0.30719930114E+03  0.32111848542E+03  0.76744104656E+02 0.  0.
         25    2    1    2    0    0  0.56558160701E+02 -0.62856371703E-01  0.33026523321E+02  0.14120162083E+03  0.12509323319E+03 0.  0.
         24    2    1    2    0    0 -0.43466871451E+02 -0.51750574338E+02  0.66310810696E+02  0.12336472422E+03  0.79083757550E+02 0.  0.
        -13    1    5    5    0    0 -0.19922180008E+02 -0.70098789089E+02  0.37835724612E+02  0.82111360632E+02  0.00000000000E+00 0.  1.
         14    1    5    5    0    0 -0.23544691443E+02  0.18348214750E+02  0.28475086084E+02  0.41253363586E+02  0.00000000000E+00 0. -1.
         13    1    3    3    0    0 -0.10283250823E+02  0.20753921679E+01 -0.61013287145E+00  0.10508318717E+02  0.00000000000E+00 0. -1.
        -14    1    3    3    0    0 -0.28080384271E+01  0.49738038542E+02 -0.30658916827E+03  0.31061016670E+03  0.00000000000E+00 0.  1.
          5    1    4    4  501    0  0.60962469369E+02 -0.28137890913E+02 -0.28684545656E+02  0.73133023567E+02  0.41800000000E+01 0.  1.
         -5    1    4    4    0  501 -0.44043086683E+01  0.28075034541E+02  0.61711068977E+02  0.68068597265E+02  0.41800000000E+01 0.  1.
</event>
<event>
11    1  0.8453735E-009  0.1329039E+03  0.7561462E-02  0.1115752E+00
         22   -1    0    0    0    0  0.00000000000E+00  0.00000000000E+00  0.20011756246E+03  0.20011756246E+03  0.00000000000E+00 0.  1.
         22   -1    0    0    0    0 -0.00000000000E+00 -0.00000000000E+00 -0.78769441492E+03  0.78769441492E+03  0.00000000000E+00 0. -1.
         24    2    1    2    0    0  0.42507226328E+02  0.35295869638E+01 -0.50378576077E+03  0.51202361130E+03  0.80924430792E+02 0.  0.
         25    2    1    2    0    0 -0.55607700186E+02  0.29845037878E+02 -0.25047773838E+03  0.28698593895E+03  0.12505554416E+03 0.  0.
        -24    2    1    2    0    0  0.13100473858E+02 -0.33374624842E+02  0.16668664669E+03  0.18880242712E+03  0.81095192855E+02 0.  0.
        -13    1    3    3    0    0  0.18231188647E+02  0.22386070348E+02 -0.54387226522E+02  0.61575017611E+02  0.00000000000E+00 0.  1.
         14    1    3    3    0    0  0.24276037681E+02 -0.18856483384E+02 -0.44939853425E+03  0.45044859369E+03  0.00000000000E+00 0. -1.
         11    1    5    5    0    0  0.22583264790E+02  0.11346583772E+02  0.12920953356E+02  0.28384852431E+02  0.00000000000E+00 0. -1.
        -12    1    5    5    0    0 -0.94827909323E+01 -0.44721208614E+02  0.15376569333E+03  0.16041757469E+03  0.00000000000E+00 0.  1.
          5    1    4    4  501    0  0.28307044754E+02  0.45809343383E+02 -0.10948938639E+03  0.12208678412E+03  0.41800000000E+01 0. -1.
         -5    1    4    4    0  501 -0.83914744940E+02 -0.15964305505E+02 -0.14098835199E+03  0.16489915484E+03  0.41800000000E+01 0. -1.
</event>
<event>
11    1  0.8453735E-009  0.2443840E+03  0.7561462E-02  0.1026934E+00
         22   -1    0    0    0    0  0.00000000000E+00  0.00000000000E+00  0.10861182747E+04  0.10861182747E+04  0.00000000000E+00 0. -1.
         22   -1    0    0    0    0 -0.00000000000E+00 -0.00000000000E+00 -0.27710517230E+04  0.27710517230E+04  0.00000000000E+00 0.  1.
        -24    2    1    2    0    0 -0.18788909322E+03  0.94888065031E+02 -0.27325669586E+04  0.27418740418E+04  0.81517002888E+02 0.  0.
         25    2    1    2    0    0  0.18155612556E+03  0.34970399408E+02  0.51750141990E+03  0.56359574926E+03  0.12508754304E+03 0.  0.
         24    2    1    2    0    0  0.63329676541E+01 -0.12985846444E+03  0.53013209042E+03  0.55170020653E+03  0.80185767634E+02 0.  0.
        -13    1    5    5    0    0  0.28261675967E+02 -0.19681397512E+02  0.69466305000E+02  0.77534813258E+02  0.00000000000E+00 0.  1.
         14    1    5    5    0    0 -0.21928708313E+02 -0.11017706693E+03  0.46066578542E+03  0.47416539327E+03  0.00000000000E+00 0. -1.
         13    1    3    3    0    0 -0.26565436798E+00 -0.98685570284E+01 -0.77686006109E+02  0.78310756191E+02  0.00000000000E+00 0. -1.
        -14    1    3    3    0    0 -0.18762343885E+03  0.10475662206E+03 -0.26548809525E+04  0.26635632857E+04  0.00000000000E+00 0.  1.
          5    1    4    4  501    0  0.59290486112E+02 -0.30666773881E+02  0.78313838709E+02  0.10298709869E+03  0.41800000000E+01 0. -1.
         -5    1    4    4    0  501  0.12226563945E+03  0.65637173290E+02  0.43918758119E+03  0.46060865057E+03  0.41800000000E+01 0. -1.
</event>
<event>
11    1  0.8453735E-009  0.1570824E+03  0.7561462E-02  0.1089854E+00
         22   -1    0    0    0    0  0.00000000000E+00  0.00000000000E+00  0.37314606660E+03  0.37314606660E+03  0.00000000000E+00 0.  1.
         22   -1    0    0    0    0 -0.00000000000E+00 -0.00000000000E+00 -0.77497658331E+03  0.77497658331E+03  0.00000000000E+00 0. -1.
         24    2    1    2    0    0 -0.86765467467E+02 -0.26286432081E+02 -0.64414798730E+03  0.65528290817E+03  0.79055912729E+02 0.  0.
         25    2    1    2    0    0  0.11979497269E+03 -0.61614781087E+02 -0.36659066436E+02  0.18745676909E+03  0.12509570895E+03 0.  0.
        -24    2    1    2    0    0 -0.33029505219E+02  0.87901213168E+02  0.27897653702E+03  0.30538297266E+03  0.81322077498E+02 0.  0.
        -13    1    3    3    0    0 -0.49994673991E+02  0.10525018558E+02 -0.15123999226E+03  0.15963639529E+03  0.00000000000E+00 0.  1.
         14    1    3    3    0    0 -0.36770793476E+02 -0.36811450639E+02 -0.49290799504E+03  0.49564651287E+03  0.00000000000E+00 0. -1.
         11    1    5    5    0    0 -0.40525195736E+02  0.59431074858E+02  0.95502817289E+02  0.11956225265E+03  0.00000000000E+00 0. -1.
        -12    1    5    5    0    0  0.74956905173E+01  0.28470138310E+02  0.18347371974E+03  0.18582072001E+03  0.00000000000E+00 0.  1.
          5    1    4    4  501    0  0.16657252713E+02  0.77218550483E+01 -0.58277039478E+02  0.61243586143E+02  0.41800000000E+01 0. -1.
         -5    1    4    4    0  501  0.10313771997E+03 -0.69336636135E+02  0.21617973042E+02  0.12621318295E+03  0.41800000000E+01 0. -1.
</event>
<event>
11    1  0.8453735E-009  0.1502345E+03  0.7561462E-02  0.1096639E+00
         22   -1    0    0    0    0  0.00000000000E+00  0.00000000000E+00  0.10775713970E+04  0.10775713970E+04  0.00000000000E+00 0.  1.
         22   -1    0    0    0    0 -0.00000000000E+00 -0.00000000000E+00 -0.28137504111E+03  0.28137504111E+03  0.00000000000E+00 0. -1.
        -24    2    1    2    0    0  0.55163378268E+01 -0.57749558890E+02 -0.24466108740E+03  0.26391199062E+03  0.80156406918E+02 0.  0.
         25    2    1    2    0    0  0.78254915165E+02  0.55754430671E+02  0.24985051277E+03  0.29547399997E+03  0.12508883897E+03 0.  0.
         24    2    1    2    0    0 -0.83771252992E+02  0.19951282185E+01  0.79100693053E+03  0.79956044752E+03  0.81137794724E+02 0.  0.
        -11    1    5    5    0    0 -0.38703927938E+02 -0.23899670045E+02  0.59638962221E+03  0.59812186864E+03  0.00000000000E+00 0.  1.
         12    1    5    5    0    0 -0.45067325055E+02  0.25894798264E+02  0.19461730832E+03  0.20143857889E+03  0.00000000000E+00 0. -1.
         13    1    3    3    0    0  0.58755752646E+01 -0.71359380902E+02 -0.23841220160E+03  0.24893184108E+03  0.00000000000E+00 0. -1.
        -14    1    3    3    0    0 -0.35923743779E+00  0.13609822013E+02 -0.62488858006E+01  0.14980149549E+02  0.00000000000E+00 0.  1.
          5    1    4    4  501    0 -0.27445468620E+02 -0.13433972194E+02  0.40212903159E+02  0.50678154437E+02  0.41800000000E+01 0.  1.
         -5    1    4    4    0  501  0.10570038379E+03  0.69188402865E+02  0.20963760961E+03  0.24479584553E+03  0.41800000000E+01 0.  1.
</event>
<event>
11    1  0.8453735E-009  0.1405526E+03  0.7561462E-02  0.1106943E+00
         22   -1    0    0    0    0  0.00000000000E+00  0.00000000000E+00  0.33901152126E+03  0.33901152126E+03  0.00000000000E+00 0. -1.
         22   -1    0    0    0    0 -0.00000000000E+00 -0.00000000000E+00 -0.15736045573E+04  0.15736045573E+04  0.00000000000E+00 0. -1.
         24    2    1    2    0    0 -0.17901239266E+02  0.20176892170E+02 -0.11617820934E+04  0.11649495877E+04  0.81500601352E+02 0.  0.
         25    2    1    2    0    0  0.16768629438E+01  0.42322725502E+02 -0.39118359117E+03  0.41287530571E+03  0.12508953234E+03 0.  0.
        -24    2    1    2    0    0  0.16224376322E+02 -0.62499617673E+02  0.31837264849E+03  0.33479118518E+03  0.80960248103E+02 0.  0.
        -13    1    3    3    0    0 -0.51059164299E+01  0.30644896440E+02 -0.15768074483E+03  0.16071215682E+03  0.00000000000E+00 0.  1.
         14    1    3    3    0    0 -0.12795322836E+02 -0.10468004270E+02 -0.10041013485E+04  0.10042374309E+04  0.00000000000E+00 0. -1.
         13    1    5    5    0    0  0.21182183460E+01 -0.80049261866E+02  0.26578235262E+03  0.27758355524E+03  0.00000000000E+00 0. -1.
        -14    1    5    5    0    0  0.14106157976E+02  0.17549644193E+02  0.52590295872E+02  0.57207629947E+02  0.00000000000E+00 0.  1.
          5    1    4    4  501    0 -0.53153157007E+02 -0.83717827916E+01 -0.12021269235E+03  0.13177218466E+03  0.41800000000E+01 0.  1.
         -5    1    4    4    0  501  0.54830019951E+02  0.50694508294E+02 -0.27097089882E+03  0.28110312105E+03  0.41800000000E+01 0.  1.
</event>
<event>
11    1  0.8453735E-009  0.1510721E+03  0.7561462E-02  0.1095788E+00
         22   -1    0    0    0    0  0.00000000000E+00  0.00000000000E+00  0.39269757506E+03  0.39269757506E+03  0.00000000000E+00 0. -1.
         22   -1    0    0    0    0 -0.00000000000E+00 -0.00000000000E+00 -0.27469794908E+03  0.27469794908E+03  0.00000000000E+00 0. -1.
         24    2    1    2    0    0 -0.38876995405E+02  0.54361041185E+01 -0.67613181718E+02  0.11262979971E+03  0.81073777763E+02 0.  0.
         25    2    1    2    0    0  0.66102995706E+02 -0.84611932007E+02 -0.13572576727E+03  0.21353705271E+03  0.12509118234E+03 0.  0.
        -24    2    1    2    0    0 -0.27226000301E+02  0.79175827889E+02  0.32133857497E+03  0.34122867173E+03  0.78539543132E+02 0.  0.
        -11    1    3    3    0    0  0.19440819106E+02 -0.17723485722E+02 -0.28021129842E+02  0.38435024538E+02  0.00000000000E+00 0.  1.
         12    1    3    3    0    0 -0.58317814511E+02  0.23159589840E+02 -0.39592051876E+02  0.74194775171E+02  0.00000000000E+00 0. -1.
         13    1    5    5    0    0 -0.41117505956E+02  0.88785081554E+02  0.26991225290E+03  0.28709939789E+03  0.00000000000E+00 0. -1.
        -14    1    5    5    0    0  0.13891505655E+02 -0.96092536651E+01  0.51426322064E+02  0.54129273840E+02  0.00000000000E+00 0.  1.
          5    1    4    4  501    0  0.70853558500E+02 -0.83605299570E+02 -0.15689177382E+03  0.19142250119E+03  0.41800000000E+01 0.  1.
         -5    1    4    4    0  501 -0.47505627945E+01 -0.10066324377E+01  0.21166006550E+02  0.22114551522E+02  0.41800000000E+01 0.  1.
</event>
<event>
11    1  0.8453735E-009  0.1485614E+03  0.7561462E-02  0.1098358E+00
         22   -1    0    0    0    0  0.00000000000E+00  0.00000000000E+00  0.17091979277E+03  0.17091979277E+03  0.00000000000E+00 0.  1.
         22   -1    0    0    0    0 -0.00000000000E+00 -0.00000000000E+00 -0.54346749563E+03  0.54346749563E+03  0.00000000000E+00 0.  1.
        -24    2    1    2    0    0 -0.25267882795E+02 -0.54207611009E+01 -0.30288967371E+03  0.31428592030E+03  0.79784927823E+02 0.  0.
         25    2    1    2    0    0 -0.31477835128E+02 -0.54160137981E+02 -0.18806105125E+03  0.23439016151E+03  0.12509042395E+03 0.  0.
         24    2    1    2    0    0  0.56745717922E+02  0.59580899082E+02  0.11840302210E+03  0.16571120659E+03  0.81675995921E+02 0.  0.
        -13    1    5    5    0    0 -0.50318999202E+01 -0.20067920202E+01  0.61102785511E+02  0.61342461870E+02  0.00000000000E+00 0.  1.
         14    1    5    5    0    0  0.61777617842E+02  0.61587691102E+02  0.57300236586E+02  0.10436874472E+03  0.00000000000E+00 0. -1.
         13    1    3    3    0    0 -0.34352467805E+02  0.16181772953E+02 -0.65261832316E+02  0.75505288407E+02  0.00000000000E+00 0. -1.
        -14    1    3    3    0    0  0.90845850102E+01 -0.21602534054E+02 -0.23762784139E+03  0.23878063189E+03  0.00000000000E+00 0.  1.
          5    1    4    4  501    0 -0.74873860032E+02 -0.55935375945E+02 -0.10548002075E+03  0.14099066769E+03  0.41800000000E+01 0.  1.
         -5    1    4    4    0  501  0.43396024904E+02  0.17752379643E+01 -0.82581030496E+02  0.93399493816E+02  0.41800000000E+01 0.  1.
</event>
<event>
11    1  0.8453735E-009  0.1553227E+03  0.7561462E-02  0.1091561E+00
         22   -1    0    0    0    0  0.00000000000E+00  0.00000000000E+00  0.10501803483E+04  0.10501803483E+04  0.00000000000E+00 0.  1.
         22   -1    0    0    0    0 -0.00000000000E+00 -0.00000000000E+00 -0.16792844891E+03  0.16792844891E+03  0.00000000000E+00 0. -1.
         24    2    1    2    0    0 -0.38213541173E+01 -0.51236297213E+02 -0.90548392747E+02  0.13201803832E+03  0.81178754071E+02 0.  0.
         25    2    1    2    0    0  0.61557863150E+02  0.11903640717E+03  0.10731782068E+03  0.21242235889E+03  0.12508839744E+03 0.  0.
        -24    2    1    2    0    0 -0.57736509033E+02 -0.67800109954E+02  0.86548247148E+03  0.87366840003E+03  0.79411619907E+02 0.  0.
        -13    1    3    3    0    0  0.17104928163E+02 -0.61440753495E+02 -0.37255216668E+02  0.73861329033E+02  0.00000000000E+00 0.  1.
         14    1    3    3    0    0 -0.20926282280E+02  0.10204456283E+02 -0.53293176079E+02  0.58156709283E+02  0.00000000000E+00 0. -1.
         13    1    5    5    0    0 -0.15736627667E+02  0.17338949526E+02  0.13103444980E+03  0.13311013355E+03  0.00000000000E+00 0. -1.
        -14    1    5    5    0    0 -0.41999881366E+02 -0.85139059479E+02  0.73444802169E+03  0.74055826647E+03  0.00000000000E+00 0.  1.
          5    1    4    4  501    0  0.24564928699E+02  0.13522256641E+03  0.59841546463E+02  0.14995686470E+03  0.41800000000E+01 0.  1.
         -5    1    4    4    0  501  0.36992934451E+02 -0.16186159242E+02  0.47476274219E+02  0.62465494187E+02  0.41800000000E+01 0.  1.
</event>
<event>
11    1  0.8453735E-009  0.1432736E+03  0.7561462E-02  0.1103957E+00
         22   -1    0    0    0    0  0.00000000000E+00  0.00000000000E+00  0.42640550233E+03  0.42640550233E+03  0.00000000000E+00 0. -1.
         22   -1    0    0    0    0 -0.00000000000E+00 -0.00000000000E+00 -0.14759612313E+04  0.14759612313E+04  0.00000000000E+00 0.  1.
        -24    2    1    2    0    0  0.69405214620E+02 -0.31217154480E+01 -0.14226723604E+04  0.14266749603E+04  0.81104674457E+02 0.  0.
         25    2    1    2    0    0 -0.95972901139E+02  0.28627149380E+02  0.10005851753E+03  0.18891715444E+03  0.12509065862E+03 0.  0.
         24    2    1    2    0    0  0.26567686519E+02 -0.25505433932E+02  0.27305811397E+03  0.28677461887E+03  0.79514648343E+02 0.  0.
        -13    1    5    5    0    0 -0.20823117495E+02  0.14445613308E+02  0.68821903533E+02  0.73339841642E+02  0.00000000000E+00 0.  1.
         14    1    5    5    0    0  0.47390804014E+02 -0.39951047240E+02  0.20423621043E+03  0.21343477723E+03  0.00000000000E+00 0. -1.
         13    1    3    3    0    0  0.81123395000E+02  0.46147260510E+01 -0.86063084568E+03  0.86445806922E+03  0.00000000000E+00 0. -1.
        -14    1    3    3    0    0 -0.11718180379E+02 -0.77364414991E+01 -0.56204151476E+03  0.56221689106E+03  0.00000000000E+00 0.  1.
          5    1    4    4  501    0 -0.15986379960E+02 -0.24983935013E+02 -0.19201224149E+02  0.35579780238E+02  0.41800000000E+01 0. -1.
         -5    1    4    4    0  501 -0.79986521179E+02  0.53611084393E+02  0.11925974168E+03  0.15333737420E+03  0.41800000000E+01 0. -1.
</event>
<event>
11    1  0.8453735E-009  0.1413249E+03  0.7561462E-02  0.1106088E+00
         22   -1    0    0    0    0  0.00000000000E+00  0.00000000000E+00  0.95055174088E+03  0.95055174088E+03  0.00000000000E+00 0.  1.
         22   -1    0    0    0    0 -0.00000000000E+00 -0.00000000000E+00 -0.12137199757E+03  0.12137199757E+03  0.00000000000E+00 0. -1.
        -24    2    1    2    0    0  0.37082655743E+02 -0.56571246573E+02 -0.74305132204E+02  0.12645588790E+03  0.76775058560E+02 0.  0.
         25    2    1    2    0    0 -0.46407676006E+02  0.25899836964E+02  0.23479742432E+03  0.27129730231E+03  0.12509165371E+03 0.  0.
         24    2    1    2    0    0  0.93250202630E+01  0.30671409609E+02  0.66868745119E+03  0.67417054824E+03  0.79594782259E+02 0.  0.
        -11    1    5    5    0    0 -0.12054416022E+02  0.37927648875E+02  0.60989563565E+03  0.61119268801E+03  0.00000000000E+00 0.  1.
         12    1    5    5    0    0  0.21379436285E+02 -0.72562392663E+01  0.58791815536E+02  0.62977860222E+02  0.00000000000E+00 0. -1.
         13    1    3    3    0    0  0.21755150419E+02 -0.59512999022E+02 -0.86092782996E+02  0.10689738494E+03  0.00000000000E+00 0. -1.
        -14    1    3    3    0    0  0.15327505324E+02  0.29417524499E+01  0.11787650792E+02  0.19558502963E+02  0.00000000000E+00 0.  1.
          5    1    4    4  501    0 -0.87230628379E+02  0.19886958754E+02  0.12378455313E+03  0.15278992653E+03  0.41800000000E+01 0. -1.
         -5    1    4    4    0  501  0.40822952373E+02  0.60128782093E+01  0.11101287119E+03  0.11850737578E+03  0.41800000000E+01 0. -1.
</event>
<event>
11    1  0.8453735E-009  0.1432463E+03  0.7561462E-02  0.1103987E+00
         22   -1    0    0    0    0  0.00000000000E+00  0.00000000000E+00  0.67190947317E+03  0.67190947317E+03  0.00000000000E+00 0.  1.
         22   -1    0    0    0    0 -0.00000000000E+00 -0.00000000000E+00 -0.57407765790E+03  0.57407765790E+03  0.00000000000E+00 0. -1.
         24    2    1    2    0    0 -0.73486988858E+01  0.20281178740E+02 -0.49801574060E+03  0.50325178632E+03  0.69118398146E+02 0.  0.
         25    2    1    2    0    0  0.76150591211E+02 -0.27381971668E+02  0.12251889783E+02  0.14948846601E+03  0.12509199715E+03 0.  0.
        -24    2    1    2    0    0 -0.68801892325E+02  0.71007929281E+01  0.58359566608E+03  0.59324687875E+03  0.81079196049E+02 0.  0.
        -11    1    3    3    0    0 -0.10512955903E+02 -0.11286904870E+02 -0.26442011457E+02  0.30612030858E+02  0.00000000000E+00 0.  1.
         12    1    3    3    0    0  0.31642570171E+01  0.31568083610E+02 -0.47157372914E+03  0.47263975546E+03  0.00000000000E+00 0. -1.
         13    1    5    5    0    0  0.29813682295E+00 -0.24842387140E+02  0.75566047856E+02  0.79545337217E+02  0.00000000000E+00 0. -1.
        -14    1    5    5    0    0 -0.69100029148E+02  0.31943180068E+02  0.50802961823E+03  0.51370154154E+03  0.00000000000E+00 0.  1.
          5    1    4    4  501    0  0.38223900231E+02 -0.75529173040E+02  0.21307901105E+02  0.87391198518E+02  0.41800000000E+01 0.  1.
         -5    1    4    4    0  501  0.37926690980E+02  0.48147201371E+02 -0.90560113217E+01  0.62097267489E+02  0.41800000000E+01 0.  1.
</event>
<event>
11    1  0.8453735E-009  0.3981329E+03  0.7561462E-02  0.9655283E-01
         22   -1    0    0    0    0  0.00000000000E+00  0.00000000000E+00  0.15158249532E+04  0.15158249532E+04  0.00000000000E+00 0. -1.
         22   -1    0    0    0    0 -0.00000000000E+00 -0.00000000000E+00 -0.23637770018E+03  0.23637770018E+03  0.00000000000E+00 0. -1.
        -24    2    1    2    0    0  0.38089691302E+03  0.86440004015E+01  0.30191864297E+02  0.39089424746E+03  0.82034059625E+02 0.  0.
         25    2    1    2    0    0 -0.36291750706E+03  0.10476735084E+03  0.98005139794E+03  0.10577491645E+04  0.12508891942E+03 0.  0.
         24    2    1    2    0    0 -0.17979405958E+02 -0.11341135124E+03  0.26920399081E+03  0.30355924140E+03  0.80573139106E+02 0.  0.
        -11    1    5    5    0    0  0.16256545797E+02 -0.66852026894E+02  0.20932004164E+03  0.22033689799E+03  0.00000000000E+00 0.  1.
         12    1    5    5    0    0 -0.34235951755E+02 -0.46559324344E+02  0.59883949167E+02  0.83222343416E+02  0.00000000000E+00 0. -1.
         11    1    3    3    0    0  0.21797614017E+03 -0.10552498942E+02  0.54811154918E+02  0.22500936785E+03  0.00000000000E+00 0. -1.
        -12    1    3    3    0    0  0.16292077285E+03  0.19196499344E+02 -0.24619290620E+02  0.16588487961E+03  0.00000000000E+00 0.  1.
          5    1    4    4  501    0 -0.28230135381E+03  0.34801917395E+02  0.79109591103E+03  0.84068748098E+03  0.41800000000E+01 0.  1.
         -5    1    4    4    0  501 -0.80616153251E+02  0.69965433441E+02  0.18895548690E+03  0.21706168356E+03  0.41800000000E+01 0.  1.
</event>
<event>
11    1  0.8453735E-009  0.2007339E+03  0.7561462E-02  0.1054006E+00
         22   -1    0    0    0    0  0.00000000000E+00  0.00000000000E+00  0.90111761014E+03  0.90111761014E+03  0.00000000000E+00 0. -1.
         22   -1    0    0    0    0 -0.00000000000E+00 -0.00000000000E+00 -0.21075787237E+03  0.21075787237E+03  0.00000000000E+00 0.  1.
         24    2    1    2    0    0 -0.14124652148E+03 -0.68258224205E+02 -0.10950861737E+03  0.20263814044E+03  0.66785579902E+02 0.  0.
         25    2    1    2    0    0  0.13486137695E+03  0.82494891960E+02  0.14265196523E+03  0.24696336704E+03  0.12509325835E+03 0.  0.
        -24    2    1    2    0    0  0.63851445301E+01 -0.14236667754E+02  0.65721638991E+03  0.66227397502E+03  0.80187168839E+02 0.  0.
        -13    1    3    3    0    0 -0.11329555675E+03 -0.23957157419E+02 -0.90296227626E+02  0.14684426204E+03  0.00000000000E+00 0.  1.
         14    1    3    3    0    0 -0.27950964733E+02 -0.44301066787E+02 -0.19212389743E+02  0.55793878406E+02  0.00000000000E+00 0. -1.
         11    1    5    5    0    0  0.51798439336E+01 -0.38054771140E+02  0.58421075018E+03  0.58547177303E+03  0.00000000000E+00 0. -1.
        -12    1    5    5    0    0  0.12053005965E+01  0.23818103385E+02  0.73005639726E+02  0.76802201988E+02  0.00000000000E+00 0.  1.
          5    1    4    4  501    0  0.48243827997E+02  0.29354237980E+02 -0.15699996348E+02  0.58763088010E+02  0.41800000000E+01 0. -1.
         -5    1    4    4    0  501  0.86617548953E+02  0.53140653980E+02  0.15835196158E+03  0.18820027903E+03  0.41800000000E+01 0. -1.
</event>
<event>
11    1  0.8453735E-009  0.1397021E+03  0.7561462E-02  0.1107891E+00
         22   -1    0    0    0    0  0.00000000000E+00  0.00000000000E+00  0.18796121449E+04  0.18796121449E+04  0.00000000000E+00 0.  1.
         22   -1    0    0    0    0 -0.00000000000E+00 -0.00000000000E+00 -0.61034373483E+03  0.61034373483E+03  0.00000000000E+00 0.  1.
         24    2    1    2    0    0 -0.61910317125E+02  0.75420045529E+00 -0.22147652517E+03  0.24341798738E+03  0.79793541057E+02 0.  0.
         25    2    1    2    0    0  0.60755864417E+02 -0.21086861568E+02 -0.36386217145E+03  0.39010249331E+03  0.12509334388E+03 0.  0.
        -24    2    1    2    0    0  0.11544527076E+01  0.20332661113E+02  0.18546071067E+04  0.18564353990E+04  0.79813036017E+02 0.  0.
        -11    1    3    3    0    0 -0.76316308499E+02 -0.92799803643E+01 -0.13662739226E+03  0.15677162145E+03  0.00000000000E+00 0.  1.
         12    1    3    3    0    0  0.14405991374E+02  0.10034180820E+02 -0.84849132913E+02  0.86646365926E+02  0.00000000000E+00 0. -1.
         13    1    5    5    0    0  0.26984054836E+02 -0.16708403684E+02  0.45796868777E+03  0.45906712902E+03  0.00000000000E+00 0. -1.
        -14    1    5    5    0    0 -0.25829602128E+02  0.37041064797E+02  0.13966384189E+04  0.13973682700E+04  0.00000000000E+00 0.  1.
          5    1    4    4  501    0  0.17775654131E+02 -0.12071695009E+02  0.16366715644E+01  0.21951100063E+02  0.41800000000E+01 0.  1.
         -5    1    4    4    0  501  0.42980210287E+02 -0.90151665590E+01 -0.36549884302E+03  0.36815139325E+03  0.41800000000E+01 0.  1.
</event>
<event>
11    1  0.8453735E-009  0.2906290E+03  0.7561462E-02  0.1004237E+00
         22   -1    0    0    0    0  0.00000000000E+00  0.00000000000E+00  0.14254213945E+04  0.14254213945E+04  0.00000000000E+00 0. -1.
         22   -1    0    0    0    0 -0.00000000000E+00 -0.00000000000E+00 -0.72664190539E+03  0.72664190539E+03  0.00000000000E+00 0.  1.
        -24    2    1    2    0    0 -0.16098511013E+03 -0.18796191447E+03 -0.46529435245E+03  0.53189500064E+03  0.71885814334E+02 0.  0.
         25    2    1    2    0    0  0.20050784074E+03  0.25077394055E+03 -0.94122226978E+02  0.35721713263E+03  0.12511643688E+03 0.  0.
         24    2    1    2    0    0 -0.39522730611E+02 -0.62812026078E+02  0.12581960685E+04  0.12629511666E+04  0.80504071377E+02 0.  0.
        -11    1    5    5    0    0 -0.31044985030E+02  0.11739854601E+02  0.30291636494E+03  0.30472928877E+03  0.00000000000E+00 0.  1.
         12    1    5    5    0    0 -0.84777455805E+01 -0.74551880680E+02  0.95527970358E+03  0.95822187783E+03  0.00000000000E+00 0. -1.
         11    1    3    3    0    0 -0.99216891362E+01  0.19317304386E+01 -0.43938694856E+01  0.11021687115E+02  0.00000000000E+00 0. -1.
        -12    1    3    3    0    0 -0.15106342099E+03 -0.18989364491E+03 -0.46090048297E+03  0.52087331352E+03  0.00000000000E+00 0.  1.
          5    1    4    4  501    0  0.34824558413E+02  0.55190267664E+02  0.30516221786E+02  0.72162509003E+02  0.41800000000E+01 0. -1.
         -5    1    4    4    0  501  0.16568328232E+03  0.19558367289E+03 -0.12463844876E+03  0.28505462363E+03  0.41800000000E+01 0. -1.
</event>
<event>
11    1  0.8453735E-009  0.1432718E+03  0.7561462E-02  0.1103959E+00
         22   -1    0    0    0    0  0.00000000000E+00  0.00000000000E+00  0.79006413551E+03  0.79006413551E+03  0.00000000000E+00 0. -1.
         22   -1    0    0    0    0 -0.00000000000E+00 -0.00000000000E+00 -0.39550116766E+03  0.39550116766E+03  0.00000000000E+00 0. -1.
         24    2    1    2    0    0 -0.49118877741E+02 -0.24024822230E+02 -0.30342150564E+03  0.31820535317E+03  0.78741224699E+02 0.  0.
         25    2    1    2    0    0  0.19493562756E+02  0.87180078994E+02 -0.75144019107E+01  0.15389911206E+03  0.12509238704E+03 0.  0.
        -24    2    1    2    0    0  0.29625314986E+02 -0.63155256764E+02  0.70549887541E+03  0.71346083794E+03  0.80196373523E+02 0.  0.
        -11    1    3    3    0    0 -0.25692897754E+02  0.22372464018E+02 -0.57361501718E+02  0.66715770404E+02  0.00000000000E+00 0.  1.
         12    1    3    3    0    0 -0.23425979987E+02 -0.46397286247E+02 -0.24606000392E+03  0.25148958276E+03  0.00000000000E+00 0. -1.
         13    1    5    5    0    0  0.47343486780E+02 -0.59839823786E+02  0.66188549888E+03  0.66626918275E+03  0.00000000000E+00 0. -1.
        -14    1    5    5    0    0 -0.17718171794E+02 -0.33154329784E+01  0.43613376523E+02  0.47191655187E+02  0.00000000000E+00 0.  1.
          5    1    4    4  501    0  0.49577441578E+01  0.90630896224E+02 -0.53447783920E+02  0.10541668077E+03  0.41800000000E+01 0. -1.
         -5    1    4    4    0  501  0.14535818598E+02 -0.34508172305E+01  0.45933382010E+02  0.48482431299E+02  0.41800000000E+01 0. -1.
</event>
<event>
11    1  0.8453735E-009  0.1318987E+03  0.7561462E-02  0.1116958E+00
         22   -1    0    0    0    0  0.00000000000E+00  0.00000000000E+00  0.33767509518E+03  0.33767509518E+03  0.00000000000E+00 0. -1.
         22   -1    0    0    0    0 -0.00000000000E+00 -0.00000000000E+00 -0.11368124451E+04  0.11368124451E+04  0.00000000000E+00 0.  1.
         24    2    1    2    0    0 -0.20209406501E+02  0.37639928281E+02 -0.10265412836E+04  0.10304670558E+04  0.79057965382E+02 0.  0.
         25    2    1    2    0    0 -0.66761240706E+01 -0.29811486951E+02 -0.61240822906E+02  0.14258793136E+03  0.12509030495E+03 0.  0.
        -24    2    1    2    0    0  0.26885530572E+02 -0.78284413291E+01  0.28864475661E+03  0.30143255308E+03  0.82229388215E+02 0.  0.
        -11    1    3    3    0    0 -0.21497462432E+01 -0.10997092069E+02 -0.67734323315E+03  0.67743591058E+03  0.00000000000E+00 0.  1.
         12    1    3    3    0    0 -0.18059660258E+02  0.48637020350E+02 -0.34919805044E+03  0.35303114524E+03  0.00000000000E+00 0. -1.
         11    1    5    5    0    0  0.50327600779E+02 -0.24049380085E+02  0.15366305203E+03  0.16347346464E+03  0.00000000000E+00 0. -1.
        -12    1    5    5    0    0 -0.23442070207E+02  0.16220938756E+02  0.13498170458E+03  0.13795908844E+03  0.00000000000E+00 0.  1.
          5    1    4    4  501    0 -0.39133295732E+02 -0.13973362614E+02  0.25224881150E+02  0.48789719477E+02  0.41800000000E+01 0. -1.
         -5    1    4    4    0  501  0.32457171662E+02 -0.15838124337E+02 -0.86465704056E+02  0.93798211885E+02  0.41800000000E+01 0. -1.
</event>
<event>
11    1  0.8453735E-009  0.1395683E+03  0.7561462E-02  0.1108041E+00
         22   -1    0    0    0    0  0.00000000000E+00  0.00000000000E+00  0.37428048326E+03  0.37428048326E+03  0.00000000000E+00 0.  1.
         22   -1    0    0    0    0 -0.00000000000E+00 -0.00000000000E+00 -0.19737223727E+04  0.19737223727E+04  0.00000000000E+00 0.  1.
         24    2    1    2    0    0 -0.61665741472E+02  0.22989251411E+00 -0.17721866235E+04  0.17750680203E+04  0.80114490072E+02 0.  0.
         25    2    1    2    0    0  0.65763116253E+02 -0.31258497345E+02 -0.16769431511E+03  0.22151959920E+03  0.12509064070E+03 0.  0.
        -24    2    1    2    0    0 -0.40973747817E+01  0.31028604831E+02  0.34043904926E+03  0.35141523641E+03  0.81328711563E+02 0.  0.
        -11    1    3    3    0    0 -0.28327483461E+02 -0.60621260810E-01 -0.15617404416E+04  0.15619973294E+04  0.00000000000E+00 0.  1.
         12    1    3    3    0    0 -0.33338258010E+02  0.29051377492E+00 -0.21044618191E+03  0.21307069091E+03  0.00000000000E+00 0. -1.
         11    1    5    5    0    0 -0.18366898336E+02  0.46861987660E+02  0.12251327377E+03  0.13244957943E+03  0.00000000000E+00 0. -1.
        -12    1    5    5    0    0  0.14269523554E+02 -0.15833382829E+02  0.21792577549E+03  0.21896565698E+03  0.00000000000E+00 0.  1.
          5    1    4    4  501    0  0.87584211014E+02 -0.39707367704E+02 -0.17224703477E+03  0.19731746617E+03  0.41800000000E+01 0. -1.
         -5    1    4    4    0  501 -0.21821094761E+02  0.84488703587E+01  0.45527196527E+01  0.24202133029E+02  0.41800000000E+01 0. -1.
</event>
<event>
11    1  0.8453735E-009  0.1659895E+03  0.7561462E-02  0.1081575E+00
         22   -1    0    0    0    0  0.00000000000E+00  0.00000000000E+00  0.61753008351E+02  0.61753008351E+02  0.00000000000E+00 0. -1.
         22   -1    0    0    0    0 -0.00000000000E+00 -0.00000000000E+00 -0.32400921078E+04  0.32400921078E+04  0.00000000000E+00 0.  1.
        -24    2    1    2    0    0 -0.11775085817E+02  0.10464344612E+03 -0.25362001492E+04  0.25396531342E+04  0.80236786673E+02 0.  0.
         25    2    1    2    0    0  0.47923908358E+02 -0.13427140468E+03 -0.64229818782E+03  0.66971633634E+03  0.12508995953E+03 0.  0.
         24    2    1    2    0    0 -0.36148822541E+02  0.29627958556E+02  0.15923755486E+00  0.92475645600E+02  0.79794525961E+02 0.  0.
        -13    1    5    5    0    0  0.22118480839E+02  0.16807767999E+02  0.14179319374E+02  0.31189443048E+02  0.00000000000E+00 0.  1.
         14    1    5    5    0    0 -0.58267303380E+02  0.12820190557E+02 -0.14020081820E+02  0.61286202552E+02  0.00000000000E+00 0. -1.
         13    1    3    3    0    0 -0.73872884155E+01 -0.10922494194E+02 -0.12793450416E+03  0.12861224772E+03  0.00000000000E+00 0. -1.
        -14    1    3    3    0    0 -0.43877974018E+01  0.11556594031E+03 -0.24082656450E+04  0.24110408865E+04  0.00000000000E+00 0.  1.
          5    1    4    4  501    0  0.41615235224E+02 -0.14946901376E+02 -0.56638831331E+02  0.71976852377E+02  0.41800000000E+01 0. -1.
         -5    1    4    4    0  501  0.63086731344E+01 -0.11932450330E+03 -0.58565935649E+03  0.59773948396E+03  0.41800000000E+01 0. -1.
</event>
<event>
11    1  0.8453735E-009  0.1334062E+03  0.7561462E-02  0.1115153E+00
         22   -1    0    0    0    0  0.00000000000E+00  0.00000000000E+00  0.82328785149E+03  0.82328785149E+03  0.00000000000E+00 0.  1.
         22   -1    0    0    0    0 -0.00000000000E+00 -0.00000000000E+00 -0.28193844237E+03  0.28193844237E+03  0.00000000000E+00 0. -1.
         24    2    1    2    0    0 -0.17164136152E+02 -0.30232607651E+02 -0.25824584205E+03  0.27243047683E+03  0.79491078970E+02 0.  0.
         25    2    1    2    0    0  0.50016384355E+02 -0.56853635150E+01  0.41842681082E+03  0.43961611801E+03  0.12508946054E+03 0.  0.
        -24    2    1    2    0    0 -0.32852248203E+02  0.35917971167E+02  0.38116844035E+03  0.39317969903E+03  0.83255780258E+02 0.  0.
        -11    1    3    3    0    0  0.21196199044E+02 -0.20806244565E+01 -0.19135301777E+02  0.28631584415E+02  0.00000000000E+00 0.  1.
         12    1    3    3    0    0 -0.38360335196E+02 -0.28151983195E+02 -0.23911054027E+03  0.24379889242E+03  0.00000000000E+00 0. -1.
         11    1    5    5    0    0 -0.27363056543E+01  0.35785838704E+02  0.55320219896E+02  0.65942705053E+02  0.00000000000E+00 0. -1.
        -12    1    5    5    0    0 -0.30115942548E+02  0.13213246273E+00  0.32584822045E+03  0.32723699398E+03  0.00000000000E+00 0.  1.
          5    1    4    4  501    0  0.57234999621E+02 -0.26702257283E+02  0.41095651836E+03  0.41580234259E+03  0.41800000000E+01 0. -1.
         -5    1    4    4    0  501 -0.72186152661E+01  0.21016893768E+02  0.74702924590E+01  0.23813775414E+02  0.41800000000E+01 0. -1.
</event>
<event>
11    1  0.8453735E-009  0.1443596E+03  0.7561462E-02  0.1102786E+00
         22   -1    0    0    0    0  0.00000000000E+00  0.00000000000E+00  0.10474379607E+04  0.10474379607E+04  0.00000000000E+00 0.  1.
         22   -1    0    0    0    0 -0.00000000000E+00 -0.00000000000E+00 -0.20329500449E+03  0.20329500449E+03  0.00000000000E+00 0.  1.
         24    2    1    2    0    0  0.28938379566E+02  0.49869517389E+02 -0.16124737546E+03  0.18997975671E+03  0.82262952111E+02 0.  0.
         25    2    1    2    0    0 -0.45392729625E+02 -0.11235944532E+03  0.29207277370E+03  0.34005734615E+03  0.12508936279E+03 0.  0.
        -24    2    1    2    0    0  0.16454350059E+02  0.62489927927E+02  0.71331755802E+03  0.72069586237E+03  0.80030311297E+02 0.  0.
        -13    1    3    3    0    0  0.42489261669E+02  0.44526692047E+02 -0.16398879452E+03  0.17515789559E+03  0.00000000000E+00 0.  1.
         14    1    3    3    0    0 -0.13550882104E+02  0.53428253413E+01  0.27414190581E+01  0.14821861114E+02  0.00000000000E+00 0. -1.
         11    1    5    5    0    0  0.38710651690E+02  0.27335558980E+01  0.24419749682E+03  0.24726181333E+03  0.00000000000E+00 0. -1.
        -12    1    5    5    0    0 -0.22256301630E+02  0.59756372029E+02  0.46912006121E+03  0.47343404904E+03  0.00000000000E+00 0.  1.
          5    1    4    4  501    0 -0.62925812303E+02 -0.12261113066E+03  0.28745736512E+03  0.31881398397E+03  0.41800000000E+01 0. -1.
         -5    1    4    4    0  501  0.17533082679E+02  0.10251685342E+02  0.46154085820E+01  0.21243362185E+02  0.41800000000E+01 0. -1.
</event>
<event>
11    1  0.8453735E-009  0.4006310E+03  0.7561462E-02  0.9647898E-01
         22   -1    0    0    0    0  0.00000000000E+00  0.00000000000E+00  0.12630121713E+04  0.12630121713E+04  0.00000000000E+00 0. -1.
         22   -1    0    0    0    0 -0.00000000000E+00 -0.00000000000E+00 -0.61466919542E+03  0.61466919542E+03  0.00000000000E+00 0.  1.
         24    2    1    2    0    0  0.37806982610E+03  0.35561063624E+02 -0.48061324888E+03  0.61777677777E+03  0.80359626049E+02 0.  0.
         25    2    1    2    0    0 -0.39018092359E+03 -0.60145368820E+01  0.61773470589E+03  0.74129742068E+03  0.12509345012E+03 0.  0.
        -24    2    1    2    0    0  0.12111097485E+02 -0.29546526742E+02  0.51122151890E+03  0.51860716829E+03  0.81155885144E+02 0.  0.
        -13    1    3    3    0    0  0.14916820301E+03  0.48227964812E+02 -0.22739284595E+03  0.27619666140E+03  0.00000000000E+00 0.  1.
         14    1    3    3    0    0  0.22890162310E+03 -0.12666901188E+02 -0.25322040293E+03  0.34158011638E+03  0.00000000000E+00 0. -1.
         11    1    5    5    0    0  0.19672260686E+02 -0.51924065376E+02  0.44183721211E+03  0.44531250646E+03  0.00000000000E+00 0. -1.
        -12    1    5    5    0    0 -0.75611632010E+01  0.22377538634E+02  0.69384306794E+02  0.73294661835E+02  0.00000000000E+00 0.  1.
          5    1    4    4  501    0 -0.14777431807E+03 -0.62982438522E+02  0.23657436544E+03  0.28598765607E+03  0.41800000000E+01 0.  1.
         -5    1    4    4    0  501 -0.24240660552E+03  0.56967901640E+02  0.38116034045E+03  0.45530976461E+03  0.41800000000E+01 0.  1.
</event>
<event>
11    1  0.8453735E-009  0.1790396E+03  0.7561462E-02  0.1070422E+00
         22   -1    0    0    0    0  0.00000000000E+00  0.00000000000E+00  0.75527868043E+03  0.75527868043E+03  0.00000000000E+00 0.  1.
         22   -1    0    0    0    0 -0.00000000000E+00 -0.00000000000E+00 -0.14005628979E+03  0.14005628979E+03  0.00000000000E+00 0.  1.
         24    2    1    2    0    0 -0.11148498191E+03  0.12634328184E+03 -0.26942671389E+02  0.18895950568E+03  0.81168104497E+02 0.  0.
         25    2    1    2    0    0 -0.24075803601E+01 -0.70035958042E+02  0.28751012441E+03  0.32127935321E+03  0.12509004477E+03 0.  0.
        -24    2    1    2    0    0  0.11389256227E+03 -0.56307323800E+02  0.35465493762E+03  0.38509611132E+03  0.79855242310E+02 0.  0.
        -11    1    3    3    0    0 -0.82728941222E+02  0.98216444074E+02  0.16827369534E+02  0.12951335054E+03  0.00000000000E+00 0.  1.
         12    1    3    3    0    0 -0.28756040693E+02  0.28126837768E+02 -0.43770040924E+02  0.59446155146E+02  0.00000000000E+00 0. -1.
         13    1    5    5    0    0  0.59659522990E+02 -0.25565693136E+00  0.23354917417E+03  0.24104883489E+03  0.00000000000E+00 0. -1.
        -14    1    5    5    0    0  0.54233039285E+02 -0.56051666869E+02  0.12110576344E+03  0.14404727644E+03  0.00000000000E+00 0.  1.
          5    1    4    4  501    0  0.23868072794E+02 -0.65704252314E+02  0.60118143343E+02  0.92295163633E+02  0.41800000000E+01 0. -1.
         -5    1    4    4    0  501 -0.26275653154E+02 -0.43317057277E+01  0.22739198106E+03  0.22898418958E+03  0.41800000000E+01 0. -1.
</event>
<event>
11    1  0.8453735E-009  0.1656501E+03  0.7561462E-02  0.1081880E+00
         22   -1    0    0    0    0  0.00000000000E+00  0.00000000000E+00  0.24684938551E+04  0.24684938551E+04  0.00000000000E+00 0. -1.
         22   -1    0    0    0    0 -0.00000000000E+00 -0.00000000000E+00 -0.71709488492E+02  0.71709488492E+02  0.00000000000E+00 0.  1.
         24    2    1    2    0    0 -0.21755391405E+02  0.13217255408E+02 -0.28368896214E+02  0.89644449058E+02  0.81137784533E+02 0.  0.
         25    2    1    2    0    0 -0.89898111443E+02  0.47425216433E+01  0.56773115575E+03  0.58827721054E+03  0.12508896546E+03 0.  0.
        -24    2    1    2    0    0  0.11165350285E+03 -0.17959777052E+02  0.18574221071E+04  0.18622816840E+04  0.72712642701E+02 0.  0.
        -13    1    3    3    0    0 -0.47849698602E+02  0.27503642313E+02 -0.16380227453E+02  0.57570442487E+02  0.00000000000E+00 0.  1.
         14    1    3    3    0    0  0.26094307197E+02 -0.14286386904E+02 -0.11988668762E+02  0.32074006571E+02  0.00000000000E+00 0. -1.
         11    1    5    5    0    0  0.98624830571E+02 -0.66819310013E+01  0.17887954259E+04  0.17915246527E+04  0.00000000000E+00 0. -1.
        -12    1    5    5    0    0  0.13028672277E+02 -0.11277846050E+02  0.68626681154E+02  0.70757031305E+02  0.00000000000E+00 0.  1.
          5    1    4    4  501    0 -0.11419899436E+03  0.71265987892E+01  0.53561859472E+03  0.54771977336E+03  0.41800000000E+01 0. -1.
         -5    1    4    4    0  501  0.24300882918E+02 -0.23840771459E+01  0.32112561031E+02  0.40557437178E+02  0.41800000000E+01 0. -1.
</event>
<event>
11    1  0.8453735E-009  0.1299307E+03  0.7561462E-02  0.1119354E+00
         22   -1    0    0    0    0  0.00000000000E+00  0.00000000000E+00  0.28396507454E+03  0.28396507454E+03  0.00000000000E+00 0. -1.
         22   -1    0    0    0    0 -0.00000000000E+00 -0.00000000000E+00 -0.50002406640E+03  0.50002406640E+03  0.00000000000E+00 0. -1.
        -24    2    1    2    0    0  0.47354244833E+02 -0.31380472132E+01 -0.27508027563E+03  0.29115784745E+03  0.82773560067E+02 0.  0.
         25    2    1    2    0    0 -0.37022275359E+01  0.16817148586E+02 -0.19025957053E+03  0.22834673644E+03  0.12508798858E+03 0.  0.
         24    2    1    2    0    0 -0.43652017297E+02 -0.13679101373E+02  0.24928085431E+03  0.26448455705E+03  0.75620897672E+02 0.  0.
        -13    1    5    5    0    0 -0.21814433790E+02 -0.25139031036E+02  0.33236925045E+02  0.47037576356E+02  0.00000000000E+00 0.  1.
         14    1    5    5    0    0 -0.21837583507E+02  0.11459929663E+02  0.21604392927E+03  0.21744698070E+03  0.00000000000E+00 0. -1.
         13    1    3    3    0    0  0.56237597638E+02 -0.11068529913E+01 -0.91874983515E+02  0.10772606513E+03  0.00000000000E+00 0. -1.
        -14    1    3    3    0    0 -0.88833528053E+01 -0.20311942219E+01 -0.18320529212E+03  0.18343178232E+03  0.00000000000E+00 0.  1.
          5    1    4    4  501    0 -0.20522153844E+02  0.68521283498E+02 -0.10385579612E+03  0.12617378444E+03  0.41800000000E+01 0. -1.
         -5    1    4    4    0  501  0.16819926309E+02 -0.51704134912E+02 -0.86403774409E+02  0.10217295200E+03  0.41800000000E+01 0. -1.
</event>
<event>
11    1  0.8453735E-009  0.4165332E+03  0.7561462E-02  0.9602197E-01
         22   -1    0    0    0    0  0.00000000000E+00  0.00000000000E+00  0.23867416458E+04  0.23867416458E+04  0.00000000000E+00 0. -1.
         22   -1    0    0    0    0 -0.00000000000E+00 -0.00000000000E+00 -0.11461243453E+03  0.11461243453E+03  0.00000000000E+00 0. -1.
        -24    2    1    2    0    0 -0.51215310308E+02 -0.44415082222E+02  0.10598531750E+03  0.15616555335E+03  0.92515322993E+02 0.  0.
         25    2    1    2    0    0  0.17940463143E+03  0.40183587024E+03  0.76677864311E+03  0.89289169254E+03  0.12509196091E+03 0.  0.
         24    2    1    2    0    0 -0.12818932112E+03 -0.35742078801E+03  0.13993652507E+04  0.14522968344E+04  0.82224502506E+02 0.  0.
        -11    1    5    5    0    0 -0.75846248621E+02 -0.10472310624E+03  0.52110846700E+03  0.53691118147E+03  0.00000000000E+00 0.  1.
         12    1    5    5    0    0 -0.52343072498E+02 -0.25269768177E+03  0.87825678366E+03  0.91538565296E+03  0.00000000000E+00 0. -1.
         13    1    3    3    0    0 -0.72369792551E+02 -0.17980679964E+02  0.46975322363E+02  0.88132699023E+02  0.00000000000E+00 0. -1.
        -14    1    3    3    0    0  0.21154482243E+02 -0.26434402257E+02  0.59009995138E+02  0.68032854327E+02  0.00000000000E+00 0.  1.
          5    1    4    4  501    0  0.30952399248E+02  0.39549599141E+02  0.30305874087E+02  0.58805953913E+02  0.41800000000E+01 0.  1.
         -5    1    4    4    0  501  0.14845223218E+03  0.36228627109E+03  0.73647276902E+03  0.83408573862E+03  0.41800000000E+01 0.  1.
</event>
<event>
11    1  0.8453735E-009  0.2499371E+03  0.7561462E-02  0.1023933E+00
         22   -1    0    0    0    0  0.00000000000E+00  0.00000000000E+00  0.26389935475E+04  0.26389935475E+04  0.00000000000E+00 0. -1.
         22   -1    0    0    0    0 -0.00000000000E+00 -0.00000000000E+00 -0.32950128606E+03  0.32950128606E+03  0.00000000000E+00 0.  1.
         24    2    1    2    0    0 -0.20178081179E+03  0.43670974603E+01 -0.75081544898E+02  0.23216062635E+03  0.86756846961E+02 0.  0.
         25    2    1    2    0    0  0.21475622053E+03  0.19327082606E+03 -0.26335855052E+02  0.31593632512E+03  0.12509331638E+03 0.  0.
        -24    2    1    2    0    0 -0.12975408743E+02 -0.19763792352E+03  0.24109096613E+04  0.24203978821E+04  0.81310529847E+02 0.  0.
        -11    1    3    3    0    0 -0.19158822798E+03 -0.19822827191E+02 -0.59302716826E+02  0.20153363442E+03  0.00000000000E+00 0.  1.
         12    1    3    3    0    0 -0.10192583810E+02  0.24189924651E+02 -0.15778828072E+02  0.30626991930E+02  0.00000000000E+00 0. -1.
         11    1    5    5    0    0  0.32333052275E+01 -0.18660036684E+03  0.19079071794E+04  0.19170132906E+04  0.00000000000E+00 0. -1.
        -12    1    5    5    0    0 -0.16208713971E+02 -0.11037556684E+02  0.50300248198E+03  0.50338459149E+03  0.00000000000E+00 0.  1.
          5    1    4    4  501    0  0.12105200759E+03  0.15332239226E+03  0.32723332826E+02  0.19811520240E+03  0.41800000000E+01 0. -1.
         -5    1    4    4    0  501  0.93704212940E+02  0.39948433806E+02 -0.59059187877E+02  0.11782112272E+03  0.41800000000E+01 0. -1.
</event>
<event>
11    1  0.8453735E-009  0.1532271E+03  0.7561462E-02  0.1093626E+00
         22   -1    0    0    0    0  0.00000000000E+00  0.00000000000E+00  0.23969016276E+04  0.23969016276E+04  0.00000000000E+00 0. -1.
         22   -1    0    0    0    0 -0.00000000000E+00 -0.00000000000E+00 -0.10167845327E+04  0.10167845327E+04  0.00000000000E+00 0. -1.
         24    2    1    2    0    0 -0.79807190942E+02  0.38519964808E+02 -0.99076769831E+03  0.99811215141E+03  0.82184301177E+02 0.  0.
         25    2    1    2    0    0  0.57063348921E+02 -0.64738313121E+02  0.24859035424E+03  0.29136131208E+03  0.12508786903E+03 0.  0.
        -24    2    1    2    0    0  0.22743842021E+02  0.26218348314E+02  0.21222944390E+04  0.21242126967E+04  0.83313931412E+02 0.  0.
        -13    1    3    3    0    0  0.28397311412E+01 -0.49646352961E+01 -0.41060400409E+01  0.70406847249E+01  0.00000000000E+00 0.  1.
         14    1    3    3    0    0 -0.82646922083E+02  0.43484600104E+02 -0.98666165827E+03  0.99107146668E+03  0.00000000000E+00 0. -1.
         13    1    5    5    0    0  0.57321619425E+01  0.15700446019E+02  0.20150424542E+04  0.20151117720E+04  0.00000000000E+00 0. -1.
        -14    1    5    5    0    0  0.17011680079E+02  0.10517902295E+02  0.10725198479E+03  0.10910092469E+03  0.00000000000E+00 0.  1.
          5    1    4    4  501    0 -0.23915502814E+02  0.15213203125E+02  0.10077749878E+03  0.10477103361E+03  0.41800000000E+01 0.  1.
         -5    1    4    4    0  501  0.80978851735E+02 -0.79951516247E+02  0.14781285546E+03  0.18659027847E+03  0.41800000000E+01 0.  1.
</event>
<event>
11    1  0.8453735E-009  0.1351748E+03  0.7561462E-02  0.1113069E+00
         22   -1    0    0    0    0  0.00000000000E+00  0.00000000000E+00  0.34465748555E+03  0.34465748555E+03  0.00000000000E+00 0. -1.
         22   -1    0    0    0    0 -0.00000000000E+00 -0.00000000000E+00 -0.10211542968E+04  0.10211542968E+04  0.00000000000E+00 0.  1.
        -24    2    1    2    0    0 -0.53671546013E+02  0.15308721049E+02 -0.85517860972E+03  0.86080885384E+03  0.80910052150E+02 0.  0.
         25    2    1    2    0    0 -0.23099745121E+01 -0.32418705253E+02 -0.12912025498E+03  0.18269170171E+03  0.12509160321E+03 0.  0.
         24    2    1    2    0    0  0.55981520525E+02  0.17109984205E+02  0.30780205345E+03  0.32231122680E+03  0.75602517245E+02 0.  0.
        -13    1    5    5    0    0 -0.43656518837E+01 -0.22804200867E+02  0.70615198565E+02  0.74334357884E+02  0.00000000000E+00 0.  1.
         14    1    5    5    0    0  0.60347172409E+02  0.39914185072E+02  0.23718685489E+03  0.24797686892E+03  0.00000000000E+00 0. -1.
         11    1    3    3    0    0  0.15324389412E+01 -0.27092240191E+02 -0.17710631064E+03  0.17917305354E+03  0.00000000000E+00 0. -1.
        -12    1    3    3    0    0 -0.55203984954E+02  0.42400961240E+02 -0.67807229908E+03  0.68163580030E+03  0.00000000000E+00 0.  1.
          5    1    4    4  501    0 -0.15037629566E+02 -0.72477450230E+02 -0.40405528363E+02  0.84434532137E+02  0.41800000000E+01 0.  1.
         -5    1    4    4    0  501  0.12727655054E+02  0.40058744977E+02 -0.88714726620E+02  0.98257169569E+02  0.41800000000E+01 0.  1.
</event>
<event>
11    1  0.8453735E-009  0.1811059E+03  0.7561462E-02  0.1068752E+00
         22   -1    0    0    0    0  0.00000000000E+00  0.00000000000E+00  0.12352070832E+04  0.12352070832E+04  0.00000000000E+00 0.  1.
         22   -1    0    0    0    0 -0.00000000000E+00 -0.00000000000E+00 -0.63616122700E+03  0.63616122700E+03  0.00000000000E+00 0. -1.
         24    2    1    2    0    0  0.44021484625E+02 -0.15682599324E+02 -0.58154071446E+03  0.58926585929E+03  0.82830038763E+02 0.  0.
         25    2    1    2    0    0 -0.16850305963E+03 -0.57391499989E+01  0.19991943431E+03  0.28989909150E+03  0.12508990403E+03 0.  0.
        -24    2    1    2    0    0  0.12448157500E+03  0.21421749323E+02  0.98066713632E+03  0.99220335938E+03  0.82491940520E+02 0.  0.
        -11    1    3    3    0    0  0.27358845323E+02  0.17005380040E+02 -0.77998220297E+02  0.84388457369E+02  0.00000000000E+00 0.  1.
         12    1    3    3    0    0  0.16662639302E+02 -0.32687979364E+02 -0.50354249416E+03  0.50487740192E+03  0.00000000000E+00 0. -1.
         13    1    5    5    0    0  0.32839967933E+02 -0.30932994935E+02  0.27047653920E+03  0.27421318701E+03  0.00000000000E+00 0. -1.
        -14    1    5    5    0    0  0.91641607069E+02  0.52354744257E+02  0.71019059712E+03  0.71799017238E+03  0.00000000000E+00 0.  1.
          5    1    4    4  501    0 -0.18415974283E+03 -0.22877712202E+02  0.18451374353E+03  0.26172694654E+03  0.41800000000E+01 0.  1.
         -5    1    4    4    0  501  0.15656683199E+02  0.17138562203E+02  0.15405690786E+02  0.28172144962E+02  0.41800000000E+01 0.  1.
</event>
<event>
11    1  0.8453735E-009  0.4056762E+03  0.7561462E-02  0.9633157E-01
         22   -1    0    0    0    0  0.00000000000E+00  0.00000000000E+00  0.54173539596E+03  0.54173539596E+03  0.00000000000E+00 0. -1.
         22   -1    0    0    0    0 -0.00000000000E+00 -0.00000000000E+00 -0.47296400193E+03  0.47296400193E+03  0.00000000000E+00 0. -1.
         24    2    1    2    0    0 -0.11509569990E+03 -0.20305838278E+02 -0.11606596170E+03  0.18350081362E+03  0.80881975318E+02 0.  0.
         25    2    1    2    0    0 -0.32226562262E+03 -0.13055392871E+02 -0.71456408764E+01  0.34601278794E+03  0.12509282327E+03 0.  0.
        -24    2    1    2    0    0  0.43736132251E+03  0.33361231149E+02  0.19198299660E+03  0.48518579633E+03  0.78421220309E+02 0.  0.
        -11    1    3    3    0    0 -0.94442592113E+02 -0.48058676670E+01 -0.12449468751E+03  0.15633754120E+03  0.00000000000E+00 0.  1.
         12    1    3    3    0    0 -0.20653107785E+02 -0.15499970611E+02  0.84287258099E+01  0.27163272426E+02  0.00000000000E+00 0. -1.
         13    1    5    5    0    0  0.24380698477E+03  0.52936788322E+02  0.87675917326E+02  0.26444510935E+03  0.00000000000E+00 0. -1.
        -14    1    5    5    0    0  0.19355433775E+03 -0.19575557173E+02  0.10430707928E+03  0.22074068698E+03  0.00000000000E+00 0.  1.
          5    1    4    4  501    0 -0.15560082054E+03 -0.11938667039E+02  0.58665075887E+02  0.16677293142E+03  0.41800000000E+01 0. -1.
         -5    1    4    4    0  501 -0.16666480207E+03 -0.11167258324E+01 -0.65810716764E+02  0.17923985653E+03  0.41800000000E+01 0. -1.
</event>
<event>
11    1  0.8453735E-009  0.1317792E+03  0.7561462E-02  0.1117102E+00
         22   -1    0    0    0    0  0.00000000000E+00  0.00000000000E+00  0.35689479336E+03  0.35689479336E+03  0.00000000000E+00 0.  1.
         22   -1    0    0    0    0 -0.00000000000E+00 -0.00000000000E+00 -0.21612598118E+03  0.21612598118E+03  0.00000000000E+00 0.  1.
        -24    2    1    2    0    0 -0.32622950283E+02 -0.25438948531E+02 -0.15936429722E+03  0.18340672747E+03  0.80806258812E+02 0.  0.
         25    2    1    2    0    0 -0.15591488332E+02  0.17442791475E+02  0.79948352484E+02  0.15032239671E+03  0.12513088510E+03 0.  0.
         24    2    1    2    0    0  0.48214438615E+02  0.79961570558E+01  0.22018475693E+03  0.23929165036E+03  0.79941204217E+02 0.  0.
        -13    1    5    5    0    0  0.34913815279E+02 -0.33085391073E+02  0.14268131804E+03  0.15057083422E+03  0.00000000000E+00 0.  1.
         14    1    5    5    0    0  0.13300623336E+02  0.41081548129E+02  0.77503438881E+02  0.88720816138E+02  0.00000000000E+00 0. -1.
         13    1    3    3    0    0 -0.66878799335E+01 -0.48719805232E+02 -0.57050617283E+02  0.75320117447E+02  0.00000000000E+00 0. -1.
        -14    1    3    3    0    0 -0.25935070349E+02  0.23280856701E+02 -0.10231367994E+03  0.10808661002E+03  0.00000000000E+00 0.  1.
          5    1    4    4  501    0  0.51425899672E+02 -0.59819104973E+00  0.11729064333E+02  0.52915256210E+02  0.41800000000E+01 0.  1.
         -5    1    4    4    0  501 -0.67017388004E+02  0.18040982525E+02  0.68219288151E+02  0.97407140504E+02  0.41800000000E+01 0.  1.
</event>
<event>
11    1  0.8453735E-009  0.1481477E+03  0.7561462E-02  0.1098787E+00
         22   -1    0    0    0    0  0.00000000000E+00  0.00000000000E+00  0.95276616953E+02  0.95276616953E+02  0.00000000000E+00 0. -1.
         22   -1    0    0    0    0 -0.00000000000E+00 -0.00000000000E+00 -0.60133530611E+03  0.60133530611E+03  0.00000000000E+00 0. -1.
        -24    2    1    2    0    0  0.57730768371E+02  0.94399289229E+01 -0.36538186162E+03  0.37853236479E+03  0.79755203709E+02 0.  0.
         25    2    1    2    0    0 -0.16234621095E+02 -0.81908834442E+02 -0.13460698837E+03  0.20182950000E+03  0.12507392082E+03 0.  0.
         24    2    1    2    0    0 -0.41496147276E+02  0.72468905519E+02 -0.60698391629E+01  0.11625005827E+03  0.80644656331E+02 0.  0.
        -11    1    5    5    0    0  0.21898713136E+02  0.77166603481E+01  0.79737086037E+01  0.24549552192E+02  0.00000000000E+00 0.  1.
         12    1    5    5    0    0 -0.63394860411E+02  0.64752245171E+02 -0.14043547767E+02  0.91700506079E+02  0.00000000000E+00 0. -1.
         11    1    3    3    0    0 -0.14895303206E+02  0.63801547284E+01 -0.15703823325E+03  0.15787204672E+03  0.00000000000E+00 0. -1.
        -12    1    3    3    0    0  0.72626071576E+02  0.30597741945E+01 -0.20834362837E+03  0.22066031808E+03  0.00000000000E+00 0.  1.
          5    1    4    4  501    0  0.14427885544E+02 -0.61298933799E+02 -0.97362559977E+00  0.63120072187E+02  0.41800000000E+01 0. -1.
         -5    1    4    4    0  501 -0.30662506639E+02 -0.20609900643E+02 -0.13363336277E+03  0.13870942781E+03  0.41800000000E+01 0. -1.
</event>
<event>
11    1  0.8453735E-009  0.2202218E+03  0.7561462E-02  0.1041079E+00
         22   -1    0    0    0    0  0.00000000000E+00  0.00000000000E+00  0.65164024059E+03  0.65164024059E+03  0.00000000000E+00 0.  1.
         22   -1    0    0    0    0 -0.00000000000E+00 -0.00000000000E+00 -0.20941868740E+04  0.20941868740E+04  0.00000000000E+00 0.  1.
        -24    2    1    2    0    0  0.16019085621E+02 -0.10505108609E+03 -0.18934157202E+04  0.18980861327E+04  0.80097040470E+02 0.  0.
         25    2    1    2    0    0  0.40619409864E+01  0.27618364089E+03 -0.54266350971E+02  0.30803425259E+03  0.12508541506E+03 0.  0.
         24    2    1    2    0    0 -0.20081026608E+02 -0.17113255480E+03  0.50513543782E+03  0.53970672923E+03  0.80199402078E+02 0.  0.
        -11    1    5    5    0    0 -0.34840571411E+02 -0.12850948397E+03  0.44526373965E+03  0.46474546876E+03  0.00000000000E+00 0.  1.
         12    1    5    5    0    0  0.14759544803E+02 -0.42623070825E+02  0.59871698171E+02  0.74961260470E+02  0.00000000000E+00 0. -1.
         13    1    3    3    0    0 -0.30974372278E+02 -0.51949839810E+02 -0.72366343329E+03  0.72618658916E+03  0.00000000000E+00 0. -1.
        -14    1    3    3    0    0  0.46993457899E+02 -0.53101246280E+02 -0.11697522870E+04  0.11718995436E+04  0.00000000000E+00 0.  1.
          5    1    4    4  501    0  0.13860581823E+01  0.28687962883E+03 -0.62513710000E+02  0.29364481765E+03  0.41800000000E+01 0. -1.
         -5    1    4    4    0  501  0.26758828041E+01 -0.10695987943E+02  0.82473590291E+01  0.14389434937E+02  0.41800000000E+01 0. -1.
</event>
<event>
11    1  0.8453735E-009  0.1545873E+03  0.7561462E-02  0.1092282E+00
         22   -1    0    0    0    0  0.00000000000E+00  0.00000000000E+00  0.30675422387E+04  0.30675422387E+04  0.00000000000E+00 0.  1.
         22   -1    0    0    0    0 -0.00000000000E+00 -0.00000000000E+00 -0.55014638889E+03  0.55014638889E+03  0.00000000000E+00 0.  1.
         24    2    1    2    0    0 -0.85933389049E+02 -0.27288576112E+02 -0.52385141291E+03  0.53765730081E+03  0.80782773982E+02 0.  0.
         25    2    1    2    0    0  0.13613984121E+03  0.15854244287E+02  0.44730374447E+03  0.48426914781E+03  0.12510217535E+03 0.  0.
        -24    2    1    2    0    0 -0.50206452156E+02  0.11434331826E+02  0.25939435183E+04  0.25957621790E+04  0.82382535413E+02 0.  0.
        -13    1    3    3    0    0 -0.10189321941E+03 -0.23348902971E+02 -0.45930770952E+03  0.47105304527E+03  0.00000000000E+00 0.  1.
         14    1    3    3    0    0  0.15959830362E+02 -0.39396731416E+01 -0.64543703386E+02  0.66604255543E+02  0.00000000000E+00 0. -1.
         13    1    5    5    0    0 -0.51915692715E+02 -0.20303453280E+02  0.10393928906E+04  0.10408866655E+04  0.00000000000E+00 0. -1.
        -14    1    5    5    0    0  0.17092405586E+01  0.31737785106E+02  0.15545506276E+04  0.15548755135E+04  0.00000000000E+00 0.  1.
          5    1    4    4  501    0 -0.79484954907E+01  0.31780849666E+02  0.14852945357E+03  0.15215673486E+03  0.41800000000E+01 0. -1.
         -5    1    4    4    0  501  0.14408833670E+03 -0.15926605379E+02  0.29877429090E+03  0.33211241294E+03  0.41800000000E+01 0. -1.
</event>
<event>
11    1  0.8453735E-009  0.1381166E+03  0.7561462E-02  0.1109680E+00
         22   -1    0    0    0    0  0.00000000000E+00  0.00000000000E+00  0.97953866023E+03  0.97953866023E+03  0.00000000000E+00 0.  1.
         22   -1    0    0    0    0 -0.00000000000E+00 -0.00000000000E+00 -0.57360919209E+02  0.57360919209E+02  0.00000000000E+00 0.  1.
        -24    2    1    2    0    0 -0.13778337700E+02 -0.17885214457E+02  0.31781512682E+01  0.84291098534E+02  0.81149030559E+02 0.  0.
         25    2    1    2    0    0 -0.39091866399E+02  0.44943819726E+02  0.39551493051E+03  0.41908180174E+03  0.12509746337E+03 0.  0.
         24    2    1    2    0    0  0.52870204099E+02 -0.27058605269E+02  0.52348465925E+03  0.53352667917E+03  0.84184929276E+02 0.  0.
        -13    1    5    5    0    0  0.71751102951E+02 -0.22040280873E+02  0.48028448901E+03  0.48611437455E+03  0.00000000000E+00 0.  1.
         14    1    5    5    0    0 -0.18880898852E+02 -0.50183243961E+01  0.43200170234E+02  0.47412304620E+02  0.00000000000E+00 0. -1.
         13    1    3    3    0    0 -0.37147685046E+02 -0.12983299918E+02  0.29179348079E+02  0.48989294089E+02  0.00000000000E+00 0. -1.
        -14    1    3    3    0    0  0.23369347346E+02 -0.49019145387E+01 -0.26001196811E+02  0.35301804445E+02  0.00000000000E+00 0.  1.
          5    1    4    4  501    0 -0.43410894009E+02  0.86217513789E+02  0.28698501269E+03  0.30281320201E+03  0.41800000000E+01 0.  1.
         -5    1    4    4    0  501  0.43190276104E+01 -0.41273694063E+02  0.10852991782E+03  0.11626859973E+03  0.41800000000E+01 0.  1.
</event>
<event>
11    1  0.8453735E-009  0.1551645E+03  0.7561462E-02  0.1091716E+00
         22   -1    0    0    0    0  0.00000000000E+00  0.00000000000E+00  0.72247930057E+02  0.72247930057E+02  0.00000000000E+00 0. -1.
         22   -1    0    0    0    0 -0.00000000000E+00 -0.00000000000E+00 -0.35609734059E+04  0.35609734059E+04  0.00000000000E+00 0.  1.
        -24    2    1    2    0    0 -0.15069527644E+02  0.58320485738E+02 -0.31243540233E+04  0.31260078770E+04  0.81907353120E+02 0.  0.
         25    2    1    2    0    0  0.17945556327E+02 -0.14059110450E+03 -0.34126343419E+03  0.39012372335E+03  0.12509151190E+03 0.  0.
         24    2    1    2    0    0 -0.28760286827E+01  0.82270618758E+02 -0.23108018292E+02  0.11708973554E+03  0.79995621172E+02 0.  0.
        -11    1    5    5    0    0 -0.12649963921E+02 -0.12845026210E+02 -0.98933001355E+01  0.20564378744E+02  0.00000000000E+00 0.  1.
         12    1    5    5    0    0  0.97739352388E+01  0.95115644968E+02 -0.13214718156E+02  0.96525356791E+02  0.00000000000E+00 0. -1.
         13    1    3    3    0    0 -0.36124127307E+00  0.38522124216E+02 -0.48146067118E+03  0.48299944352E+03  0.00000000000E+00 0. -1.
        -14    1    3    3    0    0 -0.14708286371E+02  0.19798361522E+02 -0.26428933521E+04  0.26430084335E+04  0.00000000000E+00 0.  1.
          5    1    4    4  501    0  0.48777937497E+02 -0.37998216200E+02 -0.49588404598E+02  0.79370233032E+02  0.41800000000E+01 0. -1.
         -5    1    4    4    0  501 -0.30832381171E+02 -0.10259288830E+03 -0.29167502960E+03  0.31075349032E+03  0.41800000000E+01 0. -1.
</event>
<event>
11    1  0.8453735E-009  0.1639230E+03  0.7561462E-02  0.1083445E+00
         22   -1    0    0    0    0  0.00000000000E+00  0.00000000000E+00  0.17521562898E+04  0.17521562898E+04  0.00000000000E+00 0. -1.
         22   -1    0    0    0    0 -0.00000000000E+00 -0.00000000000E+00 -0.25181961122E+03  0.25181961122E+03  0.00000000000E+00 0. -1.
        -24    2    1    2    0    0 -0.10118310970E+03 -0.16096003599E+02 -0.17075746372E+03  0.21414288743E+03  0.78752535206E+02 0.  0.
         25    2    1    2    0    0  0.11851240939E+03  0.73677825031E+02  0.94281893099E+02  0.20978700625E+03  0.12509156464E+03 0.  0.
         24    2    1    2    0    0 -0.17329299691E+02 -0.57581821432E+02  0.15768122493E+04  0.15800460074E+04  0.81194490256E+02 0.  0.
        -11    1    5    5    0    0  0.76454421991E+01  0.18990170034E+02  0.33356901802E+03  0.33419660251E+03  0.00000000000E+00 0.  1.
         12    1    5    5    0    0 -0.24974741890E+02 -0.76571991466E+02  0.12432432312E+04  0.12458494049E+04  0.00000000000E+00 0. -1.
         11    1    3    3    0    0 -0.54652786748E+02 -0.47635547530E+02 -0.10555949832E+03  0.12805811249E+03  0.00000000000E+00 0. -1.
        -12    1    3    3    0    0 -0.46530322948E+02  0.31539543931E+02 -0.65197965402E+02  0.86084774947E+02  0.00000000000E+00 0.  1.
          5    1    4    4  501    0  0.10322442360E+03  0.65943981123E+02  0.12456020410E+03  0.17474726641E+03  0.41800000000E+01 0. -1.
         -5    1    4    4    0  501  0.15287985792E+02  0.77338439078E+01 -0.30278310998E+02  0.35039739840E+02  0.41800000000E+01 0. -1.
</event>
<event>
11    1  0.8453735E-009  0.1353236E+03  0.7561462E-02  0.1112896E+00
         22   -1    0    0    0    0  0.00000000000E+00  0.00000000000E+00  0.13201084976E+04  0.13201084976E+04  0.00000000000E+00 0. -1.
         22   -1    0    0    0    0 -0.00000000000E+00 -0.00000000000E+00 -0.16516110242E+04  0.16516110242E+04  0.00000000000E+00 0. -1.
         24    2    1    2    0    0  0.27309538876E+02 -0.26106700951E+02 -0.15696394246E+04  0.15721943494E+04  0.81239018648E+02 0.  0.
         25    2    1    2    0    0 -0.77724574209E+02  0.17770041554E+02 -0.91172654302E+01  0.14862082590E+03  0.12509253194E+03 0.  0.
        -24    2    1    2    0    0  0.50415035333E+02  0.83366593970E+01  0.12472541635E+04  0.12509043466E+04  0.80669451586E+02 0.  0.
        -13    1    3    3    0    0 -0.98475036279E+01 -0.14300598241E+02 -0.72604014972E+02  0.74651345787E+02  0.00000000000E+00 0.  1.
         14    1    3    3    0    0  0.37157042503E+02 -0.11806102710E+02 -0.14970354097E+04  0.14975430036E+04  0.00000000000E+00 0. -1.
         13    1    5    5    0    0  0.57672833024E+02  0.17656848722E+02  0.50980137495E+03  0.51335695366E+03  0.00000000000E+00 0. -1.
        -14    1    5    5    0    0 -0.72577976912E+01 -0.93201893247E+01  0.73745278851E+03  0.73754739294E+03  0.00000000000E+00 0.  1.
          5    1    4    4  501    0 -0.10541005981E+03  0.11129432967E+02 -0.33141089325E+02  0.11113482438E+03  0.41800000000E+01 0. -1.
         -5    1    4    4    0  501  0.27685485602E+02  0.66406085872E+01  0.24023823895E+02  0.37486001520E+02  0.41800000000E+01 0. -1.
</event>
<event>
11    1  0.8453735E-009  0.1389489E+03  0.7561462E-02  0.1108738E+00
         22   -1    0    0    0    0  0.00000000000E+00  0.00000000000E+00  0.52748640027E+03  0.52748640027E+03  0.00000000000E+00 0.  1.
         22   -1    0    0    0    0 -0.00000000000E+00 -0.00000000000E+00 -0.21276579668E+04  0.21276579668E+04  0.00000000000E+00 0. -1.
        -24    2    1    2    0    0 -0.58994238496E+02 -0.10847207208E+02 -0.19307075794E+04  0.19333068785E+04  0.80285410539E+02 0.  0.
         25    2    1    2    0    0  0.75529765189E+02 -0.16481179015E+02 -0.16344596992E+03  0.21985898980E+03  0.12508803149E+03 0.  0.
         24    2    1    2    0    0 -0.16535526694E+02  0.27328386222E+02  0.49398198286E+03  0.50197849873E+03  0.83330363331E+02 0.  0.
        -13    1    5    5    0    0  0.58627604885E+01  0.53583428111E+02  0.33346341945E+03  0.33779195940E+03  0.00000000000E+00 0.  1.
         14    1    5    5    0    0 -0.22398287182E+02 -0.26255041889E+02  0.16051856342E+03  0.16418653932E+03  0.00000000000E+00 0. -1.
         13    1    3    3    0    0 -0.45452515084E+02 -0.44318465976E+02 -0.13314039703E+04  0.13329165727E+04  0.00000000000E+00 0. -1.
        -14    1    3    3    0    0 -0.13541723411E+02  0.33471258768E+02 -0.59930360909E+03  0.60039030581E+03  0.00000000000E+00 0.  1.
          5    1    4    4  501    0  0.81162352016E+02  0.26554778921E+02 -0.51717111306E+02  0.99923048743E+02  0.41800000000E+01 0.  1.
         -5    1    4    4    0  501 -0.56325868264E+01 -0.43035957936E+02 -0.11172885862E+03  0.11993594106E+03  0.41800000000E+01 0.  1.
</event>
<event>
11    1  0.8453735E-009  0.3018134E+03  0.7561462E-02  0.9994267E-01
         22   -1    0    0    0    0  0.00000000000E+00  0.00000000000E+00  0.44236360429E+03  0.44236360429E+03  0.00000000000E+00 0. -1.
         22   -1    0    0    0    0 -0.00000000000E+00 -0.00000000000E+00 -0.86868556594E+03  0.86868556594E+03  0.00000000000E+00 0.  1.
        -24    2    1    2    0    0  0.20745234219E+03 -0.18157347965E+03 -0.73426128467E+03  0.78842230526E+03  0.80403323770E+02 0.  0.
         25    2    1    2    0    0 -0.22080774478E+03  0.15180976100E+03  0.12267550141E+03  0.32015439145E+03  0.12508913632E+03 0.  0.
         24    2    1    2    0    0  0.13355402590E+02  0.29763718646E+02  0.18526382161E+03  0.20247247353E+03  0.74887737401E+02 0.  0.
        -13    1    5    5    0    0 -0.94298746248E+00  0.21649258153E+02  0.60394848711E+01  0.22495665837E+02  0.00000000000E+00 0.  1.
         14    1    5    5    0    0  0.14298390052E+02  0.81144604925E+01  0.17922433674E+03  0.17997680769E+03  0.00000000000E+00 0. -1.
         13    1    3    3    0    0 -0.72686299525E+01 -0.88341853080E+01 -0.34744114446E+02  0.36579082822E+02  0.00000000000E+00 0. -1.
        -14    1    3    3    0    0  0.21472097214E+03 -0.17273929434E+03 -0.69951717022E+03  0.75184322244E+03  0.00000000000E+00 0.  1.
          5    1    4    4  501    0 -0.45627210497E+02 -0.18090843391E+02  0.59920863976E+01  0.49623567503E+02  0.41800000000E+01 0. -1.
         -5    1    4    4    0  501 -0.17518053428E+03  0.16990060439E+03  0.11668341502E+03  0.27053082394E+03  0.41800000000E+01 0. -1.
</event>
<event>
11    1  0.8453735E-009  0.1735301E+03  0.7561462E-02  0.1075000E+00
         22   -1    0    0    0    0  0.00000000000E+00  0.00000000000E+00  0.25374100012E+04  0.25374100012E+04  0.00000000000E+00 0. -1.
         22   -1    0    0    0    0 -0.00000000000E+00 -0.00000000000E+00 -0.90021513351E+03  0.90021513351E+03  0.00000000000E+00 0.  1.
        -24    2    1    2    0    0 -0.14535177755E+02 -0.13981101254E+02 -0.87732381787E+03  0.88112773900E+03  0.79260762335E+02 0.  0.
         25    2    1    2    0    0  0.13251982395E+03  0.24087562490E+02  0.43756183656E+03  0.47460527299E+03  0.12509232562E+03 0.  0.
         24    2    1    2    0    0 -0.11798464620E+03 -0.10106461236E+02  0.20769568490E+04  0.20818921227E+04  0.80638332985E+02 0.  0.
        -11    1    5    5    0    0 -0.26826445543E+00  0.23530366553E+01  0.65858059084E+03  0.65858484904E+03  0.00000000000E+00 0.  1.
         12    1    5    5    0    0 -0.11771638174E+03 -0.12459497892E+02  0.14183762582E+04  0.14233072737E+04  0.00000000000E+00 0. -1.
         13    1    3    3    0    0  0.50578019494E+01 -0.32280750776E+02 -0.15995733878E+03  0.16326046202E+03  0.00000000000E+00 0. -1.
        -14    1    3    3    0    0 -0.19592979704E+02  0.18299649522E+02 -0.71736647909E+03  0.71786727698E+03  0.00000000000E+00 0.  1.
          5    1    4    4  501    0 -0.46280566550E+01 -0.31603985583E+02  0.47619863905E+02  0.57492213834E+02  0.41800000000E+01 0. -1.
         -5    1    4    4    0  501  0.13714788061E+03  0.55691548073E+02  0.38994197266E+03  0.41711305916E+03  0.41800000000E+01 0. -1.
</event>
<event>
11    1  0.8453735E-009  0.1522222E+03  0.7561462E-02  0.1094630E+00
         22   -1    0    0    0    0  0.00000000000E+00  0.00000000000E+00  0.16041011228E+04  0.16041011228E+04  0.00000000000E+00 0.  1.
         22   -1    0    0    0    0 -0.00000000000E+00 -0.00000000000E+00 -0.39222643841E+03  0.39222643841E+03  0.00000000000E+00 0.  1.
        -24    2    1    2    0    0  0.87647628277E+01  0.90696811305E+02 -0.28114268576E+03  0.30580907856E+03  0.78582759745E+02 0.  0.
         25    2    1    2    0    0 -0.26745051747E+02 -0.65239364689E+02 -0.44719240372E+02  0.15039811685E+03  0.12509320762E+03 0.  0.
         24    2    1    2    0    0  0.17980288919E+02 -0.25457446616E+02  0.15377366106E+04  0.15401203658E+04  0.79783992268E+02 0.  0.
        -13    1    5    5    0    0 -0.48754172200E+01 -0.45977075235E+02  0.12266600216E+04  0.12275310464E+04  0.00000000000E+00 0.  1.
         14    1    5    5    0    0  0.22855706139E+02  0.20519628619E+02  0.31107658893E+03  0.31258931946E+03  0.00000000000E+00 0. -1.
         11    1    3    3    0    0  0.44419201000E+01  0.60728513532E+02 -0.71165588484E+02  0.93660151582E+02  0.00000000000E+00 0. -1.
        -12    1    3    3    0    0  0.43228427277E+01  0.29968297773E+02 -0.20997709727E+03  0.21214892698E+03  0.00000000000E+00 0.  1.
          5    1    4    4  501    0 -0.20323568645E+02 -0.78847171460E+02 -0.78501593996E+02  0.11318081352E+03  0.41800000000E+01 0. -1.
         -5    1    4    4    0  501 -0.64214831017E+01  0.13607806770E+02  0.33782353624E+02  0.37217303324E+02  0.41800000000E+01 0. -1.
</event>
<event>
11    1  0.8453735E-009  0.1278849E+03  0.7561462E-02  0.1121895E+00
         22   -1    0    0    0    0  0.00000000000E+00  0.00000000000E+00  0.71964997895E+03  0.71964997895E+03  0.00000000000E+00 0.  1.
         22   -1    0    0    0    0 -0.00000000000E+00 -0.00000000000E+00 -0.10595388693E+04  0.10595388693E+04  0.00000000000E+00 0.  1.
         24    2    1    2    0    0  0.23753099689E+02  0.13434254031E+02 -0.98297617708E+03  0.98678222387E+03  0.82172402457E+02 0.  0.
         25    2    1    2    0    0 -0.38294348967E+01 -0.68353340565E+01 -0.17854843478E+02  0.12659994957E+03  0.12508942973E+03 0.  0.
        -24    2    1    2    0    0 -0.19923664792E+02 -0.65989199746E+01  0.66094213025E+03  0.66580667476E+03  0.77546956471E+02 0.  0.
        -13    1    3    3    0    0  0.20020191884E+02  0.26487714452E+02 -0.95605453835E+03  0.95663090447E+03  0.00000000000E+00 0.  1.
         14    1    3    3    0    0  0.37329078055E+01 -0.13053460421E+02 -0.26921638730E+02  0.30151319400E+02  0.00000000000E+00 0. -1.
         13    1    5    5    0    0  0.11003708802E+02 -0.32749552974E+02  0.18915146976E+03  0.19228076695E+03  0.00000000000E+00 0. -1.
        -14    1    5    5    0    0 -0.30927373594E+02  0.26150632999E+02  0.47179066049E+03  0.47352590781E+03  0.00000000000E+00 0.  1.
          5    1    4    4  501    0  0.96912269483E+01 -0.28160639459E+02 -0.65746654636E+02  0.72298246800E+02  0.41800000000E+01 0. -1.
         -5    1    4    4    0  501 -0.13520661845E+02  0.21325305403E+02  0.47891811158E+02  0.54301702766E+02  0.41800000000E+01 0. -1.
</event>
<event>
11    1  0.8453735E-009  0.1266599E+03  0.7561462E-02  0.1123442E+00
         22   -1    0    0    0    0  0.00000000000E+00  0.00000000000E+00  0.10942394217E+04  0.10942394217E+04  0.00000000000E+00 0. -1.
         22   -1    0    0    0    0 -0.00000000000E+00 -0.00000000000E+00 -0.36025113025E+03  0.36025113025E+03  0.00000000000E+00 0. -1.
        -24    2    1    2    0    0 -0.41074320142E+01 -0.17172888104E+02 -0.27535703197E+03  0.28809747337E+03  0.82866639984E+02 0.  0.
         25    2    1    2    0    0  0.25241698003E+02  0.34047480876E+02 -0.20120509975E+02  0.13359897974E+03  0.12508988046E+03 0.  0.
         24    2    1    2    0    0 -0.21134265988E+02 -0.16874592772E+02  0.10294658334E+04  0.10327940989E+04  0.78309255022E+02 0.  0.
        -11    1    5    5    0    0 -0.13652466599E+02  0.23364084496E+01  0.29228326555E+02  0.32344145095E+02  0.00000000000E+00 0.  1.
         12    1    5    5    0    0 -0.74817993890E+01 -0.19211001222E+02  0.10002375068E+04  0.10004499538E+04  0.00000000000E+00 0. -1.
         11    1    3    3    0    0 -0.62183686179E+01 -0.73216020448E+01 -0.27760801437E+03  0.27777415936E+03  0.00000000000E+00 0. -1.
        -12    1    3    3    0    0  0.21109366037E+01 -0.98512860594E+01  0.22509824006E+01  0.10323314009E+02  0.00000000000E+00 0.  1.
          5    1    4    4  501    0  0.30838332379E+02  0.23662676437E+02  0.49378969239E+02  0.62981584636E+02  0.41800000000E+01 0. -1.
         -5    1    4    4    0  501 -0.55966343769E+01  0.10384804439E+02 -0.69499479214E+02  0.70617395100E+02  0.41800000000E+01 0. -1.
</event>
<event>
11    1  0.8453735E-009  0.3180954E+03  0.7561462E-02  0.9928109E-01
         22   -1    0    0    0    0  0.00000000000E+00  0.00000000000E+00  0.17063898594E+04  0.17063898594E+04  0.00000000000E+00 0.  1.
         22   -1    0    0    0    0 -0.00000000000E+00 -0.00000000000E+00 -0.31724996163E+04  0.31724996163E+04  0.00000000000E+00 0.  1.
        -24    2    1    2    0    0 -0.70700071800E+01 -0.39309705142E+01 -0.26851847766E+04  0.26863419523E+04  0.78424246778E+02 0.  0.
         25    2    1    2    0    0  0.28471392649E+03 -0.87495752069E+02 -0.41761096318E+03  0.52798128535E+03  0.12509114494E+03 0.  0.
         24    2    1    2    0    0 -0.27764391931E+03  0.91426722583E+02  0.16366859829E+04  0.16645662380E+04  0.81208144485E+02 0.  0.
        -11    1    5    5    0    0 -0.25480400055E+03  0.74657811227E+02  0.15670717509E+04  0.15894064112E+04  0.00000000000E+00 0.  1.
         12    1    5    5    0    0 -0.22839918759E+02  0.16768911356E+02  0.69614231951E+02  0.75159826816E+02  0.00000000000E+00 0. -1.
         13    1    3    3    0    0  0.17099027932E+02  0.31460292188E+02 -0.13124022216E+04  0.13128905963E+04  0.00000000000E+00 0. -1.
        -14    1    3    3    0    0 -0.24169035112E+02 -0.35391262702E+02 -0.13727825550E+04  0.13734513560E+04  0.00000000000E+00 0.  1.
          5    1    4    4  501    0  0.23513769414E+03 -0.77326563630E+02 -0.40657594833E+03  0.47601534304E+03  0.41800000000E+01 0. -1.
         -5    1    4    4    0  501  0.49576232353E+02 -0.10169188439E+02 -0.11035014855E+02  0.51965942315E+02  0.41800000000E+01 0. -1.
</event>
<event>
11    1  0.8453735E-009  0.1428807E+03  0.7561462E-02  0.1104384E+00
         22   -1    0    0    0    0  0.00000000000E+00  0.00000000000E+00  0.90362459984E+03  0.90362459984E+03  0.00000000000E+00 0.  1.
         22   -1    0    0    0    0 -0.00000000000E+00 -0.00000000000E+00 -0.11239113600E+03  0.11239113600E+03  0.00000000000E+00 0. -1.
        -24    2    1    2    0    0 -0.60290123620E+02  0.22557373456E+02 -0.42670613718E+02  0.11087894048E+03  0.79558934536E+02 0.  0.
         25    2    1    2    0    0  0.96710185078E+02 -0.12563825749E+02  0.16055772534E+03  0.22569242981E+03  0.12509028775E+03 0.  0.
         24    2    1    2    0    0 -0.36420061458E+02 -0.99935477071E+01  0.67334635222E+03  0.67944436555E+03  0.82601718818E+02 0.  0.
        -13    1    5    5    0    0 -0.27752309791E+02  0.21264515608E+02  0.57125020787E+03  0.57231911581E+03  0.00000000000E+00 0.  1.
         14    1    5    5    0    0 -0.86677516669E+01 -0.31258063315E+02  0.10209614435E+03  0.10712524974E+03  0.00000000000E+00 0. -1.
         13    1    3    3    0    0 -0.57485069787E+02 -0.10923549159E+02 -0.49441858040E+02  0.76605185863E+02  0.00000000000E+00 0. -1.
        -14    1    3    3    0    0 -0.28050538330E+01  0.33480922615E+02  0.67712443220E+01  0.34273754622E+02  0.00000000000E+00 0.  1.
          5    1    4    4  501    0 -0.28671208324E+02 -0.17823322389E+01  0.13266115785E+02  0.31916721683E+02  0.41800000000E+01 0. -1.
         -5    1    4    4    0  501  0.12538139340E+03 -0.10781493510E+02  0.14729160955E+03  0.19377570812E+03  0.41800000000E+01 0. -1.
</event>
<event>
11    1  0.8453735E-009  0.1472461E+03  0.7561462E-02  0.1099726E+00
         22   -1    0    0    0    0  0.00000000000E+00  0.00000000000E+00  0.65753649648E+02  0.65753649648E+02  0.00000000000E+00 0. -1.
         22   -1    0    0    0    0 -0.00000000000E+00 -0.00000000000E+00 -0.19613417086E+04  0.19613417086E+04  0.00000000000E+00 0. -1.
         24    2    1    2    0    0  0.71549554612E+02 -0.32229412803E+02 -0.16988541775E+04  0.17023002074E+04  0.74581538352E+02 0.  0.
         25    2    1    2    0    0 -0.30340524143E+02  0.82006184121E+02 -0.14093093711E+03  0.20773125756E+03  0.12508071272E+03 0.  0.
        -24    2    1    2    0    0 -0.41209030469E+02 -0.49776771318E+02 -0.55802944402E+02  0.11706389335E+03  0.80087922734E+02 0.  0.
        -11    1    3    3    0    0 -0.28002777730E+01 -0.30795199742E+02 -0.69946668245E+03  0.70014985949E+03  0.00000000000E+00 0.  1.
         12    1    3    3    0    0  0.74349832385E+02 -0.14342130603E+01 -0.99938749504E+03  0.10021503479E+04  0.00000000000E+00 0. -1.
         11    1    5    5    0    0  0.47913877486E+01 -0.31163720772E+02  0.11397934617E+02  0.33526822134E+02  0.00000000000E+00 0. -1.
        -12    1    5    5    0    0 -0.46000418217E+02 -0.18613050547E+02 -0.67200879019E+02  0.83537071218E+02  0.00000000000E+00 0.  1.
          5    1    4    4  501    0 -0.17744049472E+02 -0.16102026170E+02 -0.95959357271E+02  0.98993924997E+02  0.41800000000E+01 0.  1.
         -5    1    4    4    0  501 -0.12596474671E+02  0.98108210291E+02 -0.44971579840E+02  0.10873733257E+03  0.41800000000E+01 0.  1.
</event>
<event>
11    1  0.8453735E-009  0.1514491E+03  0.7561462E-02  0.1095407E+00
         22   -1    0    0    0    0  0.00000000000E+00  0.00000000000E+00  0.76837934685E+03  0.76837934685E+03  0.00000000000E+00 0.  1.
         22   -1    0    0    0    0 -0.00000000000E+00 -0.00000000000E+00 -0.11008221280E+04  0.11008221280E+04  0.00000000000E+00 0.  1.
         24    2    1    2    0    0  0.11566985411E+01 -0.86007372568E+02 -0.10583871739E+04  0.10648640616E+04  0.79708555275E+02 0.  0.
         25    2    1    2    0    0  0.16976249448E+02  0.57459777327E+02  0.10810129764E+03  0.17585167942E+03  0.12509238006E+03 0.  0.
        -24    2    1    2    0    0 -0.18132947989E+02  0.28547595241E+02  0.61784309514E+03  0.62848573376E+03  0.11009295309E+03 0.  0.
        -11    1    3    3    0    0 -0.91908738579E+01 -0.55874638552E+02 -0.95504498498E+03  0.95672220144E+03  0.00000000000E+00 0.  1.
         12    1    3    3    0    0  0.10347572399E+02 -0.30132734016E+02 -0.10334218891E+03  0.10814186018E+03  0.00000000000E+00 0. -1.
         11    1    5    5    0    0  0.41285373748E+02  0.25526090235E+02  0.17295526929E+03  0.17963738070E+03  0.00000000000E+00 0. -1.
        -12    1    5    5    0    0 -0.59418321737E+02  0.30215050061E+01  0.44488782585E+03  0.44884835306E+03  0.00000000000E+00 0.  1.
          5    1    4    4  501    0 -0.25667722445E+02  0.31170186806E+01  0.10320335525E+03  0.10647512722E+03  0.41800000000E+01 0.  1.
         -5    1    4    4    0  501  0.42643971893E+02  0.54342758646E+02  0.48979423875E+01  0.69376552204E+02  0.41800000000E+01 0.  1.
</event>
<event>
11    1  0.8453735E-009  0.1643860E+03  0.7561462E-02  0.1083023E+00
         22   -1    0    0    0    0  0.00000000000E+00  0.00000000000E+00  0.13088674200E+04  0.13088674200E+04  0.00000000000E+00 0. -1.
         22   -1    0    0    0    0 -0.00000000000E+00 -0.00000000000E+00 -0.25542104952E+03  0.25542104952E+03  0.00000000000E+00 0. -1.
        -24    2    1    2    0    0  0.18462976288E+02 -0.10464088466E+03 -0.21042111128E+03  0.24880406972E+03  0.79597894484E+02 0.  0.
         25    2    1    2    0    0 -0.57984047303E+01  0.11354748114E+03  0.27205874047E+03  0.32029504644E+03  0.12508519711E+03 0.  0.
         24    2    1    2    0    0 -0.12664571558E+02 -0.89065964857E+01  0.99180874132E+03  0.99518935339E+03  0.80483233709E+02 0.  0.
        -11    1    5    5    0    0 -0.32959449770E+02 -0.35226087883E+02  0.53316777729E+03  0.53534575868E+03  0.00000000000E+00 0.  1.
         12    1    5    5    0    0  0.20294878212E+02  0.26319491397E+02  0.45864096403E+03  0.45984359470E+03  0.00000000000E+00 0. -1.
         13    1    3    3    0    0  0.23269642533E+02 -0.97470555430E+02 -0.21628259492E+03  0.23836976802E+03  0.00000000000E+00 0. -1.
        -14    1    3    3    0    0 -0.48066662450E+01 -0.71703292259E+01  0.58614836447E+01  0.10434301707E+02  0.00000000000E+00 0.  1.
          5    1    4    4  501    0 -0.46053642255E+02  0.14192126688E+02  0.33840546443E+02  0.59033968259E+02  0.41800000000E+01 0. -1.
         -5    1    4    4    0  501  0.40255237525E+02  0.99355354453E+02  0.23821819402E+03  0.26126107818E+03  0.41800000000E+01 0. -1.
</event>
<event>
11    1  0.8453735E-009  0.1650789E+03  0.7561462E-02  0.1082395E+00
         22   -1    0    0    0    0  0.00000000000E+00  0.00000000000E+00  0.16370113923E+03  0.16370113923E+03  0.00000000000E+00 0.  1.
         22   -1    0    0    0    0 -0.00000000000E+00 -0.00000000000E+00 -0.18546389556E+04  0.18546389556E+04  0.00000000000E+00 0. -1.
         24    2    1    2    0    0 -0.32219924591E+02 -0.40406549160E+02 -0.17007694738E+04  0.17034040235E+04  0.79357744405E+02 0.  0.
         25    2    1    2    0    0  0.12087927044E+03 -0.15036755932E+02 -0.30093261130E+02  0.17717274922E+03  0.12508667654E+03 0.  0.
        -24    2    1    2    0    0 -0.88659345853E+02  0.55443305091E+02  0.39924918529E+02  0.13776332212E+03  0.80313723081E+02 0.  0.
        -13    1    3    3    0    0  0.22164897504E+02 -0.16790543351E+02 -0.27499681142E+03  0.27639907981E+03  0.00000000000E+00 0.  1.
         14    1    3    3    0    0 -0.54384822095E+02 -0.23616005808E+02 -0.14257726624E+04  0.14270049437E+04  0.00000000000E+00 0. -1.
         11    1    5    5    0    0  0.44627685401E+01  0.25856287869E+02 -0.99488150180E+01  0.28061412039E+02  0.00000000000E+00 0. -1.
        -12    1    5    5    0    0 -0.93122114393E+02  0.29587017223E+02  0.49873733547E+02  0.10970191008E+03  0.00000000000E+00 0.  1.
          5    1    4    4  501    0  0.14637083848E+03 -0.19263928295E+02 -0.31287748888E+02  0.15096992059E+03  0.41800000000E+01 0.  1.
         -5    1    4    4    0  501 -0.25491568039E+02  0.42271723637E+01  0.11944877581E+01  0.26202828632E+02  0.41800000000E+01 0.  1.
</event>
<event>
11    1  0.8453735E-009  0.1353178E+03  0.7561462E-02  0.1112902E+00
         22   -1    0    0    0    0  0.00000000000E+00  0.00000000000E+00  0.99467240166E+03  0.99467240166E+03  0.00000000000E+00 0. -1.
         22   -1    0    0    0    0 -0.00000000000E+00 -0.00000000000E+00 -0.47292380396E+03  0.47292380396E+03  0.00000000000E+00 0.  1.
         24    2    1    2    0    0 -0.11115794201E+02 -0.25405433639E+02 -0.25969836905E+03  0.27358737215E+03  0.81472758469E+02 0.  0.
         25    2    1    2    0    0  0.56161694369E+02  0.18536398860E+00 -0.18081534100E+03  0.22693006758E+03  0.12509555451E+03 0.  0.
        -24    2    1    2    0    0 -0.45045900167E+02  0.25220069650E+02  0.96226230775E+03  0.96707876588E+03  0.81408878380E+02 0.  0.
        -11    1    3    3    0    0  0.24512942246E+02 -0.23209987858E+02 -0.20824897384E+03  0.21096735051E+03  0.00000000000E+00 0.  1.
         12    1    3    3    0    0 -0.35628736447E+02 -0.21954457811E+01 -0.51449395209E+02  0.62620021641E+02  0.00000000000E+00 0. -1.
         11    1    5    5    0    0 -0.19831332798E+02  0.42183668332E+02  0.83255860517E+03  0.83386244350E+03  0.00000000000E+00 0. -1.
        -12    1    5    5    0    0 -0.25214567369E+02 -0.16963598682E+02  0.12970370257E+03  0.13321632238E+03  0.00000000000E+00 0.  1.
          5    1    4    4  501    0 -0.26771214583E+02 -0.27686798102E+02 -0.10196483814E+03  0.10907592464E+03  0.41800000000E+01 0. -1.
         -5    1    4    4    0  501  0.82932908952E+02  0.27872162091E+02 -0.78850502861E+02  0.11785414294E+03  0.41800000000E+01 0. -1.
</event>
<event>
11    1  0.8453735E-009  0.1786493E+03  0.7561462E-02  0.1070741E+00
         22   -1    0    0    0    0  0.00000000000E+00  0.00000000000E+00  0.14974115573E+04  0.14974115573E+04  0.00000000000E+00 0.  1.
         22   -1    0    0    0    0 -0.00000000000E+00 -0.00000000000E+00 -0.79803000211E+03  0.79803000211E+03  0.00000000000E+00 0.  1.
         24    2    1    2    0    0  0.55481713649E+02  0.11396130235E+03 -0.74915337581E+03  0.76390393350E+03  0.79076166719E+02 0.  0.
         25    2    1    2    0    0 -0.86371811825E+02 -0.12978739295E+03  0.20993897870E+03  0.28987370923E+03  0.12509010864E+03 0.  0.
        -24    2    1    2    0    0  0.30890098176E+02  0.15826090603E+02  0.12385959523E+04  0.12416639166E+04  0.80029279707E+02 0.  0.
        -13    1    3    3    0    0  0.60598165790E+02  0.41415645106E+02 -0.29676474732E+03  0.30570689984E+03  0.00000000000E+00 0.  1.
         14    1    3    3    0    0 -0.51164521412E+01  0.72545657239E+02 -0.45238862849E+03  0.45819703366E+03  0.00000000000E+00 0. -1.
         11    1    5    5    0    0  0.76686095591E+01  0.10251051832E+02  0.27514002159E+02  0.30346531120E+02  0.00000000000E+00 0. -1.
        -12    1    5    5    0    0  0.23221488617E+02  0.55750387716E+01  0.12110819501E+04  0.12113173855E+04  0.00000000000E+00 0.  1.
          5    1    4    4  501    0 -0.68749952054E+02 -0.52945816447E+02  0.27561554482E+02  0.91142345110E+02  0.41800000000E+01 0. -1.
         -5    1    4    4    0  501 -0.17621859771E+02 -0.76841576501E+02  0.18237742421E+03  0.19873136412E+03  0.41800000000E+01 0. -1.
</event>
<event>
11    1  0.8453735E-009  0.1467975E+03  0.7561462E-02  0.1100197E+00
         22   -1    0    0    0    0  0.00000000000E+00  0.00000000000E+00  0.29998346888E+03  0.29998346888E+03  0.00000000000E+00 0. -1.
         22   -1    0    0    0    0 -0.00000000000E+00 -0.00000000000E+00 -0.15281929657E+04  0.15281929657E+04  0.00000000000E+00 0. -1.
        -24    2    1    2    0    0 -0.36036121883E+02  0.65334364381E+02 -0.13207528913E+04  0.13251806648E+04  0.78411817578E+02 0.  0.
         25    2    1    2    0    0  0.79958511679E+02 -0.85874830258E+02 -0.15950944173E+03  0.23421952724E+03  0.12509066664E+03 0.  0.
         24    2    1    2    0    0 -0.43922389796E+02  0.20540465878E+02  0.25205283621E+03  0.26877624256E+03  0.79743020143E+02 0.  0.
        -11    1    5    5    0    0  0.23145948513E+02  0.90695827910E+01  0.79348895840E+02  0.83151906386E+02  0.00000000000E+00 0.  1.
         12    1    5    5    0    0 -0.67068338309E+02  0.11470883087E+02  0.17270394037E+03  0.18562433618E+03  0.00000000000E+00 0. -1.
         13    1    3    3    0    0 -0.39984762709E+02  0.22470285625E+02 -0.10522545439E+04  0.10532536827E+04  0.00000000000E+00 0. -1.
        -14    1    3    3    0    0  0.39486408253E+01  0.42864078755E+02 -0.26849834742E+03  0.27192698207E+03  0.00000000000E+00 0.  1.
          5    1    4    4  501    0  0.39256643478E+02 -0.11138318987E+02 -0.14124426068E+03  0.14708011348E+03  0.41800000000E+01 0.  1.
         -5    1    4    4    0  501  0.40701868201E+02 -0.74736511272E+02 -0.18265181051E+02  0.87139413763E+02  0.41800000000E+01 0.  1.
</event>
<event>
11    1  0.8453735E-009  0.1357115E+03  0.7561462E-02  0.1112444E+00
         22   -1    0    0    0    0  0.00000000000E+00  0.00000000000E+00  0.65133102865E+03  0.65133102865E+03  0.00000000000E+00 0. -1.
         22   -1    0    0    0    0 -0.00000000000E+00 -0.00000000000E+00 -0.15385629078E+04  0.15385629078E+04  0.00000000000E+00 0. -1.
         24    2    1    2    0    0  0.15377516002E+02 -0.23295133834E+01 -0.12770866600E+04  0.12798183865E+04  0.82114983934E+02 0.  0.
         25    2    1    2    0    0  0.19497774918E+02  0.42113855547E+02 -0.23685489854E+03  0.27183093592E+03  0.12505228788E+03 0.  0.
        -24    2    1    2    0    0 -0.34875290920E+02 -0.39784342164E+02  0.62670967940E+03  0.63824461406E+03  0.10859136855E+03 0.  0.
        -13    1    3    3    0    0  0.96210814753E+01  0.33792729631E+02 -0.30052884978E+03  0.30257578114E+03  0.00000000000E+00 0.  1.
         14    1    3    3    0    0  0.57564345267E+01 -0.36122243015E+02 -0.97655781024E+03  0.97724260535E+03  0.00000000000E+00 0. -1.
         11    1    5    5    0    0 -0.37426314371E+02  0.31712662535E+02  0.23725603622E+03  0.24227432529E+03  0.00000000000E+00 0. -1.
        -12    1    5    5    0    0  0.25510234504E+01 -0.71497004698E+02  0.38945364317E+03  0.39597028876E+03  0.00000000000E+00 0.  1.
          5    1    4    4  501    0  0.64569908535E+02  0.50686277830E+02 -0.11336040587E+03  0.14002294765E+03  0.41800000000E+01 0.  1.
         -5    1    4    4    0  501 -0.45072133617E+02 -0.85724222824E+01 -0.12349449267E+03  0.13180798828E+03  0.41800000000E+01 0.  1.
</event>
<event>
11    1  0.8453735E-009  0.1918363E+03  0.7561462E-02  0.1060452E+00
         22   -1    0    0    0    0  0.00000000000E+00  0.00000000000E+00  0.47324420759E+03  0.47324420759E+03  0.00000000000E+00 0.  1.
         22   -1    0    0    0    0 -0.00000000000E+00 -0.00000000000E+00 -0.60896599260E+03  0.60896599260E+03  0.00000000000E+00 0. -1.
        -24    2    1    2    0    0  0.13628394223E+03  0.17280049166E+02 -0.45213952002E+03  0.47945537686E+03  0.81088839131E+02 0.  0.
         25    2    1    2    0    0 -0.24813534476E+03  0.52780143743E+02  0.39371415333E+02  0.28557872334E+03  0.12509278951E+03 0.  0.
         24    2    1    2    0    0  0.11185140253E+03 -0.70060192909E+02  0.27704631967E+03  0.31717609998E+03  0.80167626123E+02 0.  0.
        -13    1    5    5    0    0  0.11993584206E+03 -0.77449947754E+02  0.26408559031E+03  0.30020709456E+03  0.00000000000E+00 0.  1.
         14    1    5    5    0    0 -0.80844395337E+01  0.73897548451E+01  0.12960729364E+02  0.16969005418E+02  0.00000000000E+00 0. -1.
         13    1    3    3    0    0  0.12901876042E+03  0.30128734885E+02 -0.31785812869E+03  0.34436517126E+03  0.00000000000E+00 0. -1.
        -14    1    3    3    0    0  0.72651818104E+01 -0.12848685719E+02 -0.13428139133E+03  0.13509020560E+03  0.00000000000E+00 0.  1.
          5    1    4    4  501    0 -0.13811474570E+02  0.37344590856E+02  0.30871805674E+02  0.50556068692E+02  0.41800000000E+01 0. -1.
         -5    1    4    4    0  501 -0.23432387019E+03  0.15435552887E+02  0.84996096591E+01  0.23502265465E+03  0.41800000000E+01 0. -1.
</event>
<event>
11    1  0.8453735E-009  0.2222059E+03  0.7561462E-02  0.1039844E+00
         22   -1    0    0    0    0  0.00000000000E+00  0.00000000000E+00  0.96776809671E+02  0.96776809671E+02  0.00000000000E+00 0. -1.
         22   -1    0    0    0    0 -0.00000000000E+00 -0.00000000000E+00 -0.20138229720E+04  0.20138229720E+04  0.00000000000E+00 0.  1.
        -24    2    1    2    0    0  0.82292966912E+01 -0.48135070515E+01 -0.13099406068E+04  0.13137615364E+04  0.99669904804E+02 0.  0.
         25    2    1    2    0    0  0.17483379321E+03  0.32195581935E+02 -0.54403019260E+03  0.58584901796E+03  0.12508721213E+03 0.  0.
         24    2    1    2    0    0 -0.18306308990E+03 -0.27382074884E+02 -0.63075362923E+02  0.21098922734E+03  0.79221712538E+02 0.  0.
        -13    1    5    5    0    0  0.38392778543E+01 -0.61715406220E+01  0.71596955093E+01  0.10202411866E+02  0.00000000000E+00 0.  1.
         14    1    5    5    0    0 -0.18690236775E+03 -0.21210534262E+02 -0.70235058433E+02  0.20078681547E+03  0.00000000000E+00 0. -1.
         13    1    3    3    0    0 -0.48538085204E+01 -0.21655078043E+02 -0.65866604644E+02  0.69504758611E+02  0.00000000000E+00 0. -1.
        -14    1    3    3    0    0  0.13083105212E+02  0.16841570992E+02 -0.12440740022E+04  0.12442567778E+04  0.00000000000E+00 0.  1.
          5    1    4    4  501    0  0.24435783461E+02 -0.41431776794E+02 -0.15342016071E+03  0.16083817257E+03  0.41800000000E+01 0. -1.
         -5    1    4    4    0  501  0.15039800975E+03  0.73627358730E+02 -0.39061003189E+03  0.42501084539E+03  0.41800000000E+01 0. -1.
</event>
<event>
11    1  0.8453735E-009  0.1301982E+03  0.7561462E-02  0.1119026E+00
         22   -1    0    0    0    0  0.00000000000E+00  0.00000000000E+00  0.23968178541E+03  0.23968178541E+03  0.00000000000E+00 0.  1.
         22   -1    0    0    0    0 -0.00000000000E+00 -0.00000000000E+00 -0.57608604617E+03  0.57608604617E+03  0.00000000000E+00 0. -1.
         24    2    1    2    0    0 -0.32560303625E+02  0.26865791436E+01 -0.51749418756E+03  0.52474497514E+03  0.80558448896E+02 0.  0.
         25    2    1    2    0    0  0.40824101054E+02 -0.33397479145E+02  0.80699143913E+02  0.15789365649E+03  0.12504421654E+03 0.  0.
        -24    2    1    2    0    0 -0.82637974283E+01  0.30710900001E+02  0.10039078289E+03  0.13312919995E+03  0.81447067870E+02 0.  0.
        -13    1    3    3    0    0 -0.36609082158E+02 -0.50507918500E+01 -0.91775568675E+02  0.98936800031E+02  0.00000000000E+00 0.  1.
         14    1    3    3    0    0  0.40487785332E+01  0.77373709936E+01 -0.42571861889E+03  0.42580817510E+03  0.00000000000E+00 0. -1.
         11    1    5    5    0    0 -0.43663898933E+02  0.56236750059E+01  0.52099041751E+02  0.68209031235E+02  0.00000000000E+00 0. -1.
        -12    1    5    5    0    0  0.35400101504E+02  0.25087224995E+02  0.48291741136E+02  0.64920168719E+02  0.00000000000E+00 0.  1.
          5    1    4    4  501    0  0.15210968573E+02 -0.80355747528E+02  0.44857016983E+02  0.93370466950E+02  0.41800000000E+01 0.  1.
         -5    1    4    4    0  501  0.25613132480E+02  0.46958268384E+02  0.35842126930E+02  0.64523189536E+02  0.41800000000E+01 0.  1.
</event>
<event>
11    1  0.8453735E-009  0.1370836E+03  0.7561462E-02  0.1110859E+00
         22   -1    0    0    0    0  0.00000000000E+00  0.00000000000E+00  0.18263481939E+04  0.18263481939E+04  0.00000000000E+00 0.  1.
         22   -1    0    0    0    0 -0.00000000000E+00 -0.00000000000E+00 -0.30876346474E+03  0.30876346474E+03  0.00000000000E+00 0.  1.
        -24    2    1    2    0    0  0.50588402349E+02  0.75952161846E+01 -0.21018789014E+03  0.23159397085E+03  0.82703956430E+02 0.  0.
         25    2    1    2    0    0 -0.86344347933E+02 -0.95585316150E+01 -0.19948485790E+02  0.15359586299E+03  0.12508810933E+03 0.  0.
         24    2    1    2    0    0  0.35755945584E+02  0.19633154303E+01  0.17477211051E+04  0.17499218248E+04  0.80093629344E+02 0.  0.
        -11    1    5    5    0    0  0.61536790492E+02 -0.16998242832E+01  0.12713775617E+04  0.12728670671E+04  0.00000000000E+00 0.  1.
         12    1    5    5    0    0 -0.25780844908E+02  0.36631397135E+01  0.47634354340E+03  0.47705475776E+03  0.00000000000E+00 0. -1.
         13    1    3    3    0    0 -0.17274555450E+02 -0.81549769459E+00 -0.98394787985E+01  0.19897000918E+02  0.00000000000E+00 0. -1.
        -14    1    3    3    0    0  0.67862957800E+02  0.84107138792E+01 -0.20034841134E+03  0.21169696993E+03  0.00000000000E+00 0.  1.
          5    1    4    4  501    0 -0.15926099237E+01 -0.21497135522E+02  0.42315307320E+02  0.47673062369E+02  0.41800000000E+01 0. -1.
         -5    1    4    4    0  501 -0.84751738009E+02  0.11938603907E+02 -0.62263793110E+02  0.10592280062E+03  0.41800000000E+01 0. -1.
</event>
<event>
11    1  0.8453735E-009  0.1383723E+03  0.7561462E-02  0.1109390E+00
         22   -1    0    0    0    0  0.00000000000E+00  0.00000000000E+00  0.29681175385E+03  0.29681175385E+03  0.00000000000E+00 0.  1.
         22   -1    0    0    0    0 -0.00000000000E+00 -0.00000000000E+00 -0.11356468791E+04  0.11356468791E+04  0.00000000000E+00 0.  1.
        -24    2    1    2    0    0 -0.47014499886E+02 -0.35077370684E+02 -0.10034814794E+04  0.10084088433E+04  0.80452038736E+02 0.  0.
         25    2    1    2    0    0  0.32965630875E+02  0.69087530928E+02 -0.77656676466E+02  0.16594101503E+03  0.12508413697E+03 0.  0.
         24    2    1    2    0    0  0.14048869011E+02 -0.34010160244E+02  0.24230303061E+03  0.25810877467E+03  0.80964925734E+02 0.  0.
        -11    1    5    5    0    0 -0.83992470435E+01 -0.29492628532E+02  0.23015275229E+03  0.23218667463E+03  0.00000000000E+00 0.  1.
         12    1    5    5    0    0  0.22448116055E+02 -0.45175317118E+01  0.12150278314E+02  0.25922100036E+02  0.00000000000E+00 0. -1.
         11    1    3    3    0    0 -0.15038122883E+02 -0.13744745809E+02 -0.47875313431E+02  0.52029883849E+02  0.00000000000E+00 0. -1.
        -12    1    3    3    0    0 -0.31976377003E+02 -0.21332624876E+02 -0.95560616601E+03  0.95637895945E+03  0.00000000000E+00 0.  1.
          5    1    4    4  501    0  0.61287276384E+02  0.19983223936E+02 -0.86976894349E+02  0.10834164498E+03  0.41800000000E+01 0.  1.
         -5    1    4    4    0  501 -0.28321645509E+02  0.49104306992E+02  0.93202178826E+01  0.57599370056E+02  0.41800000000E+01 0.  1.
</event>
<event>
11    1  0.8453735E-009  0.1672323E+03  0.7561462E-02  0.1080466E+00
         22   -1    0    0    0    0  0.00000000000E+00  0.00000000000E+00  0.12151328530E+03  0.12151328530E+03  0.00000000000E+00 0. -1.
         22   -1    0    0    0    0 -0.00000000000E+00 -0.00000000000E+00 -0.21394381522E+04  0.21394381522E+04  0.00000000000E+00 0.  1.
        -24    2    1    2    0    0  0.86301851187E+02 -0.63073148925E+02 -0.17006447715E+04  0.17063769365E+04  0.90018769886E+02 0.  0.
         25    2    1    2    0    0 -0.11891161381E+03  0.77364762952E+02 -0.39519840654E+03  0.43812608883E+03  0.12508961082E+03 0.  0.
         24    2    1    2    0    0  0.32609762624E+02 -0.14291614027E+02  0.77918311154E+02  0.11644841215E+03  0.78875361365E+02 0.  0.
        -13    1    5    5    0    0  0.25789451990E+02  0.23258879121E+02  0.62992837664E+01  0.35295215935E+02  0.00000000000E+00 0.  1.
         14    1    5    5    0    0  0.68203106338E+01 -0.37550493148E+02  0.71619027387E+02  0.81153196220E+02  0.00000000000E+00 0. -1.
         13    1    3    3    0    0  0.29335343445E+02  0.70770171408E+01 -0.14485548086E+03  0.14796539083E+03  0.00000000000E+00 0. -1.
        -14    1    3    3    0    0  0.56966507742E+02 -0.70150166066E+02 -0.15557892907E+04  0.15584115457E+04  0.00000000000E+00 0.  1.
          5    1    4    4  501    0 -0.12205956965E+03  0.87899546203E+02 -0.39845480408E+03  0.42592085188E+03  0.41800000000E+01 0. -1.
         -5    1    4    4    0  501  0.31479558375E+01 -0.10534783251E+02  0.32563975444E+01  0.12205236952E+02  0.41800000000E+01 0. -1.
</event>
<event>
11    1  0.8453735E-009  0.1298189E+03  0.7561462E-02  0.1119492E+00
         22   -1    0    0    0    0  0.00000000000E+00  0.00000000000E+00  0.13292824517E+03  0.13292824517E+03  0.00000000000E+00 0.  1.
         22   -1    0    0    0    0 -0.00000000000E+00 -0.00000000000E+00 -0.76213848032E+03  0.76213848032E+03  0.00000000000E+00 0.  1.
         24    2    1    2    0    0 -0.33906450095E+02 -0.18170110442E+02 -0.54702738022E+03  0.55414339281E+03  0.79725433893E+02 0.  0.
         25    2    1    2    0    0  0.94568926172E+01  0.10145841148E+02 -0.17362932203E+03  0.21444697026E+03  0.12509192890E+03 0.  0.
        -24    2    1    2    0    0  0.24449557477E+02  0.80242692948E+01  0.91446467103E+02  0.12647636242E+03  0.83496372055E+02 0.  0.
        -11    1    3    3    0    0 -0.54632215082E+02 -0.39839714155E+01 -0.46864453991E+03  0.47183498783E+03  0.00000000000E+00 0.  1.
         12    1    3    3    0    0  0.20725764987E+02 -0.14186139027E+02 -0.78382840317E+02  0.82308404983E+02  0.00000000000E+00 0. -1.
         13    1    5    5    0    0  0.12750357061E+02  0.33876730956E+02  0.63192937316E+01  0.36744223746E+02  0.00000000000E+00 0. -1.
        -14    1    5    5    0    0  0.11699200416E+02 -0.25852461661E+02  0.85127173372E+02  0.89732138672E+02  0.00000000000E+00 0.  1.
          5    1    4    4  501    0  0.46838888850E+02  0.37559946025E+02 -0.15128508239E+03  0.16281670555E+03  0.41800000000E+01 0.  1.
         -5    1    4    4    0  501 -0.37381996233E+02 -0.27414104877E+02 -0.22344239641E+02  0.51630264707E+02  0.41800000000E+01 0.  1.
</event>
<event>
11    1  0.8453735E-009  0.2137241E+03  0.7561462E-02  0.1045222E+00
         22   -1    0    0    0    0  0.00000000000E+00  0.00000000000E+00  0.17986608666E+04  0.17986608666E+04  0.00000000000E+00 0. -1.
         22   -1    0    0    0    0 -0.00000000000E+00 -0.00000000000E+00 -0.20408892656E+03  0.20408892656E+03  0.00000000000E+00 0.  1.
         24    2    1    2    0    0 -0.16990408695E+03 -0.68557419848E+02 -0.89620575003E+02  0.21923242015E+03  0.80395820794E+02 0.  0.
         25    2    1    2    0    0  0.14381517833E+03  0.26637359278E+02  0.14364742325E+03  0.24014823255E+03  0.12507692418E+03 0.  0.
        -24    2    1    2    0    0  0.26088908627E+02  0.41920060570E+02  0.15405450918E+04  0.15433691405E+04  0.79190916539E+02 0.  0.
        -13    1    3    3    0    0 -0.15030704222E+03 -0.56737973544E+02 -0.10475602436E+03  0.19179475807E+03  0.00000000000E+00 0.  1.
         14    1    3    3    0    0 -0.19597044735E+02 -0.11819446304E+02  0.15135449358E+02  0.27437662082E+02  0.00000000000E+00 0. -1.
         11    1    5    5    0    0  0.13487387409E+02  0.18492259302E+02  0.14077354868E+04  0.14079215440E+04  0.00000000000E+00 0. -1.
        -12    1    5    5    0    0  0.12601521218E+02  0.23427801268E+02  0.13280960506E+03  0.13544759653E+03  0.00000000000E+00 0.  1.
          5    1    4    4  501    0  0.88830132347E+02  0.47941971121E+02  0.14983080527E+03  0.18070962237E+03  0.41800000000E+01 0.  1.
         -5    1    4    4    0  501  0.54985045978E+02 -0.21304611843E+02 -0.61833820202E+01  0.59438610181E+02  0.41800000000E+01 0.  1.
</event>
<event>
11    1  0.8453735E-009  0.1538683E+03  0.7561462E-02  0.1092990E+00
         22   -1    0    0    0    0  0.00000000000E+00  0.00000000000E+00  0.17154409076E+04  0.17154409076E+04  0.00000000000E+00 0. -1.
         22   -1    0    0    0    0 -0.00000000000E+00 -0.00000000000E+00 -0.29652564436E+03  0.29652564436E+03  0.00000000000E+00 0. -1.
        -24    2    1    2    0    0 -0.72730616591E+02 -0.52895645794E+02 -0.26089022621E+03  0.28715794563E+03  0.79424704447E+02 0.  0.
         25    2    1    2    0    0  0.29788552092E+02  0.96306872000E+02  0.29195946548E+03  0.33324328505E+03  0.12509350951E+03 0.  0.
         24    2    1    2    0    0  0.42942064499E+02 -0.43411226206E+02  0.13878460240E+04  0.13915653213E+04  0.81295151437E+02 0.  0.
        -13    1    5    5    0    0  0.46442725650E+02 -0.28390671008E+02  0.40998881734E+03  0.41358649315E+03  0.00000000000E+00 0.  1.
         14    1    5    5    0    0 -0.35006611513E+01 -0.15020555198E+02  0.97785720662E+03  0.97797882812E+03  0.00000000000E+00 0. -1.
         13    1    3    3    0    0 -0.11288265626E+02 -0.56116364219E+02 -0.14620944405E+03  0.15701488083E+03  0.00000000000E+00 0. -1.
        -14    1    3    3    0    0 -0.61442350965E+02  0.32207184249E+01 -0.11468078216E+03  0.13014306480E+03  0.00000000000E+00 0.  1.
          5    1    4    4  501    0  0.71696976495E+02  0.21920714613E+02  0.14198722367E+03  0.16062010539E+03  0.41800000000E+01 0.  1.
         -5    1    4    4    0  501 -0.41908424403E+02  0.74386157386E+02  0.14997224181E+03  0.17262317967E+03  0.41800000000E+01 0.  1.
</event>
<event>
11    1  0.8453735E-009  0.1757416E+03  0.7561462E-02  0.1073140E+00
         22   -1    0    0    0    0  0.00000000000E+00  0.00000000000E+00  0.11360583281E+04  0.11360583281E+04  0.00000000000E+00 0. -1.
         22   -1    0    0    0    0 -0.00000000000E+00 -0.00000000000E+00 -0.45273805505E+03  0.45273805505E+03  0.00000000000E+00 0.  1.
        -24    2    1    2    0    0 -0.36596970350E+02  0.20042321669E+02 -0.38135397995E+03  0.39709896826E+03  0.10254608563E+03 0.  0.
         25    2    1    2    0    0  0.13787277471E+03 -0.84070649001E+02  0.12190016919E+03  0.23787358556E+03  0.12508962957E+03 0.  0.
         24    2    1    2    0    0 -0.10127580436E+03  0.64028327332E+02  0.94277408383E+03  0.95382382935E+03  0.81243516950E+02 0.  0.
        -11    1    5    5    0    0  0.31342534683E+01  0.31898143556E+02  0.31388946756E+03  0.31552165211E+03  0.00000000000E+00 0.  1.
         12    1    5    5    0    0 -0.10441005783E+03  0.32130183776E+02  0.62888461627E+03  0.63830217724E+03  0.00000000000E+00 0. -1.
         11    1    3    3    0    0  0.11626010267E+02 -0.66017665073E+01 -0.17104470465E+01  0.13478615093E+02  0.00000000000E+00 0. -1.
        -12    1    3    3    0    0 -0.48222980617E+02  0.26644088177E+02 -0.37964353290E+03  0.38362035317E+03  0.00000000000E+00 0.  1.
          5    1    4    4  501    0  0.98383469502E+02 -0.48323824470E+02  0.55367340596E+01  0.10982999093E+03  0.41800000000E+01 0.  1.
         -5    1    4    4    0  501  0.39489305211E+02 -0.35746824532E+02  0.11636343513E+03  0.12804359463E+03  0.41800000000E+01 0.  1.
</event>
<event>
11    1  0.8453735E-009  0.1320027E+03  0.7561462E-02  0.1116832E+00
         22   -1    0    0    0    0  0.00000000000E+00  0.00000000000E+00  0.52365350472E+03  0.52365350472E+03  0.00000000000E+00 0. -1.
         22   -1    0    0    0    0 -0.00000000000E+00 -0.00000000000E+00 -0.14195356500E+03  0.14195356500E+03  0.00000000000E+00 0. -1.
        -24    2    1    2    0    0 -0.18224754276E+02 -0.44385365934E+02 -0.84447644121E+02  0.14387163778E+03  0.10613878265E+03 0.  0.
         25    2    1    2    0    0 -0.23420695842E+01  0.76240063759E+01  0.16366245552E+03  0.20613852686E+03  0.12507630531E+03 0.  0.
         24    2    1    2    0    0  0.20566823861E+02  0.36761359558E+02  0.30248512833E+03  0.31559690507E+03  0.79559800338E+02 0.  0.
        -11    1    5    5    0    0  0.33727979684E+02 -0.78991222971E+01  0.65650580227E+02  0.74229181800E+02  0.00000000000E+00 0.  1.
         12    1    5    5    0    0 -0.13161155823E+02  0.44660481855E+02  0.23683454810E+03  0.24136772327E+03  0.00000000000E+00 0. -1.
         11    1    3    3    0    0 -0.56633199524E+02  0.12819579856E+01 -0.37351731412E+02  0.67853625873E+02  0.00000000000E+00 0. -1.
        -12    1    3    3    0    0  0.38408445248E+02 -0.45667323919E+02 -0.47095912709E+02  0.76018011906E+02  0.00000000000E+00 0.  1.
          5    1    4    4  501    0  0.40133873637E+02 -0.40232449203E+02  0.10381742940E+03  0.11842680790E+03  0.41800000000E+01 0. -1.
         -5    1    4    4    0  501 -0.42475943221E+02  0.47856455579E+02  0.59845026118E+02  0.87711718967E+02  0.41800000000E+01 0. -1.
</event>
<event>
11    1  0.8453735E-009  0.1337519E+03  0.7561462E-02  0.1114743E+00
         22   -1    0    0    0    0  0.00000000000E+00  0.00000000000E+00  0.91408315918E+03  0.91408315918E+03  0.00000000000E+00 0.  1.
         22   -1    0    0    0    0 -0.00000000000E+00 -0.00000000000E+00 -0.24218741143E+03  0.24218741143E+03  0.00000000000E+00 0. -1.
         24    2    1    2    0    0  0.41063970966E+02  0.18515469590E+02 -0.12083835315E+03  0.15251720016E+03  0.81427983081E+02 0.  0.
         25    2    1    2    0    0 -0.59591443811E+02  0.67192610504E+01 -0.56781886145E+02  0.14989581145E+03  0.12509309754E+03 0.  0.
        -24    2    1    2    0    0  0.18527472844E+02 -0.25234730641E+02  0.84951598704E+03  0.85385755900E+03  0.80095317834E+02 0.  0.
        -11    1    3    3    0    0  0.19328448277E-02  0.24171427226E+01  0.12159272113E+02  0.12397196497E+02  0.00000000000E+00 0.  1.
         12    1    3    3    0    0  0.41062038122E+02  0.16098326868E+02 -0.13299762526E+03  0.14012000367E+03  0.00000000000E+00 0. -1.
         11    1    5    5    0    0  0.65551589763E+01 -0.45557094573E+01  0.59575641608E+01  0.99607815252E+01  0.00000000000E+00 0. -1.
        -12    1    5    5    0    0  0.11972313868E+02 -0.20679021184E+02  0.84355842288E+03  0.84389677747E+03  0.00000000000E+00 0.  1.
          5    1    4    4  501    0  0.32964725595E+02  0.14915573574E+02  0.70344867018E+01  0.37095874053E+02  0.41800000000E+01 0.  1.
         -5    1    4    4    0  501 -0.92556169405E+02 -0.81963125239E+01 -0.63816372847E+02  0.11279993740E+03  0.41800000000E+01 0.  1.
</event>
<event>
11    1  0.8453735E-009  0.1586493E+03  0.7561462E-02  0.1088355E+00
         22   -1    0    0    0    0  0.00000000000E+00  0.00000000000E+00  0.78137281796E+03  0.78137281796E+03  0.00000000000E+00 0. -1.
         22   -1    0    0    0    0 -0.00000000000E+00 -0.00000000000E+00 -0.80372130472E+03  0.80372130472E+03  0.00000000000E+00 0. -1.
         24    2    1    2    0    0 -0.53616161271E+01 -0.19502286759E+02 -0.67919044760E+03  0.68402724715E+03  0.78641748543E+02 0.  0.
         25    2    1    2    0    0 -0.92436795485E+02  0.15888264614E+02 -0.64092351524E+02  0.16896851011E+03  0.12508209214E+03 0.  0.
        -24    2    1    2    0    0  0.97798411612E+02  0.36140221443E+01  0.72093431236E+03  0.73209836542E+03  0.81511615379E+02 0.  0.
        -13    1    3    3    0    0  0.17529484491E+02 -0.42106135117E+02 -0.29655389270E+03  0.30004069843E+03  0.00000000000E+00 0.  1.
         14    1    3    3    0    0 -0.22891100618E+02  0.22603848358E+02 -0.38263655490E+03  0.38398654871E+03  0.00000000000E+00 0. -1.
         13    1    5    5    0    0  0.64187070937E+02  0.36574651816E+02  0.32037964301E+03  0.32878686240E+03  0.00000000000E+00 0. -1.
        -14    1    5    5    0    0  0.33611340675E+02 -0.32960629672E+02  0.40055466935E+03  0.40331150302E+03  0.00000000000E+00 0.  1.
          5    1    4    4  501    0 -0.72725917206E+02 -0.40332603081E+02 -0.26863663569E+01  0.83309464462E+02  0.41800000000E+01 0.  1.
         -5    1    4    4    0  501 -0.19710878279E+02  0.56220867696E+02 -0.61405985167E+02  0.85659045648E+02  0.41800000000E+01 0.  1.
</event>
<event>
11    1  0.8453735E-009  0.1408433E+03  0.7561462E-02  0.1106620E+00
         22   -1    0    0    0    0  0.00000000000E+00  0.00000000000E+00  0.17158473599E+04  0.17158473599E+04  0.00000000000E+00 0.  1.
         22   -1    0    0    0    0 -0.00000000000E+00 -0.00000000000E+00 -0.92017748907E+02  0.92017748907E+02  0.00000000000E+00 0. -1.
         24    2    1    2    0    0 -0.92096600385E+01  0.68204359658E+02 -0.38744366615E+02  0.11189651580E+03  0.79265703741E+02 0.  0.
         25    2    1    2    0    0  0.28627862550E+02  0.17759540449E+01  0.26783425130E+03  0.29699878607E+03  0.12510149572E+03 0.  0.
        -24    2    1    2    0    0 -0.19418202511E+02 -0.69980313703E+02  0.13947397264E+04  0.13989698070E+04  0.80890702087E+02 0.  0.
        -11    1    3    3    0    0  0.31834887383E+02  0.30878941357E+02 -0.21452035214E+00  0.44351043877E+02  0.00000000000E+00 0.  1.
         12    1    3    3    0    0 -0.41044547421E+02  0.37325418301E+02 -0.38529846263E+02  0.67545471924E+02  0.00000000000E+00 0. -1.
         11    1    5    5    0    0  0.20575276445E+02  0.48987004672E+01  0.17374214037E+03  0.17502477142E+03  0.00000000000E+00 0. -1.
        -12    1    5    5    0    0 -0.39993478956E+02 -0.74879014170E+02  0.12209975860E+04  0.12239450356E+04  0.00000000000E+00 0.  1.
          5    1    4    4  501    0 -0.26063391428E+01 -0.11649617201E+02  0.26193611604E+03  0.26224131610E+03  0.41800000000E+01 0.  1.
         -5    1    4    4    0  501  0.31234201693E+02  0.13425571246E+02  0.58981352534E+01  0.34757469962E+02  0.41800000000E+01 0.  1.
</event>
<event>
11    1  0.8453735E-009  0.1422395E+03  0.7561462E-02  0.1105083E+00
         22   -1    0    0    0    0  0.00000000000E+00  0.00000000000E+00  0.17872712431E+04  0.17872712431E+04  0.00000000000E+00 0.  1.
         22   -1    0    0    0    0 -0.00000000000E+00 -0.00000000000E+00 -0.52711847149E+03  0.52711847149E+03  0.00000000000E+00 0. -1.
        -24    2    1    2    0    0 -0.22885064705E+02 -0.59370659122E+02 -0.48206697080E+03  0.49266883318E+03  0.79280599791E+02 0.  0.
         25    2    1    2    0    0 -0.39735408075E+02  0.28803984227E+02  0.80604142630E+02  0.15669471722E+03  0.12509050497E+03 0.  0.
         24    2    1    2    0    0  0.62620472780E+02  0.30566674895E+02  0.16616155998E+04  0.16650261642E+04  0.80561037413E+02 0.  0.
        -13    1    5    5    0    0  0.69296487600E+02 -0.43111986550E+01  0.12266626598E+04  0.12286260092E+04  0.00000000000E+00 0.  1.
         14    1    5    5    0    0 -0.66760148193E+01  0.34877873550E+02  0.43495294002E+03  0.43640015498E+03  0.00000000000E+00 0. -1.
         11    1    3    3    0    0 -0.38302235771E+01  0.11081163045E+02 -0.22868541364E+03  0.22898576636E+03  0.00000000000E+00 0. -1.
        -12    1    3    3    0    0 -0.19054841128E+02 -0.70451822167E+02 -0.25338155716E+03  0.26368306682E+03  0.00000000000E+00 0.  1.
          5    1    4    4  501    0 -0.15293056752E+02 -0.44769073374E+02  0.40582778343E+01  0.47666440339E+02  0.41800000000E+01 0. -1.
         -5    1    4    4    0  501 -0.24442351323E+02  0.73573057601E+02  0.76545864796E+02  0.10902827688E+03  0.41800000000E+01 0. -1.
</event>
<event>
11    1  0.8453735E-009  0.1436379E+03  0.7561462E-02  0.1103563E+00
         22   -1    0    0    0    0  0.00000000000E+00  0.00000000000E+00  0.26135656023E+03  0.26135656023E+03  0.00000000000E+00 0.  1.
         22   -1    0    0    0    0 -0.00000000000E+00 -0.00000000000E+00 -0.43243066696E+03  0.43243066696E+03  0.00000000000E+00 0.  1.
         24    2    1    2    0    0 -0.18440089534E+02  0.78546918194E+01 -0.35703016632E+03  0.36631100544E+03  0.79444823331E+02 0.  0.
         25    2    1    2    0    0 -0.54082936533E+02  0.13550014781E+02  0.35843506742E+02  0.14157393056E+03  0.12509937616E+03 0.  0.
        -24    2    1    2    0    0  0.72523026067E+02 -0.21404706601E+02  0.15011255285E+03  0.18590229118E+03  0.79423753176E+02 0.  0.
        -13    1    3    3    0    0 -0.36358062127E+02 -0.32525944271E+01 -0.33009295218E+03  0.33210517179E+03  0.00000000000E+00 0.  1.
         14    1    3    3    0    0  0.17917972593E+02  0.11107286247E+02 -0.26937214145E+02  0.34205833647E+02  0.00000000000E+00 0. -1.
         11    1    5    5    0    0  0.32267307387E+02  0.79789843468E+01  0.12642314227E+03  0.13071975451E+03  0.00000000000E+00 0. -1.
        -12    1    5    5    0    0  0.40255718680E+02 -0.29383690947E+02  0.23689410583E+02  0.55182536675E+02  0.00000000000E+00 0.  1.
          5    1    4    4  501    0 -0.23367374705E+02  0.69190597050E+02  0.16215483033E+02  0.74925210782E+02  0.41800000000E+01 0.  1.
         -5    1    4    4    0  501 -0.30715561828E+02 -0.55640582269E+02  0.19628023709E+02  0.66648719780E+02  0.41800000000E+01 0.  1.
</event>
<event>
11    1  0.8453735E-009  0.1762109E+03  0.7561462E-02  0.1072750E+00
         22   -1    0    0    0    0  0.00000000000E+00  0.00000000000E+00  0.17694548071E+04  0.17694548071E+04  0.00000000000E+00 0.  1.
         22   -1    0    0    0    0 -0.00000000000E+00 -0.00000000000E+00 -0.67827293534E+02  0.67827293534E+02  0.00000000000E+00 0. -1.
        -24    2    1    2    0    0  0.72332787888E+02 -0.91364240576E+02  0.81511961054E+02  0.16290087039E+03  0.79454623013E+02 0.  0.
         25    2    1    2    0    0 -0.15848210017E+03  0.61523668291E+02  0.43968113434E+03  0.48771745248E+03  0.12508827173E+03 0.  0.
         24    2    1    2    0    0  0.86149312280E+02  0.29840572286E+02  0.11804344181E+04  0.11866637777E+04  0.80208117447E+02 0.  0.
        -13    1    5    5    0    0  0.91275188263E+02  0.32031546731E+01  0.10054125340E+04  0.10095522689E+04  0.00000000000E+00 0.  1.
         14    1    5    5    0    0 -0.51258759834E+01  0.26637417613E+02  0.17502188417E+03  0.17711150883E+03  0.00000000000E+00 0. -1.
         11    1    3    3    0    0  0.67592094483E+02 -0.10583382988E+03  0.75533575260E+02  0.14654286668E+03  0.00000000000E+00 0. -1.
        -12    1    3    3    0    0  0.47406934052E+01  0.14469589303E+02  0.59783857941E+01  0.16358003706E+02  0.00000000000E+00 0.  1.
          5    1    4    4  501    0 -0.17806593871E+03  0.50473358579E+02  0.35990172426E+03  0.40472430367E+03  0.41800000000E+01 0.  1.
         -5    1    4    4    0  501  0.19583838541E+02  0.11050309712E+02  0.79779410075E+02  0.82993148805E+02  0.41800000000E+01 0.  1.
</event>
<event>
11    1  0.8453735E-009  0.1661405E+03  0.7561462E-02  0.1081440E+00
         22   -1    0    0    0    0  0.00000000000E+00  0.00000000000E+00  0.15091261906E+03  0.15091261906E+03  0.00000000000E+00 0. -1.
         22   -1    0    0    0    0 -0.00000000000E+00 -0.00000000000E+00 -0.82979861587E+03  0.82979861587E+03  0.00000000000E+00 0.  1.
        -24    2    1    2    0    0  0.11483254823E+02  0.88544632243E+01 -0.66571278617E+03  0.67068235611E+03  0.80193780689E+02 0.  0.
         25    2    1    2    0    0  0.80092764930E+02 -0.70993777590E+02 -0.50352931395E+02  0.17215572993E+03  0.12508880924E+03 0.  0.
         24    2    1    2    0    0 -0.91576019753E+02  0.62139314365E+02  0.37179720751E+02  0.13787314889E+03  0.73343109876E+02 0.  0.
        -11    1    5    5    0    0 -0.74349787576E+02  0.70470962009E+01  0.15927359546E+02  0.76362512135E+02  0.00000000000E+00 0.  1.
         12    1    5    5    0    0 -0.17226232177E+02  0.55092218164E+02  0.21252361205E+02  0.61510636756E+02  0.00000000000E+00 0. -1.
         11    1    3    3    0    0 -0.20719855837E+01  0.24297764233E+02 -0.62049579487E+02  0.66669519163E+02  0.00000000000E+00 0. -1.
        -12    1    3    3    0    0  0.13555240406E+02 -0.15443301008E+02 -0.60366320669E+03  0.60401283695E+03  0.00000000000E+00 0.  1.
          5    1    4    4  501    0 -0.10421764005E+02 -0.12034461226E+02 -0.61325523952E+02  0.63495934594E+02  0.41800000000E+01 0. -1.
         -5    1    4    4    0  501  0.90514528936E+02 -0.58959316363E+02  0.10972592557E+02  0.10865979533E+03  0.41800000000E+01 0. -1.
</event>
<event>
11    1  0.8453735E-009  0.1666082E+03  0.7561462E-02  0.1081022E+00
         22   -1    0    0    0    0  0.00000000000E+00  0.00000000000E+00  0.47447338717E+03  0.47447338717E+03  0.00000000000E+00 0.  1.
         22   -1    0    0    0    0 -0.00000000000E+00 -0.00000000000E+00 -0.11013220936E+04  0.11013220936E+04  0.00000000000E+00 0. -1.
         24    2    1    2    0    0 -0.24208791834E+02 -0.22353383607E+02 -0.85043209350E+03  0.85491844047E+03  0.81025026113E+02 0.  0.
         25    2    1    2    0    0  0.11609502508E+03 -0.37575921148E+02 -0.20608980150E+03  0.27020370367E+03  0.12508809093E+03 0.  0.
        -24    2    1    2    0    0 -0.91886233249E+02  0.59929304755E+02  0.42967318859E+03  0.45067333660E+03  0.80329358893E+02 0.  0.
        -11    1    3    3    0    0 -0.43264457375E+02 -0.29876401678E+02 -0.33691641050E+03  0.34099425261E+03  0.00000000000E+00 0.  1.
         12    1    3    3    0    0  0.19055665541E+02  0.75230180715E+01 -0.51351568299E+03  0.51392418786E+03  0.00000000000E+00 0. -1.
         11    1    5    5    0    0 -0.63519926540E+02  0.68708920985E+01  0.12800411454E+03  0.14306307548E+03  0.00000000000E+00 0. -1.
        -12    1    5    5    0    0 -0.28366306709E+02  0.53058412656E+02  0.30166907405E+03  0.30761026112E+03  0.00000000000E+00 0.  1.
          5    1    4    4  501    0  0.75769223519E+02  0.37036654147E+02 -0.13607641339E+03  0.16014665674E+03  0.41800000000E+01 0. -1.
         -5    1    4    4    0  501  0.40325801563E+02 -0.74612575295E+02 -0.70013388112E+02  0.11005704693E+03  0.41800000000E+01 0. -1.
</event>
<event>
11    1  0.8453735E-009  0.1331309E+03  0.7561462E-02  0.1115481E+00
         22   -1    0    0    0    0  0.00000000000E+00  0.00000000000E+00  0.83850347781E+03  0.83850347781E+03  0.00000000000E+00 0. -1.
         22   -1    0    0    0    0 -0.00000000000E+00 -0.00000000000E+00 -0.14263928988E+03  0.14263928988E+03  0.00000000000E+00 0. -1.
        -24    2    1    2    0    0 -0.30287192988E+02  0.90006218084E+01 -0.96184040631E+02  0.12985569313E+03  0.81319162031E+02 0.  0.
         25    2    1    2    0    0 -0.99569620653E+01 -0.34830385363E+02  0.13511246979E+03  0.18765646326E+03  0.12508905577E+03 0.  0.
         24    2    1    2    0    0  0.40244155053E+02  0.25829763554E+02  0.65693575877E+03  0.66363061130E+03  0.80958189255E+02 0.  0.
        -13    1    5    5    0    0  0.39737922080E+02 -0.19908700021E+02  0.23028891002E+03  0.23453878329E+03  0.00000000000E+00 0.  1.
         14    1    5    5    0    0  0.50623297318E+00  0.45738463575E+02  0.42664684875E+03  0.42909182801E+03  0.00000000000E+00 0. -1.
         11    1    3    3    0    0 -0.32670175510E+02  0.41904697124E+02 -0.69128763962E+02  0.87190194494E+02  0.00000000000E+00 0. -1.
        -12    1    3    3    0    0  0.23829825225E+01 -0.32904075315E+02 -0.27055276669E+02  0.42665498634E+02  0.00000000000E+00 0.  1.
          5    1    4    4  501    0 -0.55860217745E+02 -0.45242048134E+02  0.42308913720E+02  0.83514809621E+02  0.41800000000E+01 0. -1.
         -5    1    4    4    0  501  0.45903255679E+02  0.10411662772E+02  0.92803556074E+02  0.10414165364E+03  0.41800000000E+01 0. -1.
</event>
<event>
11    1  0.8453735E-009  0.1707218E+03  0.7561462E-02  0.1077405E+00
         22   -1    0    0    0    0  0.00000000000E+00  0.00000000000E+00  0.31156308071E+04  0.31156308071E+04  0.00000000000E+00 0.  1.
         22   -1    0    0    0    0 -0.00000000000E+00 -0.00000000000E+00 -0.52478705910E+02  0.52478705910E+02  0.00000000000E+00 0. -1.
         24    2    1    2    0    0  0.27205759135E+00  0.25069147164E+02  0.16862877435E+02  0.86863751938E+02  0.81439662392E+02 0.  0.
         25    2    1    2    0    0  0.11023172908E+03 -0.58263200646E+02  0.48614718041E+03  0.51723544557E+03  0.12509112876E+03 0.  0.
        -24    2    1    2    0    0 -0.11050378667E+03  0.33194053482E+02  0.25601420434E+04  0.25640103155E+04  0.80676414217E+02 0.  0.
        -13    1    3    3    0    0  0.11128722816E+02  0.40017961989E+02  0.39721469275E+02  0.57472435782E+02  0.00000000000E+00 0.  1.
         14    1    3    3    0    0 -0.10856665225E+02 -0.14948814826E+02 -0.22858591840E+02  0.29391316157E+02  0.00000000000E+00 0. -1.
         11    1    5    5    0    0 -0.66164456940E+02  0.28968880135E+02  0.21911033753E+04  0.21922935325E+04  0.00000000000E+00 0. -1.
        -12    1    5    5    0    0 -0.44339329728E+02  0.42251733470E+01  0.36903866812E+03  0.37171678307E+03  0.00000000000E+00 0.  1.
          5    1    4    4  501    0  0.30103899897E+02 -0.26650730513E+02  0.37191445105E+03  0.37410471466E+03  0.41800000000E+01 0.  1.
         -5    1    4    4    0  501  0.80127829179E+02 -0.31612470133E+02  0.11423272935E+03  0.14313073092E+03  0.41800000000E+01 0.  1.
</event>
<event>
11    1  0.8453735E-009  0.1434435E+03  0.7561462E-02  0.1103773E+00
         22   -1    0    0    0    0  0.00000000000E+00  0.00000000000E+00  0.28641089419E+03  0.28641089419E+03  0.00000000000E+00 0. -1.
         22   -1    0    0    0    0 -0.00000000000E+00 -0.00000000000E+00 -0.80895293463E+03  0.80895293463E+03  0.00000000000E+00 0.  1.
        -24    2    1    2    0    0 -0.41523398272E+02  0.58908529601E+02 -0.70961328082E+03  0.71741030979E+03  0.77020366253E+02 0.  0.
         25    2    1    2    0    0  0.59221228961E+02 -0.10048421417E+02 -0.28895312632E+02  0.14174083317E+03  0.12508956776E+03 0.  0.
         24    2    1    2    0    0 -0.17697830689E+02 -0.48860108184E+02  0.21596655300E+03  0.23621268586E+03  0.80339016431E+02 0.  0.
        -13    1    5    5    0    0  0.21802329769E+02 -0.26309569631E+02  0.32375531721E+02  0.47071329828E+02  0.00000000000E+00 0.  1.
         14    1    5    5    0    0 -0.39500160458E+02 -0.22550538553E+02  0.18359102128E+03  0.18914135603E+03  0.00000000000E+00 0. -1.
         13    1    3    3    0    0 -0.25059249114E+02 -0.92539614541E+01 -0.35038955489E+03  0.35140637722E+03  0.00000000000E+00 0. -1.
        -14    1    3    3    0    0 -0.16464149158E+02  0.68162491055E+02 -0.35922372592E+03  0.36600393257E+03  0.00000000000E+00 0.  1.
          5    1    4    4  501    0  0.33483872179E+02  0.39862351657E+02 -0.58252132431E+02  0.78236565034E+02  0.41800000000E+01 0.  1.
         -5    1    4    4    0  501  0.25737356783E+02 -0.49910773074E+02  0.29356819799E+02  0.63504268138E+02  0.41800000000E+01 0.  1.
</event>
<event>
11    1  0.8453735E-009  0.2008670E+03  0.7561462E-02  0.1053912E+00
         22   -1    0    0    0    0  0.00000000000E+00  0.00000000000E+00  0.84538545235E+03  0.84538545235E+03  0.00000000000E+00 0.  1.
         22   -1    0    0    0    0 -0.00000000000E+00 -0.00000000000E+00 -0.12222256754E+04  0.12222256754E+04  0.00000000000E+00 0. -1.
         24    2    1    2    0    0 -0.91413234216E+01  0.10426998990E+02 -0.97207435809E+03  0.97546002689E+03  0.80008876420E+02 0.  0.
         25    2    1    2    0    0 -0.13654804828E+03  0.49799674265E+02 -0.20026532441E+03  0.27727074138E+03  0.12508991493E+03 0.  0.
        -24    2    1    2    0    0  0.14568937170E+03 -0.60226673254E+02  0.79549945940E+03  0.81488035953E+03  0.79736849977E+02 0.  0.
        -11    1    3    3    0    0  0.20523397888E+01  0.20782116010E+02 -0.65311224800E+02  0.68568684757E+02  0.00000000000E+00 0.  1.
         12    1    3    3    0    0 -0.11193663210E+02 -0.10355117021E+02 -0.90676313329E+03  0.90689134213E+03  0.00000000000E+00 0. -1.
         11    1    5    5    0    0  0.68307450611E+01 -0.34842038899E+02  0.15950690600E+03  0.16341077019E+03  0.00000000000E+00 0. -1.
        -12    1    5    5    0    0  0.13885862664E+03 -0.25384634356E+02  0.63599255340E+03  0.65146958934E+03  0.00000000000E+00 0.  1.
          5    1    4    4  501    0 -0.13328014337E+03  0.20882651686E+01 -0.18260574167E+03  0.22612007156E+03  0.41800000000E+01 0. -1.
         -5    1    4    4    0  501 -0.32679049026E+01  0.47711409096E+02 -0.17659582738E+02  0.51150669818E+02  0.41800000000E+01 0. -1.
</event>
<event>
11    1  0.8453735E-009  0.1436369E+03  0.7561462E-02  0.1103564E+00
         22   -1    0    0    0    0  0.00000000000E+00  0.00000000000E+00  0.20521843252E+03  0.20521843252E+03  0.00000000000E+00 0. -1.
         22   -1    0    0    0    0 -0.00000000000E+00 -0.00000000000E+00 -0.14324276459E+04  0.14324276459E+04  0.00000000000E+00 0. -1.
        -24    2    1    2    0    0 -0.11655169102E+02 -0.18825190656E+02 -0.84586025369E+03  0.85077190564E+03  0.88560916224E+02 0.  0.
         25    2    1    2    0    0  0.35394273058E+02  0.84701280724E+02 -0.55804953222E+03  0.57921841393E+03  0.12509048364E+03 0.  0.
         24    2    1    2    0    0 -0.23739103956E+02 -0.65876090069E+02  0.17670057256E+03  0.20765575883E+03  0.83633830078E+02 0.  0.
        -13    1    5    5    0    0  0.59437095981E+01  0.17583633967E+02  0.17712359056E+02  0.25656179190E+02  0.00000000000E+00 0.  1.
         14    1    5    5    0    0 -0.29682813554E+02 -0.83459724036E+02  0.15898821350E+03  0.18199957964E+03  0.00000000000E+00 0. -1.
         11    1    3    3    0    0 -0.47046942822E+02 -0.23491433862E+02 -0.60493823754E+03  0.60721951017E+03  0.00000000000E+00 0. -1.
        -12    1    3    3    0    0  0.35391773720E+02  0.46662432065E+01 -0.24092201614E+03  0.24355239546E+03  0.00000000000E+00 0.  1.
          5    1    4    4  501    0 -0.27561968870E+02 -0.17264589674E+02 -0.16736529653E+03  0.17054718721E+03  0.41800000000E+01 0. -1.
         -5    1    4    4    0  501  0.62956241928E+02  0.10196587040E+03 -0.39068423569E+03  0.40867122671E+03  0.41800000000E+01 0. -1.
</event>
<event>
11    1  0.8453735E-009  0.1502364E+03  0.7561462E-02  0.1096637E+00
         22   -1    0    0    0    0  0.00000000000E+00  0.00000000000E+00  0.43535334958E+03  0.43535334958E+03  0.00000000000E+00 0.  1.
         22   -1    0    0    0    0 -0.00000000000E+00 -0.00000000000E+00 -0.13421509456E+04  0.13421509456E+04  0.00000000000E+00 0.  1.
        -24    2    1    2    0    0 -0.63786550962E+02 -0.57897552199E+01 -0.12148352515E+04  0.12193184545E+04  0.82526116463E+02 0.  0.
         25    2    1    2    0    0  0.12197110251E+03  0.59939119331E+02 -0.42464521745E+02  0.18952670414E+03  0.12508992006E+03 0.  0.
         24    2    1    2    0    0 -0.58184551552E+02 -0.54149364111E+02  0.35050217727E+03  0.36865913647E+03  0.82098641668E+02 0.  0.
        -11    1    5    5    0    0 -0.78880230318E+02 -0.36014984236E+02  0.27022041705E+03  0.28379260669E+03  0.00000000000E+00 0.  1.
         12    1    5    5    0    0  0.20695678766E+02 -0.18134379875E+02  0.80281760220E+02  0.84866529781E+02  0.00000000000E+00 0. -1.
         11    1    3    3    0    0 -0.47833247132E+02  0.35129518501E+02 -0.60504550846E+03  0.60794915076E+03  0.00000000000E+00 0. -1.
        -12    1    3    3    0    0 -0.15953303830E+02 -0.40919273721E+02 -0.60978974303E+03  0.61136930376E+03  0.00000000000E+00 0.  1.
          5    1    4    4  501    0  0.12812362034E+02  0.41100803425E+02 -0.63366904869E+02  0.76722028751E+02  0.41800000000E+01 0. -1.
         -5    1    4    4    0  501  0.10915874048E+03  0.18838315906E+02  0.20902383123E+02  0.11280467539E+03  0.41800000000E+01 0. -1.
</event>
<event>
11    1  0.8453735E-009  0.1836277E+03  0.7561462E-02  0.1066746E+00
         22   -1    0    0    0    0  0.00000000000E+00  0.00000000000E+00  0.19702748252E+04  0.19702748252E+04  0.00000000000E+00 0. -1.
         22   -1    0    0    0    0 -0.00000000000E+00 -0.00000000000E+00 -0.30544566436E+03  0.30544566436E+03  0.00000000000E+00 0. -1.
         24    2    1    2    0    0 -0.81629661413E+02 -0.97331501410E+02 -0.15187145194E+03  0.21411860340E+03  0.81516965219E+02 0.  0.
         25    2    1    2    0    0  0.59730394105E+02  0.14854699706E+03 -0.36123985103E+02  0.20636539943E+03  0.12509118861E+03 0.  0.
        -24    2    1    2    0    0  0.21899267307E+02 -0.51215495646E+02  0.18528245979E+04  0.18552364867E+04  0.76425298365E+02 0.  0.
        -13    1    3    3    0    0 -0.69300644019E+02 -0.21289623933E+02 -0.88238877493E+02  0.11420125590E+03  0.00000000000E+00 0.  1.
         14    1    3    3    0    0 -0.12329017393E+02 -0.76041877477E+02 -0.63632574451E+02  0.99917347499E+02  0.00000000000E+00 0. -1.
         13    1    5    5    0    0  0.49862921038E+02 -0.37400315780E+02  0.13581814809E+04  0.13596109847E+04  0.00000000000E+00 0. -1.
        -14    1    5    5    0    0 -0.27963653731E+02 -0.13815179867E+02  0.49464311693E+03  0.49562550202E+03  0.00000000000E+00 0.  1.
          5    1    4    4  501    0  0.48307544462E+02  0.13189259057E+03 -0.77250926520E+02  0.16035726472E+03  0.41800000000E+01 0.  1.
         -5    1    4    4    0  501  0.11422849643E+02  0.16654406485E+02  0.41126941417E+02  0.46008134712E+02  0.41800000000E+01 0.  1.
</event>
<event>
11    1  0.8453735E-009  0.1441960E+03  0.7561462E-02  0.1102961E+00
         22   -1    0    0    0    0  0.00000000000E+00  0.00000000000E+00  0.16033402286E+03  0.16033402286E+03  0.00000000000E+00 0.  1.
         22   -1    0    0    0    0 -0.00000000000E+00 -0.00000000000E+00 -0.15101070528E+04  0.15101070528E+04  0.00000000000E+00 0. -1.
         24    2    1    2    0    0  0.57204679652E+02 -0.47867494541E+02 -0.12725976311E+04  0.12772951112E+04  0.80089937469E+02 0.  0.
         25    2    1    2    0    0 -0.33234189539E+02  0.33550613065E+02 -0.20005832640E+03  0.24062576249E+03  0.12508904277E+03 0.  0.
        -24    2    1    2    0    0 -0.23970490114E+02  0.14316881476E+02  0.12288292753E+03  0.15252020196E+03  0.85922294186E+02 0.  0.
        -13    1    3    3    0    0 -0.13963075596E+02  0.96924706105E+01 -0.26695493202E+03  0.26749550874E+03  0.00000000000E+00 0.  1.
         14    1    3    3    0    0  0.71167755248E+02 -0.57559965151E+02 -0.10056426991E+04  0.10097996025E+04  0.00000000000E+00 0. -1.
         13    1    5    5    0    0 -0.38287167790E+02 -0.25631908462E+02  0.79137776650E+02  0.91573411217E+02  0.00000000000E+00 0. -1.
        -14    1    5    5    0    0  0.14316677676E+02  0.39948789938E+02  0.43745150876E+02  0.60946790747E+02  0.00000000000E+00 0.  1.
          5    1    4    4  501    0 -0.13642321650E+02  0.35630609114E+02 -0.21316715070E+03  0.21659492095E+03  0.41800000000E+01 0. -1.
         -5    1    4    4    0  501 -0.19591867889E+02 -0.20799960490E+01  0.13108824293E+02  0.24030841544E+02  0.41800000000E+01 0. -1.
</event>
<event>
11    1  0.8453735E-009  0.1675674E+03  0.7561462E-02  0.1080168E+00
         22   -1    0    0    0    0  0.00000000000E+00  0.00000000000E+00  0.66702220022E+03  0.66702220022E+03  0.00000000000E+00 0. -1.
         22   -1    0    0    0    0 -0.00000000000E+00 -0.00000000000E+00 -0.10463209587E+04  0.10463209587E+04  0.00000000000E+00 0.  1.
        -24    2    1    2    0    0  0.32640133266E+02  0.29633395498E+02 -0.76024376281E+03  0.76564746993E+03  0.79384840361E+02 0.  0.
         25    2    1    2    0    0 -0.12355647251E+03 -0.92180425731E+02 -0.24027855622E+03  0.31168124345E+03  0.12509188683E+03 0.  0.
         24    2    1    2    0    0  0.90916339243E+02  0.62547030233E+02  0.62122356060E+03  0.63601444551E+03  0.80110866462E+02 0.  0.
        -11    1    5    5    0    0 -0.12667639420E+02  0.13931042430E+02  0.49666001330E+02  0.53115484745E+02  0.00000000000E+00 0.  1.
         12    1    5    5    0    0  0.10358397866E+03  0.48615987803E+02  0.57155755927E+03  0.58289896076E+03  0.00000000000E+00 0. -1.
         11    1    3    3    0    0  0.45104032905E+02 -0.70212155040E+01 -0.26587652113E+03  0.26976655786E+03  0.00000000000E+00 0. -1.
        -12    1    3    3    0    0 -0.12463899638E+02  0.36654611002E+02 -0.49436724168E+03  0.49588091207E+03  0.00000000000E+00 0.  1.
          5    1    4    4  501    0 -0.21629834064E+02  0.16693568208E+02  0.13813090825E+01  0.27674995138E+02  0.41800000000E+01 0. -1.
         -5    1    4    4    0  501 -0.10192663845E+03 -0.10887399394E+03 -0.24165986530E+03  0.28400624831E+03  0.41800000000E+01 0. -1.
</event>
<event>
11    1  0.8453735E-009  0.1796165E+03  0.7561462E-02  0.1069953E+00
         22   -1    0    0    0    0  0.00000000000E+00  0.00000000000E+00  0.44466300897E+03  0.44466300897E+03  0.00000000000E+00 0.  1.
         22   -1    0    0    0    0 -0.00000000000E+00 -0.00000000000E+00 -0.51444434767E+03  0.51444434767E+03  0.00000000000E+00 0. -1.
        -24    2    1    2    0    0 -0.53807780828E+02  0.11266835631E+03 -0.37189928302E+03  0.40049194682E+03  0.80593343152E+02 0.  0.
         25    2    1    2    0    0  0.38073598473E+02 -0.14925039734E+03 -0.41469625136E+02  0.20271946813E+03  0.12510065124E+03 0.  0.
         24    2    1    2    0    0  0.15734182356E+02  0.36582041032E+02  0.34358756946E+03  0.35589594169E+03  0.83807477021E+02 0.  0.
        -11    1    5    5    0    0 -0.24747941699E+02  0.17915062686E+01  0.21838196433E+03  0.21978706162E+03  0.00000000000E+00 0.  1.
         12    1    5    5    0    0  0.40482124055E+02  0.34790534763E+02  0.12520560514E+03  0.13610888007E+03  0.00000000000E+00 0. -1.
         11    1    3    3    0    0 -0.68284989513E+02  0.11399457493E+03 -0.34813815152E+03  0.37263625086E+03  0.00000000000E+00 0. -1.
        -12    1    3    3    0    0  0.14477208684E+02 -0.13262186283E+01 -0.23761131502E+02  0.27855695960E+02  0.00000000000E+00 0.  1.
          5    1    4    4  501    0 -0.10462081116E+00 -0.10235559426E+03 -0.80792452177E+02  0.13046674423E+03  0.41800000000E+01 0.  1.
         -5    1    4    4    0  501  0.38178219284E+02 -0.46894803075E+02  0.39322827041E+02  0.72252723890E+02  0.41800000000E+01 0.  1.
</event>
<event>
11    1  0.8453735E-009  0.1448156E+03  0.7561462E-02  0.1102297E+00
         22   -1    0    0    0    0  0.00000000000E+00  0.00000000000E+00  0.30909633026E+03  0.30909633026E+03  0.00000000000E+00 0. -1.
         22   -1    0    0    0    0 -0.00000000000E+00 -0.00000000000E+00 -0.23918226000E+03  0.23918226000E+03  0.00000000000E+00 0.  1.
         24    2    1    2    0    0 -0.35447439512E+01 -0.33256892080E+02 -0.15182205546E+03  0.17516064933E+03  0.80701489865E+02 0.  0.
         25    2    1    2    0    0 -0.70071742474E+02  0.26409483490E+02  0.24324604875E+02  0.14780595513E+03  0.12508958413E+03 0.  0.
        -24    2    1    2    0    0  0.73616486425E+02  0.68474085904E+01  0.19741152085E+03  0.22531198581E+03  0.79548150855E+02 0.  0.
        -13    1    3    3    0    0  0.19989300912E+02 -0.11927417657E+01 -0.12635545418E+03  0.12793238677E+03  0.00000000000E+00 0.  1.
         14    1    3    3    0    0 -0.23534044863E+02 -0.32064150314E+02 -0.25466601284E+02  0.47228262555E+02  0.00000000000E+00 0. -1.
         13    1    5    5    0    0  0.49287658544E+02  0.14467560800E+02  0.19264527915E+03  0.19937599449E+03  0.00000000000E+00 0. -1.
        -14    1    5    5    0    0  0.24328827881E+02 -0.76201522101E+01  0.47662417081E+01  0.25935991321E+02  0.00000000000E+00 0.  1.
          5    1    4    4  501    0  0.17141637201E+02  0.50458128906E+02 -0.20044435021E+01  0.53491575901E+02  0.41800000000E+01 0. -1.
         -5    1    4    4    0  501 -0.87213379674E+02 -0.24048645416E+02  0.26329048377E+02  0.94314379227E+02  0.41800000000E+01 0. -1.
</event>
<event>
11    1  0.8453735E-009  0.1641865E+03  0.7561462E-02  0.1083205E+00
         22   -1    0    0    0    0  0.00000000000E+00  0.00000000000E+00  0.50573730008E+03  0.50573730008E+03  0.00000000000E+00 0. -1.
         22   -1    0    0    0    0 -0.00000000000E+00 -0.00000000000E+00 -0.70764190121E+03  0.70764190121E+03  0.00000000000E+00 0. -1.
         24    2    1    2    0    0 -0.63815147675E+02  0.86382752044E+02 -0.66795204106E+03  0.68124064828E+03  0.79965860103E+02 0.  0.
         25    2    1    2    0    0  0.71357735791E+02 -0.36132990018E+02  0.19534234177E+03  0.24536241093E+03  0.12508622140E+03 0.  0.
        -24    2    1    2    0    0 -0.75425881161E+01 -0.50249762026E+02  0.27070509817E+03  0.28677614208E+03  0.79858476517E+02 0.  0.
        -11    1    3    3    0    0  0.15698375542E+02  0.18255769847E+02 -0.66107922716E+02  0.70356020163E+02  0.00000000000E+00 0.  1.
         12    1    3    3    0    0 -0.79513523217E+02  0.68126982197E+02 -0.60184411835E+03  0.61088462812E+03  0.00000000000E+00 0. -1.
         11    1    5    5    0    0  0.12043985157E+02 -0.41150810329E+02  0.25837258856E+03  0.26190616886E+03  0.00000000000E+00 0. -1.
        -12    1    5    5    0    0 -0.19586573273E+02 -0.90989516967E+01  0.12332509611E+02  0.24869973218E+02  0.00000000000E+00 0.  1.
          5    1    4    4  501    0 -0.65148278548E+01 -0.50923288871E+02  0.13840293408E+03  0.14767690711E+03  0.41800000000E+01 0.  1.
         -5    1    4    4    0  501  0.77872563646E+02  0.14790298853E+02  0.56939407691E+02  0.97685503823E+02  0.41800000000E+01 0.  1.
</event>
<event>
11    1  0.8453735E-009  0.2110813E+03  0.7561462E-02  0.1046953E+00
         22   -1    0    0    0    0  0.00000000000E+00  0.00000000000E+00  0.68730112924E+03  0.68730112924E+03  0.00000000000E+00 0. -1.
         22   -1    0    0    0    0 -0.00000000000E+00 -0.00000000000E+00 -0.36592209728E+03  0.36592209728E+03  0.00000000000E+00 0.  1.
        -24    2    1    2    0    0  0.15467239112E+03 -0.63270760567E+02 -0.27152003827E+03  0.32850208764E+03  0.79143873308E+02 0.  0.
         25    2    1    2    0    0 -0.17451965445E+03  0.79615366421E+02  0.15007343793E+03  0.27379626282E+03  0.12508653166E+03 0.  0.
         24    2    1    2    0    0  0.19847263328E+02 -0.16344605853E+02  0.44282563230E+03  0.45092487607E+03  0.81102670937E+02 0.  0.
        -13    1    5    5    0    0  0.40348136583E+02  0.15320712714E+02  0.16504841583E+03  0.17059799510E+03  0.00000000000E+00 0.  1.
         14    1    5    5    0    0 -0.20500873254E+02 -0.31665318567E+02  0.27777721647E+03  0.28032688097E+03  0.00000000000E+00 0. -1.
         13    1    3    3    0    0  0.89111788902E+02  0.13118442283E+01 -0.10072935625E+03  0.13449548344E+03  0.00000000000E+00 0. -1.
        -14    1    3    3    0    0  0.65560602220E+02 -0.64582604796E+02 -0.17079068202E+03  0.19400660419E+03  0.00000000000E+00 0.  1.
          5    1    4    4  501    0  0.14105810325E+02  0.14094658871E+01  0.38124627357E+02  0.40889119459E+02  0.41800000000E+01 0.  1.
         -5    1    4    4    0  501 -0.18862546478E+03  0.78205900533E+02  0.11194881057E+03  0.23290714336E+03  0.41800000000E+01 0.  1.
</event>
<event>
11    1  0.8453735E-009  0.2004801E+03  0.7561462E-02  0.1054185E+00
         22   -1    0    0    0    0  0.00000000000E+00  0.00000000000E+00  0.10423114063E+04  0.10423114063E+04  0.00000000000E+00 0.  1.
         22   -1    0    0    0    0 -0.00000000000E+00 -0.00000000000E+00 -0.13451392467E+03  0.13451392467E+03  0.00000000000E+00 0. -1.
        -24    2    1    2    0    0  0.11394227050E+03  0.10297576160E+03 -0.24426546988E+02  0.17432001734E+03  0.78765244646E+02 0.  0.
         25    2    1    2    0    0 -0.11906458651E+03 -0.12310642710E+03  0.31457910677E+03  0.37939375316E+03  0.12509211552E+03 0.  0.
         24    2    1    2    0    0  0.51223160166E+01  0.20130665508E+02  0.61764492183E+03  0.62311156047E+03  0.79694952840E+02 0.  0.
        -13    1    5    5    0    0 -0.29219408123E+02  0.23365327941E+01  0.45450833013E+03  0.45545258299E+03  0.00000000000E+00 0.  1.
         14    1    5    5    0    0  0.34341724140E+02  0.17794132714E+02  0.16313659170E+03  0.16765897748E+03  0.00000000000E+00 0. -1.
         11    1    3    3    0    0  0.10251354030E+03  0.50090361406E+02 -0.34679905524E+02  0.11925085366E+03  0.00000000000E+00 0. -1.
        -12    1    3    3    0    0  0.11428730196E+02  0.52885400190E+02  0.10253358536E+02  0.55069163680E+02  0.00000000000E+00 0.  1.
          5    1    4    4  501    0 -0.12933133807E+03 -0.83925152036E+02  0.17157993117E+03  0.23071014571E+03  0.41800000000E+01 0.  1.
         -5    1    4    4    0  501  0.10266751558E+02 -0.39181275068E+02  0.14299917559E+03  0.14868360745E+03  0.41800000000E+01 0.  1.
</event>
<event>
11    1  0.8453735E-009  0.1297483E+03  0.7561462E-02  0.1119579E+00
         22   -1    0    0    0    0  0.00000000000E+00  0.00000000000E+00  0.55514464691E+03  0.55514464691E+03  0.00000000000E+00 0.  1.
         22   -1    0    0    0    0 -0.00000000000E+00 -0.00000000000E+00 -0.44636136064E+03  0.44636136064E+03  0.00000000000E+00 0.  1.
        -24    2    1    2    0    0 -0.26757351264E+02  0.47472043281E+01 -0.39752317527E+03  0.40620848163E+03  0.79007365992E+02 0.  0.
         25    2    1    2    0    0  0.22783765406E+02  0.30247620713E+02  0.69277568525E+02  0.14792214542E+03  0.12509021176E+03 0.  0.
         24    2    1    2    0    0  0.39735858576E+01 -0.34994825041E+02  0.43702889301E+03  0.44737538051E+03  0.88938465224E+02 0.  0.
        -11    1    5    5    0    0  0.17550828044E+02  0.42010316291E+01  0.35496590170E+03  0.35542435426E+03  0.00000000000E+00 0.  1.
         12    1    5    5    0    0 -0.13577242186E+02 -0.39195856670E+02  0.82062991308E+02  0.91951026247E+02  0.00000000000E+00 0. -1.
         11    1    3    3    0    0 -0.42486545741E+02  0.16554274528E+02 -0.12640248494E+03  0.13437536520E+03  0.00000000000E+00 0. -1.
        -12    1    3    3    0    0  0.15729194477E+02 -0.11807070200E+02 -0.27112069033E+03  0.27183311643E+03  0.00000000000E+00 0.  1.
          5    1    4    4  501    0  0.12202081483E+02 -0.58585032972E+00  0.10125027548E+03  0.10207019495E+03  0.41800000000E+01 0.  1.
         -5    1    4    4    0  501  0.10581683924E+02  0.30833471043E+02 -0.31972706955E+02  0.45851950462E+02  0.41800000000E+01 0.  1.
</event>
<event>
11    1  0.8453735E-009  0.1357578E+03  0.7561462E-02  0.1112390E+00
         22   -1    0    0    0    0  0.00000000000E+00  0.00000000000E+00  0.46834458691E+03  0.46834458691E+03  0.00000000000E+00 0.  1.
         22   -1    0    0    0    0 -0.00000000000E+00 -0.00000000000E+00 -0.32657191946E+03  0.32657191946E+03  0.00000000000E+00 0. -1.
        -24    2    1    2    0    0  0.18110348476E+01  0.38294221752E+02 -0.26093345832E+03  0.27605501025E+03  0.81549811448E+02 0.  0.
         25    2    1    2    0    0 -0.52308835487E+02 -0.48595071396E+02  0.49020406465E+02  0.15214200493E+03  0.12508594717E+03 0.  0.
         24    2    1    2    0    0  0.50497800639E+02  0.10300849643E+02  0.35368571930E+03  0.36671949119E+03  0.82057673673E+02 0.  0.
        -11    1    5    5    0    0 -0.60522916916E+01  0.55165891857E+01  0.23520936959E+03  0.23535188661E+03  0.00000000000E+00 0.  1.
         12    1    5    5    0    0  0.56550092331E+02  0.47842604574E+01  0.11847634972E+03  0.13136760458E+03  0.00000000000E+00 0. -1.
         11    1    3    3    0    0  0.35184382573E+02  0.33808744648E+02 -0.20534499533E+03  0.21106287949E+03  0.00000000000E+00 0. -1.
        -12    1    3    3    0    0 -0.33373347725E+02  0.44854771048E+01 -0.55588462987E+02  0.64992130758E+02  0.00000000000E+00 0.  1.
          5    1    4    4  501    0  0.12597100358E+02  0.11444287811E+01  0.67000035641E+02  0.68311593676E+02  0.41800000000E+01 0.  1.
         -5    1    4    4    0  501 -0.64905935845E+02 -0.49739500177E+02 -0.17979629176E+02  0.83830411254E+02  0.41800000000E+01 0.  1.
</event>
<event>
11    1  0.8453735E-009  0.1406953E+03  0.7561462E-02  0.1106784E+00
         22   -1    0    0    0    0  0.00000000000E+00  0.00000000000E+00  0.94134397824E+03  0.94134397824E+03  0.00000000000E+00 0. -1.
         22   -1    0    0    0    0 -0.00000000000E+00 -0.00000000000E+00 -0.31635981524E+03  0.31635981524E+03  0.00000000000E+00 0. -1.
         24    2    1    2    0    0 -0.52464469562E+02  0.21799324333E+02 -0.19503264016E+03  0.21888881235E+03  0.81528218027E+02 0.  0.
         25    2    1    2    0    0  0.92134047549E+02 -0.48499562991E+02 -0.44870796367E+02  0.16882678240E+03  0.12509278061E+03 0.  0.
        -24    2    1    2    0    0 -0.39669577987E+02  0.26700238657E+02  0.86488759953E+03  0.86998819872E+03  0.81008196731E+02 0.  0.
        -11    1    3    3    0    0  0.91825301273E+01  0.28744632456E+02 -0.29868834945E+02  0.42458450932E+02  0.00000000000E+00 0.  1.
         12    1    3    3    0    0 -0.61646999689E+02 -0.69453081226E+01 -0.16516380522E+03  0.17643036142E+03  0.00000000000E+00 0. -1.
         11    1    5    5    0    0 -0.13739501308E+02  0.54233909353E+02  0.54955644674E+03  0.55239693968E+03  0.00000000000E+00 0. -1.
        -12    1    5    5    0    0 -0.25930076679E+02 -0.27533670696E+02  0.31533115279E+03  0.31759125904E+03  0.00000000000E+00 0.  1.
          5    1    4    4  501    0  0.57180098556E+02 -0.65648100106E+02 -0.78433232789E+02  0.11725391731E+03  0.41800000000E+01 0. -1.
         -5    1    4    4    0  501  0.34953948993E+02  0.17148537116E+02  0.33562436422E+02  0.51572865094E+02  0.41800000000E+01 0. -1.
</event>
<event>
11    1  0.8453735E-009  0.1430608E+03  0.7561462E-02  0.1104188E+00
         22   -1    0    0    0    0  0.00000000000E+00  0.00000000000E+00  0.19200148774E+03  0.19200148774E+03  0.00000000000E+00 0.  1.
         22   -1    0    0    0    0 -0.00000000000E+00 -0.00000000000E+00 -0.33549288884E+03  0.33549288884E+03  0.00000000000E+00 0. -1.
        -24    2    1    2    0    0  0.24676036369E+02  0.25103496916E+02 -0.21471667665E+03  0.23067045815E+03  0.76593189671E+02 0.  0.
         25    2    1    2    0    0 -0.66382738185E+02 -0.71406514271E+02 -0.20189700384E+02  0.15987839537E+03  0.12509164279E+03 0.  0.
         24    2    1    2    0    0  0.41706701816E+02  0.46303017355E+02  0.91414975935E+02  0.13694552306E+03  0.80709107725E+02 0.  0.
        -13    1    5    5    0    0  0.33001093201E+02  0.28456221686E+02  0.10446171668E+03  0.11318603694E+03  0.00000000000E+00 0.  1.
         14    1    5    5    0    0  0.87056086152E+01  0.17846795669E+02 -0.13046740747E+02  0.23759486129E+02  0.00000000000E+00 0. -1.
         13    1    3    3    0    0 -0.34674966325E+01  0.18658224466E+02 -0.59093022772E+01  0.19876436464E+02  0.00000000000E+00 0. -1.
        -14    1    3    3    0    0  0.28143533002E+02  0.64452724504E+01 -0.20880737437E+03  0.21079402168E+03  0.00000000000E+00 0.  1.
          5    1    4    4  501    0 -0.32776096666E+02  0.16598061011E+02  0.34752256391E+02  0.50744062374E+02  0.41800000000E+01 0. -1.
         -5    1    4    4    0  501 -0.33606641519E+02 -0.88004575282E+02 -0.54941956775E+02  0.10913433300E+03  0.41800000000E+01 0. -1.
</event>
<event>
11    1  0.8453735E-009  0.1429458E+03  0.7561462E-02  0.1104313E+00
         22   -1    0    0    0    0  0.00000000000E+00  0.00000000000E+00  0.10764614233E+04  0.10764614233E+04  0.00000000000E+00 0. -1.
         22   -1    0    0    0    0 -0.00000000000E+00 -0.00000000000E+00 -0.32506942541E+04  0.32506942541E+04  0.00000000000E+00 0.  1.
         24    2    1    2    0    0 -0.55969458833E+02 -0.24736129915E+01 -0.29889713419E+04  0.29904070082E+04  0.73794939158E+02 0.  0.
         25    2    1    2    0    0  0.95556126093E+01 -0.49373497797E+02 -0.24067598464E+03  0.27586568112E+03  0.12509153616E+03 0.  0.
        -24    2    1    2    0    0  0.46413846224E+02  0.51847110788E+02  0.10554144957E+04  0.10608829880E+04  0.82040164795E+02 0.  0.
        -13    1    3    3    0    0 -0.44862152783E+02 -0.14639521180E+02 -0.28598136991E+04  0.28602030211E+04  0.00000000000E+00 0.  1.
         14    1    3    3    0    0 -0.11107306051E+02  0.12165908189E+02 -0.12915764279E+03  0.13020398711E+03  0.00000000000E+00 0. -1.
         13    1    5    5    0    0  0.49487269196E+02  0.30598823967E+02  0.99618100508E+03  0.99787868638E+03  0.00000000000E+00 0. -1.
        -14    1    5    5    0    0 -0.30734229721E+01  0.21248286822E+02  0.59233490584E+02  0.63004301666E+02  0.00000000000E+00 0.  1.
          5    1    4    4  501    0  0.14499148079E+02 -0.88596550820E+02 -0.12814309554E+03  0.15651740941E+03  0.41800000000E+01 0.  1.
         -5    1    4    4    0  501 -0.49435354701E+01  0.39223053023E+02 -0.11253288910E+03  0.11934827171E+03  0.41800000000E+01 0.  1.
</event>
<event>
11    1  0.8453735E-009  0.1845058E+03  0.7561462E-02  0.1066055E+00
         22   -1    0    0    0    0  0.00000000000E+00  0.00000000000E+00  0.29395691833E+04  0.29395691833E+04  0.00000000000E+00 0.  1.
         22   -1    0    0    0    0 -0.00000000000E+00 -0.00000000000E+00 -0.66527494939E+03  0.66527494939E+03  0.00000000000E+00 0.  1.
         24    2    1    2    0    0  0.19585954510E+02  0.46546436524E+02 -0.56046783958E+03  0.56864200002E+03  0.81727257492E+02 0.  0.
         25    2    1    2    0    0 -0.58930892641E+02 -0.17518286084E+03  0.27920949114E+02  0.22492071205E+03  0.12509141645E+03 0.  0.
        -24    2    1    2    0    0  0.39344938131E+02  0.12863642432E+03  0.28068411244E+04  0.28112814207E+04  0.82769406092E+02 0.  0.
        -11    1    3    3    0    0 -0.12295661079E+02  0.14266941678E+02 -0.43178175613E+03  0.43219233430E+03  0.00000000000E+00 0.  1.
         12    1    3    3    0    0  0.31881615589E+02  0.32279494846E+02 -0.12868608345E+03  0.13644966572E+03  0.00000000000E+00 0. -1.
         11    1    5    5    0    0  0.44486781402E+02  0.19634422116E+02  0.93074249469E+03  0.93201189675E+03  0.00000000000E+00 0. -1.
        -12    1    5    5    0    0 -0.51418432709E+01  0.10900200220E+03  0.18760986297E+04  0.18792695239E+04  0.00000000000E+00 0.  1.
          5    1    4    4  501    0 -0.50506857314E+02 -0.17796385192E+02  0.39732594970E+02  0.66811716522E+02  0.41800000000E+01 0. -1.
         -5    1    4    4    0  501 -0.84240353271E+01 -0.15738647565E+03 -0.11811645856E+02  0.15810899553E+03  0.41800000000E+01 0. -1.
</event>
<event>
11    1  0.8453735E-009  0.3374997E+03  0.7561462E-02  0.9854614E-01
         22   -1    0    0    0    0  0.00000000000E+00  0.00000000000E+00  0.28905557901E+04  0.28905557901E+04  0.00000000000E+00 0. -1.
         22   -1    0    0    0    0 -0.00000000000E+00 -0.00000000000E+00 -0.35086729389E+03  0.35086729389E+03  0.00000000000E+00 0.  1.
         24    2    1    2    0    0 -0.31201969784E+03 -0.39226916809E+02 -0.24889490868E+03  0.40976604812E+03  0.84050554880E+02 0.  0.
         25    2    1    2    0    0  0.28664624735E+03  0.93676932047E+02  0.13374165425E+04  0.13766884646E+04  0.12508669732E+03 0.  0.
        -24    2    1    2    0    0  0.25373450497E+02 -0.54450015238E+02  0.14511668625E+04  0.14549685713E+04  0.86253490276E+02 0.  0.
        -13    1    3    3    0    0 -0.24806963255E+03 -0.42290310481E+02 -0.15315055315E+03  0.29458802570E+03  0.00000000000E+00 0.  1.
         14    1    3    3    0    0 -0.63950065295E+02  0.30633936717E+01 -0.95744355535E+02  0.11517802242E+03  0.00000000000E+00 0. -1.
         13    1    5    5    0    0  0.11639488687E+02 -0.60736678928E+02  0.14056756854E+04  0.14070353778E+04  0.00000000000E+00 0. -1.
        -14    1    5    5    0    0  0.13733961810E+02  0.62866636901E+01  0.45491177052E+02  0.47933193478E+02  0.00000000000E+00 0.  1.
          5    1    4    4  501    0  0.22772327234E+03  0.59119147507E+02  0.12036087323E+04  0.12263948856E+04  0.41800000000E+01 0.  1.
         -5    1    4    4    0  501  0.58922975003E+02  0.34557784540E+02  0.13380781012E+03  0.15029357905E+03  0.41800000000E+01 0.  1.
</event>
<event>
11    1  0.8453735E-009  0.3219890E+03  0.7561462E-02  0.9912918E-01
         22   -1    0    0    0    0  0.00000000000E+00  0.00000000000E+00  0.52278782860E+03  0.52278782860E+03  0.00000000000E+00 0.  1.
         22   -1    0    0    0    0 -0.00000000000E+00 -0.00000000000E+00 -0.11409674371E+04  0.11409674371E+04  0.00000000000E+00 0. -1.
        -24    2    1    2    0    0 -0.91497211202E+02 -0.18998375881E+03 -0.87536388659E+03  0.90437951685E+03  0.84704240031E+02 0.  0.
         25    2    1    2    0    0  0.42960777405E+02  0.42965647432E+03  0.10906985660E+03  0.46260029542E+03  0.12510989324E+03 0.  0.
         24    2    1    2    0    0  0.48536433797E+02 -0.23967271551E+03  0.14811442154E+03  0.29677545339E+03  0.79617786327E+02 0.  0.
        -11    1    5    5    0    0 -0.61203048189E+01 -0.15246635754E+03  0.10480648495E+03  0.18511576810E+03  0.00000000000E+00 0.  1.
         12    1    5    5    0    0  0.54656738616E+02 -0.87206357976E+02  0.43307936594E+02  0.11165968529E+03  0.00000000000E+00 0. -1.
         11    1    3    3    0    0 -0.10789069292E+03 -0.15940543269E+03 -0.73374454519E+03  0.75857204746E+03  0.00000000000E+00 0. -1.
        -12    1    3    3    0    0  0.16393481718E+02 -0.30578326115E+02 -0.14161934140E+03  0.14580746939E+03  0.00000000000E+00 0.  1.
          5    1    4    4  501    0 -0.37774450877E+01 -0.74019957943E+01 -0.12816541859E+01  0.93900836302E+01  0.41800000000E+01 0. -1.
         -5    1    4    4    0  501  0.46738222493E+02  0.43705847011E+03  0.11035151079E+03  0.45321021179E+03  0.41800000000E+01 0. -1.
</event>
<event>
11    1  0.8453735E-009  0.1316039E+03  0.7561462E-02  0.1117314E+00
         22   -1    0    0    0    0  0.00000000000E+00  0.00000000000E+00  0.89685152587E+03  0.89685152587E+03  0.00000000000E+00 0. -1.
         22   -1    0    0    0    0 -0.00000000000E+00 -0.00000000000E+00 -0.32080498640E+03  0.32080498640E+03  0.00000000000E+00 0.  1.
         24    2    1    2    0    0  0.32011770728E+02  0.15302710951E+01 -0.22205629475E+03  0.23800876455E+03  0.79448591985E+02 0.  0.
         25    2    1    2    0    0  0.82184812441E+01  0.95714057596E+01 -0.43541923822E+02  0.13305373851E+03  0.12509293729E+03 0.  0.
        -24    2    1    2    0    0 -0.40230251972E+02 -0.11101676855E+02  0.84164475804E+03  0.84659400921E+03  0.81325256138E+02 0.  0.
        -13    1    3    3    0    0  0.37649622930E+02 -0.26594655834E+02 -0.18757691607E+03  0.19315762804E+03  0.00000000000E+00 0.  1.
         14    1    3    3    0    0 -0.56378522025E+01  0.28124926929E+02 -0.34479378676E+02  0.44851136509E+02  0.00000000000E+00 0. -1.
         11    1    5    5    0    0 -0.44752825383E+02 -0.40515651911E+02  0.62629321146E+03  0.62919593145E+03  0.00000000000E+00 0. -1.
        -12    1    5    5    0    0  0.45225734113E+01  0.29413975057E+02  0.21535154658E+03  0.21739807776E+03  0.00000000000E+00 0.  1.
          5    1    4    4  501    0  0.19766584292E+00  0.28578123636E+02 -0.83246515787E+02  0.88114715076E+02  0.41800000000E+01 0.  1.
         -5    1    4    4    0  501  0.80208154012E+01 -0.19006717876E+02  0.39704591965E+02  0.44939023434E+02  0.41800000000E+01 0.  1.
</event>
<event>
11    1  0.8453735E-009  0.1666703E+03  0.7561462E-02  0.1080966E+00
         22   -1    0    0    0    0  0.00000000000E+00  0.00000000000E+00  0.77275871522E+03  0.77275871522E+03  0.00000000000E+00 0. -1.
         22   -1    0    0    0    0 -0.00000000000E+00 -0.00000000000E+00 -0.16644241933E+03  0.16644241933E+03  0.00000000000E+00 0.  1.
        -24    2    1    2    0    0  0.82726936554E+02  0.61302124599E+02 -0.77164609404E+02  0.15305832732E+03  0.82890156863E+02 0.  0.
         25    2    1    2    0    0 -0.15275732786E+03 -0.47547644815E+02  0.18035118591E+03  0.27160752036E+03  0.12509402510E+03 0.  0.
         24    2    1    2    0    0  0.70030391303E+02 -0.13754479784E+02  0.50312971938E+03  0.51453528686E+03  0.80706910995E+02 0.  0.
        -13    1    5    5    0    0 -0.15971314017E+02  0.13649090308E+01  0.14635122658E+03  0.14722644929E+03  0.00000000000E+00 0.  1.
         14    1    5    5    0    0  0.86001705320E+02 -0.15119388815E+02  0.35677849280E+03  0.36730883758E+03  0.00000000000E+00 0. -1.
         11    1    3    3    0    0  0.29828226845E+02 -0.18456680441E+02 -0.30945128395E+02  0.46775775151E+02  0.00000000000E+00 0. -1.
        -12    1    3    3    0    0  0.52898709710E+02  0.79758805040E+02 -0.46219481009E+02  0.10628255217E+03  0.00000000000E+00 0.  1.
          5    1    4    4  501    0 -0.51313930355E+02 -0.28119623226E+02 -0.55235120895E+01  0.58922103192E+02  0.41800000000E+01 0.  1.
         -5    1    4    4    0  501 -0.10144339750E+03 -0.19428021590E+02  0.18587469800E+03  0.21268541717E+03  0.41800000000E+01 0.  1.
</event>
<event>
11    1  0.8453735E-009  0.1990271E+03  0.7561462E-02  0.1055214E+00
         22   -1    0    0    0    0  0.00000000000E+00  0.00000000000E+00  0.33273972417E+03  0.33273972417E+03  0.00000000000E+00 0.  1.
         22   -1    0    0    0    0 -0.00000000000E+00 -0.00000000000E+00 -0.15702682982E+04  0.15702682982E+04  0.00000000000E+00 0. -1.
        -24    2    1    2    0    0 -0.63323925897E+01 -0.15471125654E+03 -0.14795108790E+04  0.14897314766E+04  0.79823299604E+02 0.  0.
         25    2    1    2    0    0  0.39017325691E+02  0.15221135310E+03  0.56669393156E+02  0.20868646103E+03  0.12509185098E+03 0.  0.
         24    2    1    2    0    0 -0.32684933101E+02  0.24999034411E+01  0.18531291183E+03  0.20459008473E+03  0.80260034324E+02 0.  0.
        -11    1    5    5    0    0  0.80059520606E+01  0.10819673290E+02  0.14844644103E+03  0.14905538049E+03  0.00000000000E+00 0.  1.
         12    1    5    5    0    0 -0.40690885162E+02 -0.83197698488E+01  0.36866470796E+02  0.55534704236E+02  0.00000000000E+00 0. -1.
         11    1    3    3    0    0  0.12321959738E+01 -0.14684812043E+03 -0.14600809466E+04  0.14674475321E+04  0.00000000000E+00 0. -1.
        -12    1    3    3    0    0 -0.75645885635E+01 -0.78631361063E+01 -0.19429932364E+02  0.22283944472E+02  0.00000000000E+00 0.  1.
          5    1    4    4  501    0  0.66823603382E+02  0.65648375019E+02  0.69573719137E+02  0.11676077212E+03  0.41800000000E+01 0.  1.
         -5    1    4    4    0  501 -0.27806277691E+02  0.86562978077E+02 -0.12904325981E+02  0.91925688910E+02  0.41800000000E+01 0.  1.
</event>
<event>
11    1  0.8453735E-009  0.1716133E+03  0.7561462E-02  0.1076636E+00
         22   -1    0    0    0    0  0.00000000000E+00  0.00000000000E+00  0.20450404545E+03  0.20450404545E+03  0.00000000000E+00 0. -1.
         22   -1    0    0    0    0 -0.00000000000E+00 -0.00000000000E+00 -0.41043315388E+03  0.41043315388E+03  0.00000000000E+00 0. -1.
         24    2    1    2    0    0  0.30618972771E+02 -0.12036402588E+03 -0.26121091467E+03  0.30080153889E+03  0.82616001084E+02 0.  0.
         25    2    1    2    0    0  0.70961997949E+02  0.10064986459E+03  0.65552517603E+01  0.17564577398E+03  0.12506984528E+03 0.  0.
        -24    2    1    2    0    0 -0.10158097072E+03  0.19714161292E+02  0.48726554480E+02  0.13848988645E+03  0.78088602054E+02 0.  0.
        -11    1    3    3    0    0  0.30988607735E+02 -0.43407979733E+02 -0.40235459568E+02  0.66808971856E+02  0.00000000000E+00 0.  1.
         12    1    3    3    0    0 -0.36963496324E+00 -0.76956046145E+02 -0.22097545510E+03  0.23399256703E+03  0.00000000000E+00 0. -1.
         13    1    5    5    0    0 -0.95401812953E+02  0.20067801280E+02  0.67595850621E+02  0.11863145276E+03  0.00000000000E+00 0. -1.
        -14    1    5    5    0    0 -0.61791577673E+01 -0.35363998729E+00 -0.18869296140E+02  0.19858433694E+02  0.00000000000E+00 0.  1.
          5    1    4    4  501    0  0.46367716470E+02 -0.10724614838E+02 -0.29260989929E+02  0.56023748764E+02  0.41800000000E+01 0. -1.
         -5    1    4    4    0  501  0.24594281479E+02  0.11137447942E+03  0.35816241689E+02  0.11962202522E+03  0.41800000000E+01 0. -1.
</event>
<event>
11    1  0.8453735E-009  0.1432434E+03  0.7561462E-02  0.1103990E+00
         22   -1    0    0    0    0  0.00000000000E+00  0.00000000000E+00  0.60868701038E+03  0.60868701038E+03  0.00000000000E+00 0. -1.
         22   -1    0    0    0    0 -0.00000000000E+00 -0.00000000000E+00 -0.20410660377E+03  0.20410660377E+03  0.00000000000E+00 0.  1.
         24    2    1    2    0    0 -0.90073876098E+01 -0.70115621565E+02 -0.15178103613E+03  0.18470295363E+03  0.77976693507E+02 0.  0.
         25    2    1    2    0    0  0.42652504049E+02  0.55029244320E+02  0.13289131356E+03  0.19533358265E+03  0.12509058101E+03 0.  0.
        -24    2    1    2    0    0 -0.33645116439E+02  0.15086377244E+02  0.42347012918E+03  0.43275707787E+03  0.81192028597E+02 0.  0.
        -13    1    3    3    0    0  0.13630493225E+02 -0.73995724008E+02 -0.13988679896E+03  0.15883788603E+03  0.00000000000E+00 0.  1.
         14    1    3    3    0    0 -0.22637880835E+02  0.38801024429E+01 -0.11894237176E+02  0.25865067594E+02  0.00000000000E+00 0. -1.
         13    1    5    5    0    0  0.15246233743E+02 -0.20185857964E+02  0.18789404938E+03  0.18958926736E+03  0.00000000000E+00 0. -1.
        -14    1    5    5    0    0 -0.48891350182E+02  0.35272235208E+02  0.23557607979E+03  0.24316781051E+03  0.00000000000E+00 0.  1.
          5    1    4    4  501    0  0.48131590388E+02  0.19512653649E+02  0.14741188254E+03  0.15634938170E+03  0.41800000000E+01 0.  1.
         -5    1    4    4    0  501 -0.54790863397E+01  0.35516590671E+02 -0.14520568974E+02  0.38984200946E+02  0.41800000000E+01 0.  1.
</event>
<event>
11    1  0.8453735E-009  0.3428187E+03  0.7561462E-02  0.9835390E-01
         22   -1    0    0    0    0  0.00000000000E+00  0.00000000000E+00  0.15212985002E+04  0.15212985002E+04  0.00000000000E+00 0. -1.
         22   -1    0    0    0    0 -0.00000000000E+00 -0.00000000000E+00 -0.22158324824E+03  0.22158324824E+03  0.00000000000E+00 0. -1.
        -24    2    1    2    0    0  0.16071549522E+01  0.33848779040E+02 -0.96830481911E+02  0.13123223789E+03  0.81837859487E+02 0.  0.
         25    2    1    2    0    0 -0.17544983577E+03  0.24106709203E+03  0.22828062831E+03  0.39581407753E+03  0.12514292221E+03 0.  0.
         24    2    1    2    0    0  0.17384268081E+03 -0.27491587107E+03  0.11682651056E+04  0.12158354330E+04  0.87249237675E+02 0.  0.
        -11    1    5    5    0    0  0.18663621002E+01  0.14070884040E+01  0.77803969766E+02  0.77839070630E+02  0.00000000000E+00 0.  1.
         12    1    5    5    0    0  0.17197631871E+03 -0.27632295948E+03  0.10904611358E+04  0.11379963624E+04  0.00000000000E+00 0. -1.
         13    1    3    3    0    0  0.21282823567E+02 -0.76723708180E+01 -0.78616015214E+02  0.81806489358E+02  0.00000000000E+00 0. -1.
        -14    1    3    3    0    0 -0.19675668615E+02  0.41521149858E+02 -0.18214466696E+02  0.49425748533E+02  0.00000000000E+00 0.  1.
          5    1    4    4  501    0 -0.17818771778E+03  0.22507372833E+03  0.24094718449E+03  0.37480937030E+03  0.41800000000E+01 0. -1.
         -5    1    4    4    0  501  0.27378820179E+01  0.15993363698E+02 -0.12666556178E+02  0.21004707228E+02  0.41800000000E+01 0. -1.
</event>
<event>
11    1  0.8453735E-009  0.1555024E+03  0.7561462E-02  0.1091385E+00
         22   -1    0    0    0    0  0.00000000000E+00  0.00000000000E+00  0.85933657759E+03  0.85933657759E+03  0.00000000000E+00 0. -1.
         22   -1    0    0    0    0 -0.00000000000E+00 -0.00000000000E+00 -0.23297862670E+03  0.23297862670E+03  0.00000000000E+00 0. -1.
        -24    2    1    2    0    0  0.49493415758E+02 -0.78899974353E+02 -0.12928706132E+03  0.17877855030E+03  0.81066772886E+02 0.  0.
         25    2    1    2    0    0 -0.19574697543E+02  0.92255536868E+02  0.38723644786E+01  0.15670695509E+03  0.12509125349E+03 0.  0.
         24    2    1    2    0    0 -0.29918718214E+02 -0.13355562515E+02  0.75177264773E+03  0.75682969889E+03  0.80966527012E+02 0.  0.
        -13    1    5    5    0    0  0.27721220221E+02  0.11647532548E+01  0.26094602497E+03  0.26241694048E+03  0.00000000000E+00 0.  1.
         14    1    5    5    0    0 -0.57639938435E+02 -0.14520315770E+02  0.49082662276E+03  0.49441275842E+03  0.00000000000E+00 0. -1.
         11    1    3    3    0    0  0.37665801930E+02 -0.80055641894E+02 -0.56383855710E+02  0.10491309555E+03  0.00000000000E+00 0. -1.
        -12    1    3    3    0    0  0.11827613828E+02  0.11556675416E+01 -0.72903205612E+02  0.73865454746E+02  0.00000000000E+00 0.  1.
          5    1    4    4  501    0  0.26323348973E+02  0.61670688593E+02  0.50753119137E+02  0.84199430134E+02  0.41800000000E+01 0.  1.
         -5    1    4    4    0  501 -0.45898046516E+02  0.30584848275E+02 -0.46880754659E+02  0.72507524957E+02  0.41800000000E+01 0.  1.
</event>
<event>
11    1  0.8453735E-009  0.1394760E+03  0.7561462E-02  0.1108145E+00
         22   -1    0    0    0    0  0.00000000000E+00  0.00000000000E+00  0.41512983065E+03  0.41512983065E+03  0.00000000000E+00 0. -1.
         22   -1    0    0    0    0 -0.00000000000E+00 -0.00000000000E+00 -0.10658125527E+04  0.10658125527E+04  0.00000000000E+00 0. -1.
         24    2    1    2    0    0  0.59032360780E+02 -0.17781041684E+02 -0.99974160784E+03  0.10048675603E+04  0.80464564641E+02 0.  0.
         25    2    1    2    0    0 -0.45123802642E+02  0.67734466055E+02  0.42583185838E+02  0.15519308843E+03  0.12508977386E+03 0.  0.
        -24    2    1    2    0    0 -0.13908558138E+02 -0.49953424372E+02  0.30647569993E+03  0.32088173468E+03  0.79680238514E+02 0.  0.
        -13    1    3    3    0    0  0.21357668282E+02 -0.42953131509E+02 -0.70853642077E+03  0.71015841969E+03  0.00000000000E+00 0.  1.
         14    1    3    3    0    0  0.37674692498E+02  0.25172089825E+02 -0.29120518707E+03  0.29470914057E+03  0.00000000000E+00 0. -1.
         13    1    5    5    0    0 -0.28282893121E+02 -0.31396315670E+02  0.28779965993E+03  0.29088536390E+03  0.00000000000E+00 0. -1.
        -14    1    5    5    0    0  0.14374334983E+02 -0.18557108701E+02  0.18676040002E+02  0.29996370776E+02  0.00000000000E+00 0.  1.
          5    1    4    4  501    0 -0.52853066851E+02  0.88367235531E+02  0.66311976941E+02  0.12254372965E+03  0.41800000000E+01 0.  1.
         -5    1    4    4    0  501  0.77292642091E+01 -0.20632769476E+02 -0.23728791103E+02  0.32649358779E+02  0.41800000000E+01 0.  1.
</event>
<event>
11    1  0.8453735E-009  0.1559306E+03  0.7561462E-02  0.1090968E+00
         22   -1    0    0    0    0  0.00000000000E+00  0.00000000000E+00  0.14698776781E+03  0.14698776781E+03  0.00000000000E+00 0. -1.
         22   -1    0    0    0    0 -0.00000000000E+00 -0.00000000000E+00 -0.62771931603E+03  0.62771931603E+03  0.00000000000E+00 0.  1.
        -24    2    1    2    0    0 -0.59254851352E+02  0.45829454699E+02 -0.23654499462E+03  0.26070945659E+03  0.80027557450E+02 0.  0.
         25    2    1    2    0    0  0.12897610862E+03 -0.36441086344E+02 -0.32955497801E+03  0.37711618395E+03  0.12508934127E+03 0.  0.
         24    2    1    2    0    0 -0.69721257269E+02 -0.93883683550E+01  0.85368424404E+02  0.13688144329E+03  0.80619888721E+02 0.  0.
        -13    1    5    5    0    0  0.22108422907E+01  0.24196495915E+02  0.35881289180E+02  0.43333879949E+02  0.00000000000E+00 0.  1.
         14    1    5    5    0    0 -0.71932099560E+02 -0.33584864270E+02  0.49487135224E+02  0.93547563345E+02  0.00000000000E+00 0. -1.
         13    1    3    3    0    0 -0.79564785762E+01 -0.92115184475E+01  0.32558327988E+00  0.12176355280E+02  0.00000000000E+00 0. -1.
        -14    1    3    3    0    0 -0.51298372776E+02  0.55040973146E+02 -0.23687057790E+03  0.24853310131E+03  0.00000000000E+00 0.  1.
          5    1    4    4  501    0  0.76229592253E+02 -0.72157493002E+02 -0.12741575642E+03  0.16513601035E+03  0.41800000000E+01 0. -1.
         -5    1    4    4    0  501  0.52746516367E+02  0.35716406658E+02 -0.20213922159E+03  0.21198017360E+03  0.41800000000E+01 0. -1.
</event>
<event>
11    1  0.8453735E-009  0.1518496E+03  0.7561462E-02  0.1095004E+00
         22   -1    0    0    0    0  0.00000000000E+00  0.00000000000E+00  0.11497366085E+04  0.11497366085E+04  0.00000000000E+00 0.  1.
         22   -1    0    0    0    0 -0.00000000000E+00 -0.00000000000E+00 -0.32561242792E+02  0.32561242792E+02  0.00000000000E+00 0. -1.
        -24    2    1    2    0    0  0.77137916655E+01 -0.56282079841E+01  0.11489935890E+03  0.14250517528E+03  0.83753704386E+02 0.  0.
         25    2    1    2    0    0 -0.69023645214E+02 -0.53868316648E+02  0.47375299791E+03  0.49775112224E+03  0.12509283565E+03 0.  0.
         24    2    1    2    0    0  0.61309853548E+02  0.59496524632E+02  0.52852300894E+03  0.54204155381E+03  0.84697936765E+02 0.  0.
        -11    1    5    5    0    0  0.30838240932E+02  0.76667233999E+02  0.31430401638E+03  0.32498596367E+03  0.00000000000E+00 0.  1.
         12    1    5    5    0    0  0.30471612616E+02 -0.17170709367E+02  0.21421899256E+03  0.21705559014E+03  0.00000000000E+00 0. -1.
         13    1    3    3    0    0  0.14965219820E+02 -0.19435289420E+02 -0.19620966254E+01  0.24607683805E+02  0.00000000000E+00 0. -1.
        -14    1    3    3    0    0 -0.72514281542E+01  0.13807081436E+02  0.11686145552E+03  0.11789749147E+03  0.00000000000E+00 0.  1.
          5    1    4    4  501    0  0.32549903231E+02 -0.30924133504E+02  0.99159234681E+02  0.10893036517E+03  0.41800000000E+01 0.  1.
         -5    1    4    4    0  501 -0.10157354844E+03 -0.22944183144E+02  0.37459376322E+03  0.38882075707E+03  0.41800000000E+01 0.  1.
</event>
<event>
11    1  0.8453735E-009  0.2151457E+03  0.7561462E-02  0.1044302E+00
         22   -1    0    0    0    0  0.00000000000E+00  0.00000000000E+00  0.14897742151E+04  0.14897742151E+04  0.00000000000E+00 0.  1.
         22   -1    0    0    0    0 -0.00000000000E+00 -0.00000000000E+00 -0.16570532543E+03  0.16570532543E+03  0.00000000000E+00 0.  1.
        -24    2    1    2    0    0  0.14035061101E+03 -0.39074497071E+02  0.16588983706E+02  0.16686237434E+03  0.79641366506E+02 0.  0.
         25    2    1    2    0    0 -0.22967824846E+03  0.86054163728E+02  0.13064403353E+03  0.30474776162E+03  0.12508364324E+03 0.  0.
         24    2    1    2    0    0  0.89327637455E+02 -0.46979666658E+02  0.11768358725E+04  0.11838694046E+04  0.80109802854E+02 0.  0.
        -13    1    5    5    0    0  0.28525260596E+02 -0.37427733574E+02  0.84918081695E+03  0.85048373624E+03  0.00000000000E+00 0.  1.
         14    1    5    5    0    0  0.60802376859E+02 -0.95519330832E+01  0.32765505552E+03  0.33338566836E+03  0.00000000000E+00 0. -1.
         13    1    3    3    0    0  0.12332323724E+03  0.47235447158E-01  0.10609260717E+02  0.12377875217E+03  0.00000000000E+00 0. -1.
        -14    1    3    3    0    0  0.17027373763E+02 -0.39121732518E+02  0.59797229895E+01  0.43083622173E+02  0.00000000000E+00 0.  1.
          5    1    4    4  501    0 -0.10236924291E+03  0.30832071146E+02  0.12673591128E+03  0.16586000758E+03  0.41800000000E+01 0. -1.
         -5    1    4    4    0  501 -0.12730900555E+03  0.55222092582E+02  0.39081222475E+01  0.13888775405E+03  0.41800000000E+01 0. -1.
</event>
<event>
11    1  0.8453735E-009  0.1459173E+03  0.7561462E-02  0.1101125E+00
         22   -1    0    0    0    0  0.00000000000E+00  0.00000000000E+00  0.17263459752E+04  0.17263459752E+04  0.00000000000E+00 0.  1.
         22   -1    0    0    0    0 -0.00000000000E+00 -0.00000000000E+00 -0.52265805437E+03  0.52265805437E+03  0.00000000000E+00 0.  1.
         24    2    1    2    0    0 -0.47184694618E+02 -0.57860186217E+02 -0.49233200570E+03  0.50456718915E+03  0.81382110942E+02 0.  0.
         25    2    1    2    0    0  0.65209812037E+02  0.70495897491E+02  0.24700729404E+03  0.29305622568E+03  0.12508939583E+03 0.  0.
        -24    2    1    2    0    0 -0.18025117419E+02 -0.12635711275E+02  0.14490126325E+04  0.14513806147E+04  0.79896893971E+02 0.  0.
        -11    1    3    3    0    0 -0.24523647259E+02 -0.74472055851E+02 -0.29486683043E+03  0.30511300212E+03  0.00000000000E+00 0.  1.
         12    1    3    3    0    0 -0.22661047359E+02  0.16611869634E+02 -0.19746517527E+03  0.19945418703E+03  0.00000000000E+00 0. -1.
         13    1    5    5    0    0 -0.99221581612E+00 -0.94320911818E+01  0.18742517854E+02  0.21005494800E+02  0.00000000000E+00 0. -1.
        -14    1    5    5    0    0 -0.17032901603E+02 -0.32036200927E+01  0.14302701146E+04  0.14303751199E+04  0.00000000000E+00 0.  1.
          5    1    4    4  501    0  0.61537992452E+02  0.90358472555E+02  0.11230869934E+03  0.15678741794E+03  0.41800000000E+01 0.  1.
         -5    1    4    4    0  501  0.36718195847E+01 -0.19862575064E+02  0.13469859470E+03  0.13626880773E+03  0.41800000000E+01 0.  1.
</event>
<event>
11    1  0.8453735E-009  0.1501601E+03  0.7561462E-02  0.1096715E+00
         22   -1    0    0    0    0  0.00000000000E+00  0.00000000000E+00  0.27755353599E+03  0.27755353599E+03  0.00000000000E+00 0. -1.
         22   -1    0    0    0    0 -0.00000000000E+00 -0.00000000000E+00 -0.27140985595E+03  0.27140985595E+03  0.00000000000E+00 0. -1.
         24    2    1    2    0    0 -0.75131255762E+02 -0.35121883788E+02 -0.17335237786E+03  0.20300207115E+03  0.65425848627E+02 0.  0.
         25    2    1    2    0    0  0.92499849228E+02 -0.36055116433E+01  0.13487347938E+02  0.15619700122E+03  0.12508546204E+03 0.  0.
        -24    2    1    2    0    0 -0.17368593466E+02  0.38727395431E+02  0.16600870995E+03  0.18976431957E+03  0.81548304742E+02 0.  0.
        -11    1    3    3    0    0 -0.24481211234E+02 -0.39614445382E+02 -0.44219390681E+02  0.64218287883E+02  0.00000000000E+00 0.  1.
         12    1    3    3    0    0 -0.50650044528E+02  0.44925615942E+01 -0.12913298718E+03  0.13878378327E+03  0.00000000000E+00 0. -1.
         11    1    5    5    0    0 -0.48791099927E+02  0.18499467674E+02  0.11720725254E+03  0.12829786352E+03  0.00000000000E+00 0. -1.
        -12    1    5    5    0    0  0.31422506462E+02  0.20227927757E+02  0.48801457415E+02  0.61466456051E+02  0.00000000000E+00 0.  1.
          5    1    4    4  501    0  0.22845194289E+02  0.50426046273E+02  0.34648421417E+02  0.65442146600E+02  0.41800000000E+01 0.  1.
         -5    1    4    4    0  501  0.69654654939E+02 -0.54031557917E+02 -0.21161073478E+02  0.90754854616E+02  0.41800000000E+01 0.  1.
</event>
<event>
11    1  0.8453735E-009  0.1303145E+03  0.7561462E-02  0.1118883E+00
         22   -1    0    0    0    0  0.00000000000E+00  0.00000000000E+00  0.11723465920E+04  0.11723465920E+04  0.00000000000E+00 0.  1.
         22   -1    0    0    0    0 -0.00000000000E+00 -0.00000000000E+00 -0.59979712170E+03  0.59979712170E+03  0.00000000000E+00 0. -1.
         24    2    1    2    0    0 -0.35875323227E+02 -0.49172009544E+01 -0.56226492311E+03  0.56923855507E+03  0.81113939225E+02 0.  0.
         25    2    1    2    0    0  0.53047160050E+02 -0.21730956741E+02  0.11501305298E+03  0.17933742177E+03  0.12509065842E+03 0.  0.
        -24    2    1    2    0    0 -0.17171836823E+02  0.26648157696E+02  0.10198013404E+04  0.10235677368E+04  0.81799399192E+02 0.  0.
        -13    1    3    3    0    0 -0.47150855571E+02  0.22823071625E+02 -0.24353917716E+03  0.24910926637E+03  0.00000000000E+00 0.  1.
         14    1    3    3    0    0  0.11275532344E+02 -0.27740272580E+02 -0.31872574595E+03  0.32012928870E+03  0.00000000000E+00 0. -1.
         11    1    5    5    0    0  0.32690348277E+02  0.12235165066E+02  0.48462539101E+03  0.48588077524E+03  0.00000000000E+00 0. -1.
        -12    1    5    5    0    0 -0.49862185101E+02  0.14412992629E+02  0.53517594938E+03  0.53768696158E+03  0.00000000000E+00 0.  1.
          5    1    4    4  501    0  0.42535153947E+02 -0.48056926060E+02  0.37262455790E+01  0.64420996342E+02  0.41800000000E+01 0.  1.
         -5    1    4    4    0  501  0.10512006103E+02  0.26325969318E+02  0.11128680740E+03  0.11491642543E+03  0.41800000000E+01 0.  1.
</event>
<event>
11    1  0.8453735E-009  0.1367136E+03  0.7561462E-02  0.1111285E+00
         22   -1    0    0    0    0  0.00000000000E+00  0.00000000000E+00  0.27247717762E+03  0.27247717762E+03  0.00000000000E+00 0. -1.
         22   -1    0    0    0    0 -0.00000000000E+00 -0.00000000000E+00 -0.25457148313E+03  0.25457148313E+03  0.00000000000E+00 0.  1.
         24    2    1    2    0    0 -0.54246204436E+02  0.17078420432E+02 -0.18763875874E+03  0.21180655416E+03  0.80121092494E+02 0.  0.
         25    2    1    2    0    0  0.47568729397E+02  0.36941492599E+02  0.99618566730E+02  0.17087546130E+03  0.12508839492E+03 0.  0.
        -24    2    1    2    0    0  0.66774750385E+01 -0.54019913031E+02  0.10592588650E+03  0.14436664530E+03  0.81600828218E+02 0.  0.
        -11    1    3    3    0    0 -0.65482005099E+02  0.79452398493E+01 -0.82274116115E+02  0.10545164774E+03  0.00000000000E+00 0.  1.
         12    1    3    3    0    0  0.11235800663E+02  0.91331805831E+01 -0.10536464263E+03  0.10635490642E+03  0.00000000000E+00 0. -1.
         11    1    5    5    0    0 -0.85299976844E+01 -0.61005535046E+01  0.91450231996E+02  0.92049565701E+02  0.00000000000E+00 0. -1.
        -12    1    5    5    0    0  0.15207472723E+02 -0.47919359526E+02  0.14475654508E+02  0.52317079596E+02  0.00000000000E+00 0.  1.
          5    1    4    4  501    0 -0.31477731217E+02 -0.14750370049E+02  0.57625596936E+02  0.67428501402E+02  0.41800000000E+01 0. -1.
         -5    1    4    4    0  501  0.79046460614E+02  0.51691862648E+02  0.41992969795E+02  0.10344695990E+03  0.41800000000E+01 0. -1.
</event>
<event>
11    1  0.8453735E-009  0.3195740E+03  0.7561462E-02  0.9922313E-01
         22   -1    0    0    0    0  0.00000000000E+00  0.00000000000E+00  0.53922399684E+03  0.53922399684E+03  0.00000000000E+00 0. -1.
         22   -1    0    0    0    0 -0.00000000000E+00 -0.00000000000E+00 -0.49987164203E+03  0.49987164203E+03  0.00000000000E+00 0. -1.
         24    2    1    2    0    0 -0.16428795211E+03 -0.23208439626E+03 -0.28494179662E+03  0.41094389015E+03  0.82639912877E+02 0.  0.
         25    2    1    2    0    0  0.26020412066E+03  0.25208971789E+03  0.31835000344E+03  0.49824720255E+03  0.12509252530E+03 0.  0.
        -24    2    1    2    0    0 -0.95916168551E+02 -0.20005321630E+02  0.59441479824E+01  0.12990454617E+03  0.85086626071E+02 0.  0.
        -11    1    3    3    0    0 -0.82165637897E+02 -0.12262414047E+03 -0.20451089924E+03  0.25221534407E+03  0.00000000000E+00 0.  1.
         12    1    3    3    0    0 -0.82122314210E+02 -0.10946025578E+03 -0.80430897379E+02  0.15872854608E+03  0.00000000000E+00 0. -1.
         11    1    5    5    0    0 -0.22197458914E+01  0.14460232344E+01 -0.27880539601E+02  0.28006119750E+02  0.00000000000E+00 0. -1.
        -12    1    5    5    0    0 -0.93696422659E+02 -0.21451344864E+02  0.33824687583E+02  0.10189842641E+03  0.00000000000E+00 0.  1.
          5    1    4    4  501    0  0.18611609225E+03  0.16689799200E+03  0.28775078803E+03  0.38119827904E+03  0.41800000000E+01 0. -1.
         -5    1    4    4    0  501  0.74088028404E+02  0.85191725884E+02  0.30599215416E+02  0.11704892351E+03  0.41800000000E+01 0. -1.
</event>
<event>
11    1  0.8453735E-009  0.1677245E+03  0.7561462E-02  0.1080029E+00
         22   -1    0    0    0    0  0.00000000000E+00  0.00000000000E+00  0.16438742131E+04  0.16438742131E+04  0.00000000000E+00 0.  1.
         22   -1    0    0    0    0 -0.00000000000E+00 -0.00000000000E+00 -0.59206413925E+03  0.59206413925E+03  0.00000000000E+00 0.  1.
         24    2    1    2    0    0  0.10909639149E+03  0.22557203367E+02 -0.57079307975E+03  0.58703199922E+03  0.79943593592E+02 0.  0.
         25    2    1    2    0    0 -0.14851616698E+03 -0.17408218802E+02  0.90349962364E+03  0.92429352164E+03  0.12508735465E+03 0.  0.
        -24    2    1    2    0    0  0.39419775496E+02 -0.51489845656E+01  0.71910352999E+03  0.72461283152E+03  0.79833815046E+02 0.  0.
        -11    1    3    3    0    0  0.93873499493E+02  0.17955441511E+02 -0.55930780749E+03  0.56741506440E+03  0.00000000000E+00 0.  1.
         12    1    3    3    0    0  0.15222891995E+02  0.46017618561E+01 -0.11485272262E+02  0.19616934822E+02  0.00000000000E+00 0. -1.
         11    1    5    5    0    0  0.21056317565E+02 -0.34210140175E+02  0.18062446083E+03  0.18503755849E+03  0.00000000000E+00 0. -1.
        -12    1    5    5    0    0  0.18363457931E+02  0.29061155609E+02  0.53847906915E+03  0.53957527303E+03  0.00000000000E+00 0.  1.
          5    1    4    4  501    0 -0.15729117468E+03 -0.41680064831E+02  0.67715863106E+03  0.69644743195E+03  0.41800000000E+01 0.  1.
         -5    1    4    4    0  501  0.87750076986E+01  0.24271846030E+02  0.22634099258E+03  0.22784608970E+03  0.41800000000E+01 0.  1.
</event>
<event>
11    1  0.8453735E-009  0.1793043E+03  0.7561462E-02  0.1070207E+00
         22   -1    0    0    0    0  0.00000000000E+00  0.00000000000E+00  0.14633012300E+03  0.14633012300E+03  0.00000000000E+00 0.  1.
         22   -1    0    0    0    0 -0.00000000000E+00 -0.00000000000E+00 -0.63904701836E+03  0.63904701836E+03  0.00000000000E+00 0.  1.
         24    2    1    2    0    0  0.59036175093E+02  0.12126251720E+03 -0.51455378414E+03  0.53756062011E+03  0.77562590631E+02 0.  0.
         25    2    1    2    0    0 -0.39855300966E+02 -0.75629662426E+02  0.29126407409E+01  0.15153935209E+03  0.12508957151E+03 0.  0.
        -24    2    1    2    0    0 -0.19180874127E+02 -0.45632854776E+02  0.18924248043E+02  0.96277169173E+02  0.80379741059E+02 0.  0.
        -13    1    3    3    0    0 -0.13449341108E+02  0.45840191576E+02 -0.21573144371E+03  0.22095760622E+03  0.00000000000E+00 0.  1.
         14    1    3    3    0    0  0.72485516201E+02  0.75422325626E+02 -0.29882234043E+03  0.31660301389E+03  0.00000000000E+00 0. -1.
         11    1    5    5    0    0 -0.36444710805E+02 -0.46004498596E+02 -0.12879914019E+02  0.60087627860E+02  0.00000000000E+00 0. -1.
        -12    1    5    5    0    0  0.17263836678E+02  0.37164382010E+00  0.31804162062E+02  0.36189541313E+02  0.00000000000E+00 0.  1.
          5    1    4    4  501    0 -0.79568148862E+02 -0.19661581692E+02  0.87798675280E+01  0.82536213760E+02  0.41800000000E+01 0. -1.
         -5    1    4    4    0  501  0.39712847896E+02 -0.55968080734E+02 -0.58672267870E+01  0.69003138329E+02  0.41800000000E+01 0. -1.
</event>
<event>
11    1  0.8453735E-009  0.1302723E+03  0.7561462E-02  0.1118935E+00
         22   -1    0    0    0    0  0.00000000000E+00  0.00000000000E+00  0.19404997562E+03  0.19404997562E+03  0.00000000000E+00 0. -1.
         22   -1    0    0    0    0 -0.00000000000E+00 -0.00000000000E+00 -0.12833260030E+04  0.12833260030E+04  0.00000000000E+00 0.  1.
         24    2    1    2    0    0 -0.18688138541E+02 -0.18022470468E+02 -0.12134648895E+04  0.12164155902E+04  0.80596488658E+02 0.  0.
         25    2    1    2    0    0 -0.18163668741E+02  0.30868733811E+02  0.35647776292E+02  0.13491257497E+03  0.12509133199E+03 0.  0.
        -24    2    1    2    0    0  0.36851807282E+02 -0.12846263343E+02  0.88541085831E+02  0.12604781348E+03  0.80780227913E+02 0.  0.
        -11    1    3    3    0    0  0.23387056510E+02 -0.32070895174E+02 -0.64712889536E+03  0.64834505007E+03  0.00000000000E+00 0.  1.
         12    1    3    3    0    0 -0.42075195051E+02  0.14048424706E+02 -0.56633599415E+03  0.56807054012E+03  0.00000000000E+00 0. -1.
         11    1    5    5    0    0  0.62309865562E+02 -0.88074706134E+01  0.70972963309E+02  0.94853847607E+02  0.00000000000E+00 0. -1.
        -12    1    5    5    0    0 -0.25458058280E+02 -0.40387927297E+01  0.17568122522E+02  0.31193965876E+02  0.00000000000E+00 0.  1.
          5    1    4    4  501    0  0.27381813801E+02 -0.33759406392E+02 -0.81628551657E+01  0.44424833724E+02  0.41800000000E+01 0. -1.
         -5    1    4    4    0  501 -0.45545482542E+02  0.64628140203E+02  0.43810631458E+02  0.90487741241E+02  0.41800000000E+01 0. -1.
</event>
<event>
11    1  0.8453735E-009  0.1519663E+03  0.7561462E-02  0.1094886E+00
         22   -1    0    0    0    0  0.00000000000E+00  0.00000000000E+00  0.20106642490E+04  0.20106642490E+04  0.00000000000E+00 0. -1.
         22   -1    0    0    0    0 -0.00000000000E+00 -0.00000000000E+00 -0.29496553922E+03  0.29496553922E+03  0.00000000000E+00 0. -1.
         24    2    1    2    0    0 -0.82623312834E+02  0.23837898861E+01 -0.20654529147E+03  0.23661712104E+03  0.80587903954E+02 0.  0.
         25    2    1    2    0    0  0.11038364854E+03  0.31010025069E+02  0.27357039452E+02  0.17188046903E+03  0.12509323126E+03 0.  0.
        -24    2    1    2    0    0 -0.27760335707E+02 -0.33393814955E+02  0.18948869618E+04  0.18971321981E+04  0.81413734460E+02 0.  0.
        -13    1    3    3    0    0 -0.73144800632E+02 -0.22358074548E+02 -0.94974252354E+02  0.12194324076E+03  0.00000000000E+00 0.  1.
         14    1    3    3    0    0 -0.94785122023E+01  0.24741864434E+02 -0.11157103912E+03  0.11467388028E+03  0.00000000000E+00 0. -1.
         13    1    5    5    0    0 -0.55483840323E+02 -0.18801568204E+02  0.14237395028E+04  0.14249442541E+04  0.00000000000E+00 0. -1.
        -14    1    5    5    0    0  0.27723504616E+02 -0.14592246751E+02  0.47114745899E+03  0.47218794403E+03  0.00000000000E+00 0.  1.
          5    1    4    4  501    0 -0.21391246549E+02  0.22868584333E+02 -0.12395093921E+02  0.33936239209E+02  0.41800000000E+01 0.  1.
         -5    1    4    4    0  501  0.13177489509E+03  0.81414407359E+01  0.39752133373E+02  0.13794422982E+03  0.41800000000E+01 0.  1.
</event>
<event>
11    1  0.8453735E-009  0.2477012E+03  0.7561462E-02  0.1025131E+00
         22   -1    0    0    0    0  0.00000000000E+00  0.00000000000E+00  0.21607407362E+04  0.21607407362E+04  0.00000000000E+00 0.  1.
         22   -1    0    0    0    0 -0.00000000000E+00 -0.00000000000E+00 -0.34459815561E+03  0.34459815561E+03  0.00000000000E+00 0.  1.
        -24    2    1    2    0    0 -0.14773494749E+02  0.21451891767E+03 -0.26525846653E+03  0.35120307704E+03  0.82127492777E+02 0.  0.
         25    2    1    2    0    0 -0.17742350585E+03 -0.19993270290E+03  0.73811375426E+03  0.79492914036E+03  0.12509291690E+03 0.  0.
         24    2    1    2    0    0  0.19219700060E+03 -0.14586214772E+02  0.13432872929E+04  0.13592066745E+04  0.76613235774E+02 0.  0.
        -13    1    5    5    0    0 -0.34195069156E+01  0.37657160672E+01  0.75930285748E+01  0.91393505230E+01  0.00000000000E+00 0.  1.
         14    1    5    5    0    0  0.19561650751E+03 -0.18351930839E+02  0.13356942643E+04  0.13500673239E+04  0.00000000000E+00 0. -1.
         11    1    3    3    0    0 -0.48952123226E+01  0.20875947805E+02  0.14176972401E+01  0.21489024312E+02  0.00000000000E+00 0. -1.
        -12    1    3    3    0    0 -0.98782824264E+01  0.19364296986E+03 -0.26667616377E+03  0.32971405272E+03  0.00000000000E+00 0.  1.
          5    1    4    4  501    0  0.35345114343E+01 -0.42659375028E+02  0.21799680131E+03  0.22219899377E+03  0.41800000000E+01 0.  1.
         -5    1    4    4    0  501 -0.18095801728E+03 -0.15727332787E+03  0.52011695295E+03  0.57273014660E+03  0.41800000000E+01 0.  1.
</event>
<event>
11    1  0.8453735E-009  0.1642963E+03  0.7561462E-02  0.1083105E+00
         22   -1    0    0    0    0  0.00000000000E+00  0.00000000000E+00  0.31802575892E+03  0.31802575892E+03  0.00000000000E+00 0. -1.
         22   -1    0    0    0    0 -0.00000000000E+00 -0.00000000000E+00 -0.58638098691E+03  0.58638098691E+03  0.00000000000E+00 0.  1.
        -24    2    1    2    0    0  0.11401087295E+03  0.95352178361E+01 -0.39422598917E+03  0.41838955268E+03  0.80909132522E+02 0.  0.
         25    2    1    2    0    0 -0.83656449909E+02 -0.16362453646E+02 -0.14051473793E+03  0.20655312003E+03  0.12511462071E+03 0.  0.
         24    2    1    2    0    0 -0.30354423046E+02  0.68272358101E+01  0.26638549911E+03  0.27946407312E+03  0.78555279140E+02 0.  0.
        -13    1    5    5    0    0  0.15502688880E+02 -0.13463963614E+02  0.22434479782E+02  0.30412457345E+02  0.00000000000E+00 0.  1.
         14    1    5    5    0    0 -0.45857111925E+02  0.20291199424E+02  0.24395101933E+03  0.24905161577E+03  0.00000000000E+00 0. -1.
         11    1    3    3    0    0  0.78557814161E+02 -0.32263823768E+02 -0.25464282975E+03  0.26843109960E+03  0.00000000000E+00 0. -1.
        -12    1    3    3    0    0  0.35453058794E+02  0.41799041604E+02 -0.13958315942E+03  0.14995845308E+03  0.00000000000E+00 0.  1.
          5    1    4    4  501    0  0.17995395965E+01  0.24408129816E+02 -0.10076555683E+03  0.10377940541E+03  0.41800000000E+01 0.  1.
         -5    1    4    4    0  501 -0.85455989506E+02 -0.40770583462E+02 -0.39749181103E+02  0.10277371462E+03  0.41800000000E+01 0.  1.
</event>
<event>
11    1  0.8453735E-009  0.1494378E+03  0.7561462E-02  0.1097455E+00
         22   -1    0    0    0    0  0.00000000000E+00  0.00000000000E+00  0.14909687520E+04  0.14909687520E+04  0.00000000000E+00 0.  1.
         22   -1    0    0    0    0 -0.00000000000E+00 -0.00000000000E+00 -0.26280471403E+03  0.26280471403E+03  0.00000000000E+00 0.  1.
        -24    2    1    2    0    0  0.78882689319E+02 -0.18680496503E+02 -0.22387818009E+03  0.25397774317E+03  0.88384471942E+02 0.  0.
         25    2    1    2    0    0 -0.10455282708E+03 -0.27214488544E+02  0.28998059236E+03  0.33377767614E+03  0.12508745383E+03 0.  0.
         24    2    1    2    0    0  0.25670137764E+02  0.45894985047E+02  0.11620616257E+04  0.11660180467E+04  0.80284230953E+02 0.  0.
        -13    1    5    5    0    0  0.32676100319E+02  0.30781470467E+02  0.11181817123E+04  0.11190824671E+04  0.00000000000E+00 0.  1.
         14    1    5    5    0    0 -0.70059625549E+01  0.15113514580E+02  0.43879913372E+02  0.46935579594E+02  0.00000000000E+00 0. -1.
         13    1    3    3    0    0  0.23314669696E+02  0.33774168738E+02 -0.10412624239E+03  0.11192203827E+03  0.00000000000E+00 0. -1.
        -14    1    3    3    0    0  0.55568019623E+02 -0.52454665240E+02 -0.11975193771E+03  0.14205570490E+03  0.00000000000E+00 0.  1.
          5    1    4    4  501    0 -0.14442971572E+02 -0.49342227035E+02  0.34811490245E+02  0.62229952994E+02  0.41800000000E+01 0.  1.
         -5    1    4    4    0  501 -0.90109855511E+02  0.22127738490E+02  0.25516910212E+03  0.27154772315E+03  0.41800000000E+01 0.  1.
</event>
<event>
11    1  0.8453735E-009  0.1262368E+03  0.7561462E-02  0.1123981E+00
         22   -1    0    0    0    0  0.00000000000E+00  0.00000000000E+00  0.23986967115E+03  0.23986967115E+03  0.00000000000E+00 0. -1.
         22   -1    0    0    0    0 -0.00000000000E+00 -0.00000000000E+00 -0.15228949348E+03  0.15228949348E+03  0.00000000000E+00 0.  1.
        -24    2    1    2    0    0 -0.22611274127E+02 -0.70721287730E+01 -0.67686954520E+02  0.11208858777E+03  0.86145475642E+02 0.  0.
         25    2    1    2    0    0 -0.14633071484E+02  0.12324167119E+02  0.36931894158E+02  0.13182715552E+03  0.12509365391E+03 0.  0.
         24    2    1    2    0    0  0.37244345611E+02 -0.52520383456E+01  0.11833523803E+03  0.14824342134E+03  0.80982456278E+02 0.  0.
        -13    1    5    5    0    0  0.16207439838E+01  0.31445787453E+02  0.19715548689E+02  0.37150601876E+02  0.00000000000E+00 0.  1.
         14    1    5    5    0    0  0.35623601628E+02 -0.36697825799E+02  0.98619689341E+02  0.11109281947E+03  0.00000000000E+00 0. -1.
         13    1    3    3    0    0 -0.33996569970E+02 -0.36106947144E+02 -0.16718139930E+02  0.52335213809E+02  0.00000000000E+00 0. -1.
        -14    1    3    3    0    0  0.11385295842E+02  0.29034818371E+02 -0.50968814590E+02  0.59753373963E+02  0.00000000000E+00 0.  1.
          5    1    4    4  501    0 -0.50934803653E+02  0.50970021863E+02  0.30101327382E+02  0.78203961933E+02  0.41800000000E+01 0. -1.
         -5    1    4    4    0  501  0.36301732169E+02 -0.38645854745E+02  0.68305667761E+01  0.53623193582E+02  0.41800000000E+01 0. -1.
</event>
<event>
11    1  0.8453735E-009  0.3601564E+03  0.7561462E-02  0.9775234E-01
         22   -1    0    0    0    0  0.00000000000E+00  0.00000000000E+00  0.57870627709E+03  0.57870627709E+03  0.00000000000E+00 0.  1.
         22   -1    0    0    0    0 -0.00000000000E+00 -0.00000000000E+00 -0.42785882494E+03  0.42785882494E+03  0.00000000000E+00 0. -1.
         24    2    1    2    0    0 -0.34638637530E+03 -0.94305886620E+02  0.21803784449E+03  0.42859987221E+03  0.85324249672E+02 0.  0.
         25    2    1    2    0    0  0.33459959400E+03 -0.20028159514E+02 -0.17759153391E+03  0.39943012238E+03  0.12509058426E+03 0.  0.
        -24    2    1    2    0    0  0.11786781300E+02  0.11433404613E+03  0.11040114156E+03  0.17853510744E+03  0.80468442337E+02 0.  0.
        -11    1    3    3    0    0 -0.10652454683E+03  0.48094124909E+01  0.88294514698E+02  0.13844324054E+03  0.00000000000E+00 0.  1.
         12    1    3    3    0    0 -0.23986182847E+03 -0.99115299110E+02  0.12974332980E+03  0.29015663166E+03  0.00000000000E+00 0. -1.
         11    1    5    5    0    0 -0.15313771442E+01 -0.45054920325E+01 -0.86006562165E+01  0.98293367919E+01  0.00000000000E+00 0. -1.
        -12    1    5    5    0    0  0.13318158444E+02  0.11883953817E+03  0.11900179778E+03  0.16870577065E+03  0.00000000000E+00 0.  1.
          5    1    4    4  501    0  0.29083006469E+02 -0.40310680189E+02 -0.38956885471E+02  0.63292049487E+02  0.41800000000E+01 0. -1.
         -5    1    4    4    0  501  0.30551658753E+03  0.20282520675E+02 -0.13863464844E+03  0.33613807289E+03  0.41800000000E+01 0. -1.
</event>
<event>
11    1  0.8453735E-009  0.1352484E+03  0.7561462E-02  0.1112983E+00
         22   -1    0    0    0    0  0.00000000000E+00  0.00000000000E+00  0.78584259961E+03  0.78584259961E+03  0.00000000000E+00 0. -1.
         22   -1    0    0    0    0 -0.00000000000E+00 -0.00000000000E+00 -0.13486628102E+03  0.13486628102E+03  0.00000000000E+00 0.  1.
        -24    2    1    2    0    0 -0.32284929585E+02  0.39656547599E+02 -0.96946491258E+02  0.13679004612E+03  0.81840919505E+02 0.  0.
         25    2    1    2    0    0  0.41037859350E+02 -0.39143327156E+02  0.31236035708E+03  0.34122144843E+03  0.12508708258E+03 0.  0.
         24    2    1    2    0    0 -0.87529297652E+01 -0.51322044278E+00  0.43556245277E+03  0.44269738608E+03  0.78673046269E+02 0.  0.
        -11    1    5    5    0    0 -0.45926599468E+01  0.20728143298E+02  0.31097739272E+02  0.37653921944E+02  0.00000000000E+00 0.  1.
         12    1    5    5    0    0 -0.41602698185E+01 -0.21241363741E+02  0.40446471349E+03  0.40504346414E+03  0.00000000000E+00 0. -1.
         11    1    3    3    0    0 -0.46148197828E+02  0.39234938665E+02 -0.28481900293E+02  0.66934708628E+02  0.00000000000E+00 0. -1.
        -12    1    3    3    0    0  0.13863268244E+02  0.42160893366E+00 -0.68464590965E+02  0.69855337495E+02  0.00000000000E+00 0.  1.
          5    1    4    4  501    0 -0.10268660656E+02 -0.61203884207E+01 -0.80635098899E+01  0.15013232092E+02  0.41800000000E+01 0.  1.
         -5    1    4    4    0  501  0.51306520006E+02 -0.33022938736E+02  0.32042386697E+03  0.32620821633E+03  0.41800000000E+01 0.  1.
</event>
<event>
11    1  0.8453735E-009  0.1803041E+03  0.7561462E-02  0.1069397E+00
         22   -1    0    0    0    0  0.00000000000E+00  0.00000000000E+00  0.53693101246E+03  0.53693101246E+03  0.00000000000E+00 0.  1.
         22   -1    0    0    0    0 -0.00000000000E+00 -0.00000000000E+00 -0.11944451848E+03  0.11944451848E+03  0.00000000000E+00 0.  1.
        -24    2    1    2    0    0  0.94278345265E+01 -0.32326124226E+02  0.69459711480E+01  0.88362748560E+02  0.81399425345E+02 0.  0.
         25    2    1    2    0    0 -0.24551114619E+01  0.15536511811E+03  0.97132426816E+02  0.22186964991E+03  0.12508831167E+03 0.  0.
         24    2    1    2    0    0 -0.69727230646E+01 -0.12303899388E+03  0.31340809602E+03  0.34614313246E+03  0.80020126353E+02 0.  0.
        -13    1    5    5    0    0 -0.30482037834E+02 -0.11237174339E+03  0.21612118083E+03  0.24548916096E+03  0.00000000000E+00 0.  1.
         14    1    5    5    0    0  0.23509314769E+02 -0.10667250487E+02  0.97286915183E+02  0.10065397150E+03  0.00000000000E+00 0. -1.
         11    1    3    3    0    0 -0.23436068565E+02 -0.10632714809E+01 -0.23915186161E+02  0.33500984838E+02  0.00000000000E+00 0. -1.
        -12    1    3    3    0    0  0.32863903091E+02 -0.31262852746E+02  0.30861157309E+02  0.54861763721E+02  0.00000000000E+00 0.  1.
          5    1    4    4  501    0 -0.65528250497E+00  0.10107017309E+03  0.12489177669E+03  0.16072037073E+03  0.41800000000E+01 0.  1.
         -5    1    4    4    0  501 -0.17998289569E+01  0.54294945019E+02 -0.27759349874E+02  0.61149279181E+02  0.41800000000E+01 0.  1.
</event>
<event>
11    1  0.8453735E-009  0.1355588E+03  0.7561462E-02  0.1112622E+00
         22   -1    0    0    0    0  0.00000000000E+00  0.00000000000E+00  0.49113610016E+02  0.49113610016E+02  0.00000000000E+00 0. -1.
         22   -1    0    0    0    0 -0.00000000000E+00 -0.00000000000E+00 -0.15880650400E+04  0.15880650400E+04  0.00000000000E+00 0. -1.
        -24    2    1    2    0    0  0.29020910022E+02  0.38470343661E+02 -0.12943103502E+04  0.12976165896E+04  0.79040181481E+02 0.  0.
         25    2    1    2    0    0  0.24819876477E+02  0.68341153004E+01 -0.15545584770E+03  0.20118846110E+03  0.12509014707E+03 0.  0.
         24    2    1    2    0    0 -0.53840786499E+02 -0.45304458961E+02 -0.89185232061E+02  0.13837359935E+03  0.79005842097E+02 0.  0.
        -11    1    5    5    0    0  0.20443816962E+02 -0.15854769150E+02 -0.22905626501E+02  0.34554176045E+02  0.00000000000E+00 0.  1.
         12    1    5    5    0    0 -0.74284603461E+02 -0.29449689811E+02 -0.66279605561E+02  0.10381942330E+03  0.00000000000E+00 0. -1.
         13    1    3    3    0    0  0.24475272487E+01 -0.51735472557E+01 -0.89891693192E+03  0.89893515143E+03  0.00000000000E+00 0. -1.
        -14    1    3    3    0    0  0.26573382773E+02  0.43643890917E+02 -0.39539341833E+03  0.39868143817E+03  0.00000000000E+00 0.  1.
          5    1    4    4  501    0  0.40166005612E+02  0.17517087780E+02 -0.17096335676E+03  0.17653922546E+03  0.41800000000E+01 0. -1.
         -5    1    4    4    0  501 -0.15346129135E+02 -0.10682972480E+02  0.15507509056E+02  0.24649235638E+02  0.41800000000E+01 0. -1.
</event>
<event>
11    1  0.8453735E-009  0.1420326E+03  0.7561462E-02  0.1105310E+00
         22   -1    0    0    0    0  0.00000000000E+00  0.00000000000E+00  0.26493724891E+03  0.26493724891E+03  0.00000000000E+00 0.  1.
         22   -1    0    0    0    0 -0.00000000000E+00 -0.00000000000E+00 -0.19647248685E+04  0.19647248685E+04  0.00000000000E+00 0.  1.
        -24    2    1    2    0    0 -0.37545262968E+02 -0.22105095884E+01 -0.17871563010E+04  0.17894090610E+04  0.81502211603E+02 0.  0.
         25    2    1    2    0    0  0.10278463606E+02  0.64689124160E+02 -0.13322806337E+03  0.19413131401E+03  0.12508765171E+03 0.  0.
         24    2    1    2    0    0  0.27266799362E+02 -0.62478614571E+02  0.22059674472E+03  0.24612174240E+03  0.85240440384E+02 0.  0.
        -13    1    5    5    0    0 -0.15935271935E+02 -0.63800299754E+01  0.13004796841E+03  0.13117588102E+03  0.00000000000E+00 0.  1.
         14    1    5    5    0    0  0.43202071296E+02 -0.56098584596E+02  0.90548776311E+02  0.11494586138E+03  0.00000000000E+00 0. -1.
         13    1    3    3    0    0 -0.17745663157E+02 -0.41562526786E+02 -0.10007342419E+04  0.10017541490E+04  0.00000000000E+00 0. -1.
        -14    1    3    3    0    0 -0.19799599810E+02  0.39352017198E+02 -0.78642205909E+03  0.78765491203E+03  0.00000000000E+00 0.  1.
          5    1    4    4  501    0  0.51060969863E+02  0.19460061299E+02 -0.11963839776E+03  0.13159306687E+03  0.41800000000E+01 0.  1.
         -5    1    4    4    0  501 -0.40782506257E+02  0.45229062861E+02 -0.13589665606E+02  0.62538247138E+02  0.41800000000E+01 0.  1.
</event>
<event>
11    1  0.8453735E-009  0.1532647E+03  0.7561462E-02  0.1093589E+00
         22   -1    0    0    0    0  0.00000000000E+00  0.00000000000E+00  0.20205551135E+03  0.20205551135E+03  0.00000000000E+00 0.  1.
         22   -1    0    0    0    0 -0.00000000000E+00 -0.00000000000E+00 -0.98078394380E+03  0.98078394380E+03  0.00000000000E+00 0.  1.
        -24    2    1    2    0    0 -0.48152732068E+02 -0.24383616967E+02 -0.87473071700E+03  0.88038720149E+03  0.83752915844E+02 0.  0.
         25    2    1    2    0    0  0.41167597897E+02  0.10453735656E+03  0.32284609832E+02  0.17120620137E+03  0.12508571989E+03 0.  0.
         24    2    1    2    0    0  0.69851341705E+01 -0.80153739595E+02  0.63717674720E+02  0.13124605229E+03  0.81805685009E+02 0.  0.
        -13    1    5    5    0    0  0.24876481412E+02 -0.90597193653E+02  0.50358427945E+02  0.10659578833E+03  0.00000000000E+00 0.  1.
         14    1    5    5    0    0 -0.17891347242E+02  0.10443454058E+02  0.13359246774E+02  0.24650263958E+02  0.00000000000E+00 0. -1.
         11    1    3    3    0    0 -0.13050154327E+02  0.18094206203E+02 -0.63831507487E+02  0.67617809593E+02  0.00000000000E+00 0. -1.
        -12    1    3    3    0    0 -0.35102577741E+02 -0.42477823170E+02 -0.81089920951E+03  0.81276939190E+03  0.00000000000E+00 0.  1.
          5    1    4    4  501    0  0.71140250126E+02  0.30952216171E+02  0.46259144174E+02  0.90423203292E+02  0.41800000000E+01 0.  1.
         -5    1    4    4    0  501 -0.29972652229E+02  0.73585140391E+02 -0.13974534342E+02  0.80782998076E+02  0.41800000000E+01 0.  1.
</event>
<event>
11    1  0.8453735E-009  0.2119398E+03  0.7561462E-02  0.1046387E+00
         22   -1    0    0    0    0  0.00000000000E+00  0.00000000000E+00  0.67437997639E+03  0.67437997639E+03  0.00000000000E+00 0. -1.
         22   -1    0    0    0    0 -0.00000000000E+00 -0.00000000000E+00 -0.18646200905E+03  0.18646200905E+03  0.00000000000E+00 0. -1.
        -24    2    1    2    0    0 -0.12409190479E+03 -0.47452201398E+02  0.32985648610E+01  0.15699165644E+03  0.83576237114E+02 0.  0.
         25    2    1    2    0    0  0.26070000540E+03 -0.18226442010E+02  0.15227579649E+03  0.32731014992E+03  0.12508924829E+03 0.  0.
         24    2    1    2    0    0 -0.13660810061E+03  0.65678643409E+02  0.33234360599E+03  0.37654017909E+03  0.91404467472E+02 0.  0.
        -11    1    5    5    0    0 -0.12984101760E+02  0.50858302998E+02  0.99820819700E+02  0.11278009544E+03  0.00000000000E+00 0.  1.
         12    1    5    5    0    0 -0.12362399885E+03  0.14820340410E+02  0.23252278629E+03  0.26376008364E+03  0.00000000000E+00 0. -1.
         11    1    3    3    0    0 -0.11020504365E+03 -0.68845542637E+02  0.10844555724E+02  0.13039349974E+03  0.00000000000E+00 0. -1.
        -12    1    3    3    0    0 -0.13886861148E+02  0.21393341239E+02 -0.75459908630E+01  0.26598156703E+02  0.00000000000E+00 0.  1.
          5    1    4    4  501    0  0.19930844567E+03 -0.84763893245E+01  0.47019402283E+02  0.20499756653E+03  0.41800000000E+01 0.  1.
         -5    1    4    4    0  501  0.61391559730E+02 -0.97500526856E+01  0.10525639421E+03  0.12231258339E+03  0.41800000000E+01 0.  1.
</event>
<event>
11    1  0.8453735E-009  0.1695484E+03  0.7561462E-02  0.1078425E+00
         22   -1    0    0    0    0  0.00000000000E+00  0.00000000000E+00  0.88616648989E+03  0.88616648989E+03  0.00000000000E+00 0. -1.
         22   -1    0    0    0    0 -0.00000000000E+00 -0.00000000000E+00 -0.61994404952E+03  0.61994404952E+03  0.00000000000E+00 0. -1.
         24    2    1    2    0    0 -0.72760640875E+02  0.86667048727E+02 -0.57463622452E+03  0.59144412271E+03  0.82426158279E+02 0.  0.
         25    2    1    2    0    0  0.13374133313E+03 -0.11024488055E+03  0.33175092580E+03  0.39464593021E+03  0.12508419400E+03 0.  0.
        -24    2    1    2    0    0 -0.60980692255E+02  0.23577831826E+02  0.50910773909E+03  0.52002048649E+03  0.83402981921E+02 0.  0.
        -13    1    3    3    0    0  0.12195716610E+02  0.41310700785E+02 -0.15286546947E+03  0.15881801302E+03  0.00000000000E+00 0.  1.
         14    1    3    3    0    0 -0.84956357485E+02  0.45356347942E+02 -0.42177075505E+03  0.43262610969E+03  0.00000000000E+00 0. -1.
         11    1    5    5    0    0 -0.78442672900E+02  0.32549171875E+02  0.44265868768E+03  0.45073208816E+03  0.00000000000E+00 0. -1.
        -12    1    5    5    0    0  0.17461980645E+02 -0.89713400484E+01  0.66449051407E+02  0.69288398331E+02  0.00000000000E+00 0.  1.
          5    1    4    4  501    0  0.78565287339E+02  0.63035838377E+01  0.17243916227E+03  0.18964434246E+03  0.41800000000E+01 0. -1.
         -5    1    4    4    0  501  0.55176045792E+02 -0.11654846439E+03  0.15931176353E+03  0.20500158775E+03  0.41800000000E+01 0. -1.
</event>
<event>
11    1  0.8453735E-009  0.1260090E+03  0.7561462E-02  0.1124272E+00
         22   -1    0    0    0    0  0.00000000000E+00  0.00000000000E+00  0.59355358719E+03  0.59355358719E+03  0.00000000000E+00 0.  1.
         22   -1    0    0    0    0 -0.00000000000E+00 -0.00000000000E+00 -0.31190148356E+03  0.31190148356E+03  0.00000000000E+00 0.  1.
        -24    2    1    2    0    0 -0.11233152676E+02  0.14404970591E+02 -0.24769875653E+03  0.26076554392E+03  0.79437447179E+02 0.  0.
         25    2    1    2    0    0  0.47821220807E+01 -0.27310395959E+02  0.24874454985E+02  0.13052256616E+03  0.12509466555E+03 0.  0.
         24    2    1    2    0    0  0.64510305957E+01  0.12905425367E+02  0.50447640517E+03  0.51416696067E+03  0.98300835543E+02 0.  0.
        -13    1    5    5    0    0  0.37928439445E+02  0.17067529697E+02  0.44325154451E+03  0.44519860602E+03  0.00000000000E+00 0.  1.
         14    1    5    5    0    0 -0.31477408849E+02 -0.41621043299E+01  0.61224860660E+02  0.68968354650E+02  0.00000000000E+00 0. -1.
         13    1    3    3    0    0  0.32342056831E+02  0.18343461848E+02 -0.98513315065E+02  0.10529655492E+03  0.00000000000E+00 0. -1.
        -14    1    3    3    0    0 -0.43575209508E+02 -0.39384912569E+01 -0.14918544146E+03  0.15546898900E+03  0.00000000000E+00 0.  1.
          5    1    4    4  501    0 -0.44414765680E+02 -0.32434015162E+02  0.50391449113E+02  0.74708816706E+02  0.41800000000E+01 0. -1.
         -5    1    4    4    0  501  0.49196887761E+02  0.51236192034E+01 -0.25516994128E+02  0.55813749457E+02  0.41800000000E+01 0. -1.
</event>
<event>
11    1  0.8453735E-009  0.1851642E+03  0.7561462E-02  0.1065540E+00
         22   -1    0    0    0    0  0.00000000000E+00  0.00000000000E+00  0.26836177549E+03  0.26836177549E+03  0.00000000000E+00 0. -1.
         22   -1    0    0    0    0 -0.00000000000E+00 -0.00000000000E+00 -0.42565529904E+03  0.42565529904E+03  0.00000000000E+00 0.  1.
         24    2    1    2    0    0 -0.62108722734E+02  0.98359124935E+02 -0.19360313882E+03  0.23983165466E+03  0.80653805352E+02 0.  0.
         25    2    1    2    0    0  0.12115396422E+03 -0.16215134859E+03 -0.11386531839E+03  0.26378908226E+03  0.12509207126E+03 0.  0.
        -24    2    1    2    0    0 -0.59045241490E+02  0.63792223653E+02  0.15017493366E+03  0.19039633761E+03  0.78373888095E+02 0.  0.
        -11    1    3    3    0    0 -0.35859449960E+01  0.79295460696E+02 -0.12011689712E+03  0.14397464381E+03  0.00000000000E+00 0.  1.
         12    1    3    3    0    0 -0.58522777738E+02  0.19063664239E+02 -0.73486241706E+02  0.95857010847E+02  0.00000000000E+00 0. -1.
         13    1    5    5    0    0 -0.25501125771E+02  0.74085248192E+02  0.80218393040E+02  0.11213350078E+03  0.00000000000E+00 0. -1.
        -14    1    5    5    0    0 -0.33544115719E+02 -0.10293024539E+02  0.69956540618E+02  0.78262836831E+02  0.00000000000E+00 0.  1.
          5    1    4    4  501    0  0.26430464787E+02 -0.53457225640E+02  0.23852367695E+02  0.64363439052E+02  0.41800000000E+01 0. -1.
         -5    1    4    4    0  501  0.94723499437E+02 -0.10869412295E+03 -0.13771768608E+03  0.19942564321E+03  0.41800000000E+01 0. -1.
</event>
<event>
11    1  0.8453735E-009  0.1425478E+03  0.7561462E-02  0.1104746E+00
         22   -1    0    0    0    0  0.00000000000E+00  0.00000000000E+00  0.16846731610E+04  0.16846731610E+04  0.00000000000E+00 0.  1.
         22   -1    0    0    0    0 -0.00000000000E+00 -0.00000000000E+00 -0.94450945497E+02  0.94450945497E+02  0.00000000000E+00 0.  1.
        -24    2    1    2    0    0 -0.62423509131E+02  0.27573493883E+02 -0.50029357336E+02  0.11382127037E+03  0.76127215468E+02 0.  0.
         25    2    1    2    0    0  0.41876532909E+02 -0.76762822378E+02  0.56359154625E+03  0.58389111540E+03  0.12508888331E+03 0.  0.
         24    2    1    2    0    0  0.20546976222E+02  0.49189328496E+02  0.10766600266E+04  0.10814117207E+04  0.86097204464E+02 0.  0.
        -11    1    5    5    0    0 -0.33308522062E+02  0.23269253160E+02  0.36822950255E+03  0.37046441439E+03  0.00000000000E+00 0.  1.
         12    1    5    5    0    0  0.53855498284E+02  0.25920075335E+02  0.70843052402E+03  0.71094730633E+03  0.00000000000E+00 0. -1.
         13    1    3    3    0    0 -0.43812094192E+01  0.36148205004E+02 -0.40358873343E+02  0.54357394883E+02  0.00000000000E+00 0. -1.
        -14    1    3    3    0    0 -0.58042299712E+02 -0.85747111208E+01 -0.96704839927E+01  0.59463875482E+02  0.00000000000E+00 0.  1.
          5    1    4    4  501    0  0.17442140993E+02 -0.24686227820E+01  0.41949198118E+03  0.41988250387E+03  0.41800000000E+01 0. -1.
         -5    1    4    4    0  501  0.24434391916E+02 -0.74294199597E+02  0.14409956507E+03  0.16400861153E+03  0.41800000000E+01 0. -1.
</event>
<event>
11    1  0.8453735E-009  0.1838042E+03  0.7561462E-02  0.1066607E+00
         22   -1    0    0    0    0  0.00000000000E+00  0.00000000000E+00  0.17499232912E+04  0.17499232912E+04  0.00000000000E+00 0. -1.
         22   -1    0    0    0    0 -0.00000000000E+00 -0.00000000000E+00 -0.16573167687E+04  0.16573167687E+04  0.00000000000E+00 0. -1.
        -24    2    1    2    0    0  0.47550343019E+02  0.12170959650E+03 -0.14399779372E+04  0.14481262881E+04  0.80368062915E+02 0.  0.
         25    2    1    2    0    0 -0.12285892898E+03 -0.17124150910E+03 -0.13992282260E+03  0.28220778393E+03  0.12507943938E+03 0.  0.
         24    2    1    2    0    0  0.75308585960E+02  0.49531912606E+02  0.16725072824E+04  0.16769059879E+04  0.81291383656E+02 0.  0.
        -11    1    5    5    0    0 -0.37434104150E+01 -0.54776030736E+01  0.61167602369E+03  0.61171200349E+03  0.00000000000E+00 0.  1.
         12    1    5    5    0    0  0.79051996375E+02  0.55009515679E+02  0.10608312587E+04  0.10651939844E+04  0.00000000000E+00 0. -1.
         13    1    3    3    0    0  0.50039734881E+02  0.12097518386E+03 -0.14395561698E+04  0.14454967783E+04  0.00000000000E+00 0. -1.
        -14    1    3    3    0    0 -0.24893918615E+01  0.73441263939E+00 -0.42176743305E+00  0.26295097513E+01  0.00000000000E+00 0.  1.
          5    1    4    4  501    0 -0.82027024732E+02 -0.11404826658E+03 -0.15602521847E+03  0.20999233580E+03  0.41800000000E+01 0. -1.
         -5    1    4    4    0  501 -0.40831904247E+02 -0.57193242528E+02  0.16102395878E+02  0.72215448128E+02  0.41800000000E+01 0. -1.
</event>
<event>
11    1  0.8453735E-009  0.1628336E+03  0.7561462E-02  0.1084442E+00
         22   -1    0    0    0    0  0.00000000000E+00  0.00000000000E+00  0.82261347479E+03  0.82261347479E+03  0.00000000000E+00 0. -1.
         22   -1    0    0    0    0 -0.00000000000E+00 -0.00000000000E+00 -0.33255053602E+03  0.33255053602E+03  0.00000000000E+00 0. -1.
        -24    2    1    2    0    0  0.95482199670E+02  0.86540604729E+02 -0.21806416491E+03  0.26585782267E+03  0.80760603876E+02 0.  0.
         25    2    1    2    0    0 -0.41860803913E+02 -0.28139420055E+02 -0.33656019440E+02  0.13900885308E+03  0.12508628912E+03 0.  0.
         24    2    1    2    0    0 -0.53621395757E+02 -0.58401184674E+02  0.74178312312E+03  0.75029733505E+03  0.80112026485E+02 0.  0.
        -13    1    5    5    0    0  0.98961393696E+01 -0.39349637334E+02  0.17469232300E+03  0.17934250820E+03  0.00000000000E+00 0.  1.
         14    1    5    5    0    0 -0.63517535126E+02 -0.19051547340E+02  0.56709080012E+03  0.57095482685E+03  0.00000000000E+00 0. -1.
         11    1    3    3    0    0  0.74265593671E+02  0.97937197366E+02 -0.15160560102E+03  0.19517000613E+03  0.00000000000E+00 0. -1.
        -12    1    3    3    0    0  0.21216605999E+02 -0.11396592637E+02 -0.66458563886E+02  0.70687816543E+02  0.00000000000E+00 0.  1.
          5    1    4    4  501    0  0.17008967298E+02 -0.47508674665E+02 -0.53634545790E+02  0.73759853844E+02  0.41800000000E+01 0. -1.
         -5    1    4    4    0  501 -0.58869771211E+02  0.19369254609E+02  0.19978526350E+02  0.65248999239E+02  0.41800000000E+01 0. -1.
</event>
<event>
11    1  0.8453735E-009  0.1218212E+04  0.7561462E-02  0.8495317E-01
         22   -1    0    0    0    0  0.00000000000E+00  0.00000000000E+00  0.13615516918E+04  0.13615516918E+04  0.00000000000E+00 0. -1.
         22   -1    0    0    0    0 -0.00000000000E+00 -0.00000000000E+00 -0.27249044160E+03  0.27249044160E+03  0.00000000000E+00 0. -1.
        -24    2    1    2    0    0 -0.32832093319E+03  0.26315848122E+03  0.24305713804E+03  0.49236021746E+03  0.79339712495E+02 0.  0.
         25    2    1    2    0    0  0.39816901522E+03 -0.41001900044E+03  0.65390252097E+03  0.87743483898E+03  0.12509693968E+03 0.  0.
         24    2    1    2    0    0 -0.69848082035E+02  0.14686051922E+03  0.19210159117E+03  0.26424707693E+03  0.80478131606E+02 0.  0.
        -13    1    5    5    0    0 -0.48041362446E+02  0.19453467290E+02  0.47642069502E+02  0.70400118479E+02  0.00000000000E+00 0.  1.
         14    1    5    5    0    0 -0.21806719589E+02  0.12740705193E+03  0.14445952167E+03  0.19384695845E+03  0.00000000000E+00 0. -1.
         13    1    3    3    0    0 -0.32067951325E+03  0.26529406092E+03  0.22610964639E+03  0.47364740173E+03  0.00000000000E+00 0. -1.
        -14    1    3    3    0    0 -0.76414199381E+01 -0.21355796958E+01  0.16947491653E+02  0.18712815732E+02  0.00000000000E+00 0.  1.
          5    1    4    4  501    0  0.24102580467E+03 -0.28964101161E+03  0.34733594269E+03  0.51248910584E+03  0.41800000000E+01 0. -1.
         -5    1    4    4    0  501  0.15714321056E+03 -0.12037798884E+03  0.30656657827E+03  0.36494573314E+03  0.41800000000E+01 0. -1.
</event>
<event>
11    1  0.8453735E-009  0.1020430E+04  0.7561462E-02  0.8659822E-01
         22   -1    0    0    0    0  0.00000000000E+00  0.00000000000E+00  0.96962558829E+03  0.96962558829E+03  0.00000000000E+00 0. -1.
         22   -1    0    0    0    0 -0.00000000000E+00 -0.00000000000E+00 -0.26847399822E+03  0.26847399822E+03  0.00000000000E+00 0. -1.
        -24    2    1    2    0    0  0.93293176023E+02 -0.36876645594E+01  0.66645556574E+02  0.14007832165E+03  0.80393348119E+02 0.  0.
         25    2    1    2    0    0 -0.45994012941E+03 -0.19335812848E+02  0.18449189126E+03  0.51147196013E+03  0.12509001462E+03 0.  0.
         24    2    1    2    0    0  0.36664695339E+03  0.23023477407E+02  0.45001414224E+03  0.58654930474E+03  0.81038816169E+02 0.  0.
        -11    1    5    5    0    0  0.27629270544E+03  0.51468883390E+02  0.34848784348E+03  0.44769463040E+03  0.00000000000E+00 0.  1.
         12    1    5    5    0    0  0.90354247954E+02 -0.28445405983E+02  0.10152629876E+03  0.13885467434E+03  0.00000000000E+00 0. -1.
         13    1    3    3    0    0  0.75410034524E+02  0.33038850088E+02  0.43101084585E+02  0.92929771411E+02  0.00000000000E+00 0. -1.
        -14    1    3    3    0    0  0.17883141499E+02 -0.36726514648E+02  0.23544471990E+02  0.47148550236E+02  0.00000000000E+00 0.  1.
          5    1    4    4  501    0 -0.31085845813E+03 -0.65179111829E+02  0.94743253404E+02  0.33147406245E+03  0.41800000000E+01 0.  1.
         -5    1    4    4    0  501 -0.14908167128E+03  0.45843298982E+02  0.89748637854E+02  0.17999789768E+03  0.41800000000E+01 0.  1.
</event>
<event>
11    1  0.8453735E-009  0.1725136E+03  0.7561462E-02  0.1075865E+00
         22   -1    0    0    0    0  0.00000000000E+00  0.00000000000E+00  0.18119781739E+04  0.18119781739E+04  0.00000000000E+00 0.  1.
         22   -1    0    0    0    0 -0.00000000000E+00 -0.00000000000E+00 -0.61377604286E+02  0.61377604286E+02  0.00000000000E+00 0.  1.
        -24    2    1    2    0    0 -0.63348071031E+02 -0.57465714317E+02  0.51113833565E+02  0.12908640665E+03  0.82069421685E+02 0.  0.
         25    2    1    2    0    0 -0.26117257683E+02  0.13668038927E+03  0.45375297436E+03  0.49082025223E+03  0.12509643597E+03 0.  0.
         24    2    1    2    0    0  0.89465328715E+02 -0.79214674948E+02  0.12457337616E+04  0.12534491193E+04  0.70732453047E+02 0.  0.
        -13    1    5    5    0    0  0.26609314499E+02 -0.68570796536E+02  0.57300486311E+03  0.57770631198E+03  0.00000000000E+00 0.  1.
         14    1    5    5    0    0  0.62856014216E+02 -0.10643878413E+02  0.67272889853E+03  0.67574280728E+03  0.00000000000E+00 0. -1.
         13    1    3    3    0    0 -0.35212438100E+02 -0.76546246138E+02  0.40406211769E+02  0.93444665682E+02  0.00000000000E+00 0. -1.
        -14    1    3    3    0    0 -0.28135632931E+02  0.19080531821E+02  0.10707621796E+02  0.35641740972E+02  0.00000000000E+00 0.  1.
          5    1    4    4  501    0 -0.15693128129E+02  0.10572728014E+03  0.14431487619E+03  0.17963515226E+03  0.41800000000E+01 0. -1.
         -5    1    4    4    0  501 -0.10424129555E+02  0.30953109123E+02  0.30943809817E+03  0.31118509997E+03  0.41800000000E+01 0. -1.
</event>
<event>
11    1  0.8453735E-009  0.1628114E+03  0.7561462E-02  0.1084462E+00
         22   -1    0    0    0    0  0.00000000000E+00  0.00000000000E+00  0.73088898931E+03  0.73088898931E+03  0.00000000000E+00 0.  1.
         22   -1    0    0    0    0 -0.00000000000E+00 -0.00000000000E+00 -0.19872280984E+04  0.19872280984E+04  0.00000000000E+00 0.  1.
         24    2    1    2    0    0 -0.86299264406E+02  0.57761458609E+02 -0.19368290139E+04  0.19411130271E+04  0.76349235925E+02 0.  0.
         25    2    1    2    0    0  0.11531409683E+03 -0.74172214795E+02  0.14730469118E+03  0.23694913230E+03  0.12508941153E+03 0.  0.
        -24    2    1    2    0    0 -0.29014832428E+02  0.16410756186E+02  0.53318521366E+03  0.54005492826E+03  0.79130778168E+02 0.  0.
        -13    1    3    3    0    0 -0.62462003588E+01  0.47246417000E+02 -0.80283407875E+03  0.80424734811E+03  0.00000000000E+00 0.  1.
         14    1    3    3    0    0 -0.80053064048E+02  0.10515041609E+02 -0.11339949352E+04  0.11368656790E+04  0.00000000000E+00 0. -1.
         13    1    5    5    0    0 -0.61395263908E+01  0.11206862077E+02  0.96966570007E+01  0.16040969388E+02  0.00000000000E+00 0. -1.
        -14    1    5    5    0    0 -0.22875306037E+02  0.52038941095E+01  0.52348855666E+03  0.52401395887E+03  0.00000000000E+00 0.  1.
          5    1    4    4  501    0  0.49021501193E+02 -0.10213483116E+03  0.94818395291E+02  0.14779252959E+03  0.41800000000E+01 0. -1.
         -5    1    4    4    0  501  0.66292595641E+02  0.27962616369E+02  0.52486295891E+02  0.89156602714E+02  0.41800000000E+01 0. -1.
</event>
<event>
11    1  0.8453735E-009  0.1517014E+03  0.7561462E-02  0.1095153E+00
         22   -1    0    0    0    0  0.00000000000E+00  0.00000000000E+00  0.53435932644E+03  0.53435932644E+03  0.00000000000E+00 0.  1.
         22   -1    0    0    0    0 -0.00000000000E+00 -0.00000000000E+00 -0.79071301456E+03  0.79071301456E+03  0.00000000000E+00 0.  1.
         24    2    1    2    0    0 -0.19535166134E+02 -0.64460500374E+02 -0.71910656184E+03  0.72609525125E+03  0.74587450615E+02 0.  0.
         25    2    1    2    0    0  0.59047773143E+02  0.13159455772E+03  0.92256645556E+02  0.21204644969E+03  0.12509452842E+03 0.  0.
        -24    2    1    2    0    0 -0.39512607009E+02 -0.67134057350E+02  0.37049622816E+03  0.38693064006E+03  0.79872632156E+02 0.  0.
        -11    1    3    3    0    0 -0.18588178924E+01 -0.76969062846E+02 -0.61180925684E+03  0.61663462326E+03  0.00000000000E+00 0.  1.
         12    1    3    3    0    0 -0.17676348242E+02  0.12508562472E+02 -0.10729730499E+03  0.10946062799E+03  0.00000000000E+00 0. -1.
         11    1    5    5    0    0  0.23958790195E+01 -0.56817132821E+01 -0.24530130045E+01  0.66362169115E+01  0.00000000000E+00 0. -1.
        -12    1    5    5    0    0 -0.41908486028E+02 -0.61452344068E+02  0.37294924116E+03  0.38029442315E+03  0.00000000000E+00 0.  1.
          5    1    4    4  501    0  0.80823715601E+02  0.50603006962E+02  0.84914666899E+02  0.12775410119E+03  0.41800000000E+01 0.  1.
         -5    1    4    4    0  501 -0.21775942458E+02  0.80991550762E+02  0.73419786575E+01  0.84292348498E+02  0.41800000000E+01 0.  1.
</event>
<event>
11    1  0.8453735E-009  0.2214961E+03  0.7561462E-02  0.1040284E+00
         22   -1    0    0    0    0  0.00000000000E+00  0.00000000000E+00  0.33205349960E+03  0.33205349960E+03  0.00000000000E+00 0. -1.
         22   -1    0    0    0    0 -0.00000000000E+00 -0.00000000000E+00 -0.85204750350E+03  0.85204750350E+03  0.00000000000E+00 0. -1.
        -24    2    1    2    0    0 -0.18679763236E+03 -0.72948721806E+02 -0.44025152023E+03  0.49091203253E+03  0.83416731811E+02 0.  0.
         25    2    1    2    0    0  0.77321879656E+02  0.17595830983E+03 -0.32289890238E+03  0.39604547474E+03  0.12509323337E+03 0.  0.
         24    2    1    2    0    0  0.10947575271E+03 -0.10300958802E+03  0.24315641871E+03  0.29714349582E+03  0.81075874924E+02 0.  0.
        -11    1    5    5    0    0  0.41680286858E+02 -0.80718886937E+02  0.18094084445E+03  0.20246573590E+03  0.00000000000E+00 0.  1.
         12    1    5    5    0    0  0.67795465848E+02 -0.22290701085E+02  0.62215574258E+02  0.94677759926E+02  0.00000000000E+00 0. -1.
         11    1    3    3    0    0 -0.10639101476E+03 -0.42046109336E+02 -0.15310451955E+03  0.19112278054E+03  0.00000000000E+00 0. -1.
        -12    1    3    3    0    0 -0.80406617600E+02 -0.30902612469E+02 -0.28714700068E+03  0.29978925199E+03  0.00000000000E+00 0.  1.
          5    1    4    4  501    0 -0.15694763341E+02  0.11914420485E+03 -0.16937769685E+03  0.20772083125E+03  0.41800000000E+01 0. -1.
         -5    1    4    4    0  501  0.93016642997E+02  0.56814104978E+02 -0.15352120553E+03  0.18832464349E+03  0.41800000000E+01 0. -1.
</event>
<event>
11    1  0.8453735E-009  0.1519581E+03  0.7561462E-02  0.1094895E+00
         22   -1    0    0    0    0  0.00000000000E+00  0.00000000000E+00  0.28441076710E+04  0.28441076710E+04  0.00000000000E+00 0.  1.
         22   -1    0    0    0    0 -0.00000000000E+00 -0.00000000000E+00 -0.57820922627E+03  0.57820922627E+03  0.00000000000E+00 0. -1.
        -24    2    1    2    0    0 -0.38322609771E+02 -0.12548624969E+02 -0.54820596969E+03  0.55548327273E+03  0.80036183551E+02 0.  0.
         25    2    1    2    0    0  0.11668083900E+03  0.43511721728E+02  0.28604667480E+03  0.33612093664E+03  0.12508755241E+03 0.  0.
         24    2    1    2    0    0 -0.78358229229E+02 -0.30963096759E+02  0.25280577396E+04  0.25307126879E+04  0.79574168617E+02 0.  0.
        -11    1    5    5    0    0 -0.78358085248E+02 -0.97965903275E+01  0.23608806286E+04  0.23622009451E+04  0.00000000000E+00 0.  1.
         12    1    5    5    0    0 -0.14398109602E-03 -0.21166506431E+02  0.16717711105E+03  0.16851174278E+03  0.00000000000E+00 0. -1.
         13    1    3    3    0    0  0.23973245658E+02 -0.74556289113E+01 -0.21546197539E+03  0.21691972190E+03  0.00000000000E+00 0. -1.
        -14    1    3    3    0    0 -0.62295855429E+02 -0.50929960576E+01 -0.33274399430E+03  0.33856355083E+03  0.00000000000E+00 0.  1.
          5    1    4    4  501    0  0.77727590577E+02  0.70319633669E+02  0.10297891659E+03  0.14699849958E+03  0.41800000000E+01 0.  1.
         -5    1    4    4    0  501  0.38953248423E+02 -0.26807911942E+02  0.18306775821E+03  0.18912243707E+03  0.41800000000E+01 0.  1.
</event>
<event>
11    1  0.8453735E-009  0.1286466E+03  0.7561462E-02  0.1120943E+00
         22   -1    0    0    0    0  0.00000000000E+00  0.00000000000E+00  0.50520350403E+03  0.50520350403E+03  0.00000000000E+00 0.  1.
         22   -1    0    0    0    0 -0.00000000000E+00 -0.00000000000E+00 -0.43812224834E+03  0.43812224834E+03  0.00000000000E+00 0. -1.
        -24    2    1    2    0    0  0.18135621291E+02 -0.25221127502E+02 -0.30142091823E+03  0.31338286400E+03  0.79932743409E+02 0.  0.
         25    2    1    2    0    0 -0.22620890534E+01  0.27693730315E+02 -0.94883462050E+02  0.15944927519E+03  0.12509652371E+03 0.  0.
         24    2    1    2    0    0 -0.15873532238E+02 -0.24726028133E+01  0.46338563597E+03  0.47049361317E+03  0.79874336440E+02 0.  0.
        -11    1    5    5    0    0 -0.26679195725E+02  0.27476499787E+02  0.36683563569E+03  0.36882939300E+03  0.00000000000E+00 0.  1.
         12    1    5    5    0    0  0.10805663488E+02 -0.29949102601E+02  0.96550000275E+02  0.10166422017E+03  0.00000000000E+00 0. -1.
         13    1    3    3    0    0  0.28519549938E+02  0.81640653586E+01 -0.24649279317E+03  0.24827145179E+03  0.00000000000E+00 0. -1.
        -14    1    3    3    0    0 -0.10383928646E+02 -0.33385192860E+02 -0.54928125062E+02  0.65111412204E+02  0.00000000000E+00 0.  1.
          5    1    4    4  501    0  0.15403741149E+02  0.73259347012E+02 -0.76367911224E+02  0.10702213524E+03  0.41800000000E+01 0.  1.
         -5    1    4    4    0  501 -0.17665830203E+02 -0.45565616697E+02 -0.18515550826E+02  0.52427139958E+02  0.41800000000E+01 0.  1.
</event>
<event>
11    1  0.8453735E-009  0.1266332E+03  0.7561462E-02  0.1123476E+00
         22   -1    0    0    0    0  0.00000000000E+00  0.00000000000E+00  0.98803936007E+02  0.98803936007E+02  0.00000000000E+00 0. -1.
         22   -1    0    0    0    0 -0.00000000000E+00 -0.00000000000E+00 -0.54707409151E+03  0.54707409151E+03  0.00000000000E+00 0. -1.
        -24    2    1    2    0    0 -0.12443756581E+02  0.96252320078E+01 -0.30700642148E+03  0.31923533894E+03  0.86085809692E+02 0.  0.
         25    2    1    2    0    0  0.37969319005E+02  0.56186008449E+00 -0.18774873036E+03  0.22877802812E+03  0.12509122881E+03 0.  0.
         24    2    1    2    0    0 -0.25525562424E+02 -0.10187092092E+02  0.46484996337E+02  0.97864660459E+02  0.81616822408E+02 0.  0.
        -11    1    5    5    0    0  0.13956149519E+02 -0.33692008225E+02  0.66857021259E+01  0.37075924002E+02  0.00000000000E+00 0.  1.
         12    1    5    5    0    0 -0.39481711943E+02  0.23504916133E+02  0.39799294211E+02  0.60788736457E+02  0.00000000000E+00 0. -1.
         13    1    3    3    0    0  0.19746354045E+02 -0.22530364958E+02 -0.20955281057E+03  0.21168352855E+03  0.00000000000E+00 0. -1.
        -14    1    3    3    0    0 -0.32190110626E+02  0.32155596966E+02 -0.97453610910E+02  0.10755181039E+03  0.00000000000E+00 0.  1.
          5    1    4    4  501    0  0.67564290411E+02  0.19803264981E+02 -0.17867433709E+03  0.19209136831E+03  0.41800000000E+01 0. -1.
         -5    1    4    4    0  501 -0.29594971406E+02 -0.19241404897E+02 -0.90743932695E+01  0.36686659812E+02  0.41800000000E+01 0. -1.
</event>
<event>
11    1  0.8453735E-009  0.1440758E+03  0.7561462E-02  0.1103091E+00
         22   -1    0    0    0    0  0.00000000000E+00  0.00000000000E+00  0.18418956807E+03  0.18418956807E+03  0.00000000000E+00 0.  1.
         22   -1    0    0    0    0 -0.00000000000E+00 -0.00000000000E+00 -0.84167109835E+03  0.84167109835E+03  0.00000000000E+00 0. -1.
        -24    2    1    2    0    0 -0.11959487680E+02  0.71094140459E+02 -0.72619100177E+03  0.73410021582E+03  0.79701629003E+02 0.  0.
         25    2    1    2    0    0  0.50224984644E+02  0.42842999042E+01 -0.31562919452E+02  0.13850630032E+03  0.12508746155E+03 0.  0.
         24    2    1    2    0    0 -0.38265496964E+02 -0.75378440363E+02  0.10027239094E+03  0.15325415029E+03  0.79285084761E+02 0.  0.
        -13    1    5    5    0    0 -0.62085748641E+02 -0.60420078178E+02  0.84441355600E+02  0.12097755398E+03  0.00000000000E+00 0.  1.
         14    1    5    5    0    0  0.23820251677E+02 -0.14958362185E+02  0.15831035341E+02  0.32276596307E+02  0.00000000000E+00 0. -1.
         11    1    3    3    0    0  0.98598290124E+01  0.78725126950E+02 -0.63862838693E+03  0.64353793861E+03  0.00000000000E+00 0. -1.
        -12    1    3    3    0    0 -0.21819316692E+02 -0.76309864911E+01 -0.87562614842E+02  0.90562277211E+02  0.00000000000E+00 0.  1.
          5    1    4    4  501    0  0.82492798463E+02 -0.15470011015E+02 -0.48297775163E+02  0.96925386380E+02  0.41800000000E+01 0.  1.
         -5    1    4    4    0  501 -0.32267813819E+02  0.19754310920E+02  0.16734855711E+02  0.41580913942E+02  0.41800000000E+01 0.  1.
</event>
<event>
11    1  0.8453735E-009  0.1280975E+03  0.7561462E-02  0.1121629E+00
         22   -1    0    0    0    0  0.00000000000E+00  0.00000000000E+00  0.16434505601E+04  0.16434505601E+04  0.00000000000E+00 0.  1.
         22   -1    0    0    0    0 -0.00000000000E+00 -0.00000000000E+00 -0.10349631259E+03  0.10349631259E+03  0.00000000000E+00 0. -1.
         24    2    1    2    0    0 -0.26222165380E+01 -0.30332804847E+02 -0.68015204529E+01  0.89479150425E+02  0.83864787669E+02 0.  0.
         25    2    1    2    0    0  0.12216386662E+02  0.21318575583E+02  0.20581758029E+02  0.12908946303E+03  0.12504702689E+03 0.  0.
        -24    2    1    2    0    0 -0.95941701243E+01  0.90142292639E+01  0.15261740100E+04  0.15283782593E+04  0.80991914867E+02 0.  0.
        -11    1    3    3    0    0 -0.37225523361E+01  0.11679449401E+02  0.30760442083E+02  0.33113014532E+02  0.00000000000E+00 0.  1.
         12    1    3    3    0    0  0.11003357981E+01 -0.42012254249E+02 -0.37561962536E+02  0.56366135893E+02  0.00000000000E+00 0. -1.
         13    1    5    5    0    0  0.71247678100E+01 -0.63218475206E+01  0.21294555853E+02  0.23327798469E+02  0.00000000000E+00 0. -1.
        -14    1    5    5    0    0 -0.16718937934E+02  0.15336076785E+02  0.15048794541E+04  0.15050504608E+04  0.00000000000E+00 0.  1.
          5    1    4    4  501    0  0.28560509509E+02  0.63160537787E+02  0.39812786319E+02  0.80046777521E+02  0.41800000000E+01 0. -1.
         -5    1    4    4    0  501 -0.16344122847E+02 -0.41841962203E+02 -0.19231028290E+02  0.49042685507E+02  0.41800000000E+01 0. -1.
</event>
<event>
11    1  0.8453735E-009  0.1755137E+03  0.7561462E-02  0.1073331E+00
         22   -1    0    0    0    0  0.00000000000E+00  0.00000000000E+00  0.26922626005E+03  0.26922626005E+03  0.00000000000E+00 0.  1.
         22   -1    0    0    0    0 -0.00000000000E+00 -0.00000000000E+00 -0.16166874545E+04  0.16166874545E+04  0.00000000000E+00 0. -1.
        -24    2    1    2    0    0  0.91181510513E+02  0.83073770968E+02 -0.14534996056E+04  0.14608993320E+04  0.79689618818E+02 0.  0.
         25    2    1    2    0    0 -0.10078055593E+03 -0.67304259932E+02 -0.10124239907E+03  0.20145603233E+03  0.12509166932E+03 0.  0.
         24    2    1    2    0    0  0.95990454197E+01 -0.15769511036E+02  0.20728081029E+03  0.22355835020E+03  0.81683428434E+02 0.  0.
        -13    1    5    5    0    0 -0.21773553130E+02  0.68310609798E+01  0.16376061528E+03  0.16534294701E+03  0.00000000000E+00 0.  1.
         14    1    5    5    0    0  0.31372598550E+02 -0.22600572015E+02  0.43520195011E+02  0.58215403194E+02  0.00000000000E+00 0. -1.
         11    1    3    3    0    0  0.93424719801E+02  0.50803865841E+02 -0.12799937061E+04  0.12844037911E+04  0.00000000000E+00 0. -1.
        -12    1    3    3    0    0 -0.22432092883E+01  0.32269905127E+02 -0.17350589957E+03  0.17649554088E+03  0.00000000000E+00 0.  1.
          5    1    4    4  501    0 -0.27151279819E+02 -0.69376872580E+02  0.19019343470E+01  0.74642027029E+02  0.41800000000E+01 0.  1.
         -5    1    4    4    0  501 -0.73629276114E+02  0.20726126474E+01 -0.10314433341E+03  0.12681400530E+03  0.41800000000E+01 0.  1.
</event>
<event>
11    1  0.8453735E-009  0.1462441E+03  0.7561462E-02  0.1100780E+00
         22   -1    0    0    0    0  0.00000000000E+00  0.00000000000E+00  0.12313783133E+04  0.12313783133E+04  0.00000000000E+00 0. -1.
         22   -1    0    0    0    0 -0.00000000000E+00 -0.00000000000E+00 -0.87753188522E+03  0.87753188522E+03  0.00000000000E+00 0. -1.
        -24    2    1    2    0    0 -0.70424266075E+02  0.21963884852E+02 -0.75047767437E+03  0.75838986552E+03  0.80600613535E+02 0.  0.
         25    2    1    2    0    0  0.84010639382E+02 -0.86729994316E+02 -0.58163624086E+02  0.18332982637E+03  0.12508772372E+03 0.  0.
         24    2    1    2    0    0 -0.13586373307E+02  0.64766109464E+02  0.11624877266E+04  0.11671905067E+04  0.81097015722E+02 0.  0.
        -11    1    5    5    0    0 -0.36103930756E+02  0.12823952824E+02  0.24698879401E+03  0.24994281736E+03  0.00000000000E+00 0.  1.
         12    1    5    5    0    0  0.22517557449E+02  0.51942156640E+02  0.91549893257E+03  0.91724768932E+03  0.00000000000E+00 0. -1.
         11    1    3    3    0    0 -0.10895750665E+02 -0.23791361526E+02 -0.34704456010E+03  0.34802970126E+03  0.00000000000E+00 0. -1.
        -12    1    3    3    0    0 -0.59528515410E+02  0.45755246378E+02 -0.40343311427E+03  0.41036016426E+03  0.00000000000E+00 0.  1.
          5    1    4    4  501    0  0.11065030388E+03 -0.55598177671E+02 -0.67501823716E+02  0.14109789408E+03  0.41800000000E+01 0. -1.
         -5    1    4    4    0  501 -0.26639664500E+02 -0.31131816645E+02  0.93381996303E+01  0.42231932286E+02  0.41800000000E+01 0. -1.
</event>
<event>
11    1  0.8453735E-009  0.1611943E+03  0.7561462E-02  0.1085959E+00
         22   -1    0    0    0    0  0.00000000000E+00  0.00000000000E+00  0.50838072395E+03  0.50838072395E+03  0.00000000000E+00 0.  1.
         22   -1    0    0    0    0 -0.00000000000E+00 -0.00000000000E+00 -0.16568159678E+03  0.16568159678E+03  0.00000000000E+00 0. -1.
         24    2    1    2    0    0  0.42543624808E+02  0.82919934739E+01 -0.92008116778E+02  0.14040161370E+03  0.96790507849E+02 0.  0.
         25    2    1    2    0    0 -0.12928287009E+03  0.16713593101E+02  0.19765884420E+03  0.26778399767E+03  0.12508335631E+03 0.  0.
        -24    2    1    2    0    0  0.86739245279E+02 -0.25005586574E+02  0.23704839975E+03  0.26587670936E+03  0.79683779549E+02 0.  0.
        -13    1    3    3    0    0  0.25401071012E+01  0.54772383293E+01  0.20284018665E+02  0.21163499167E+02  0.00000000000E+00 0.  1.
         14    1    3    3    0    0  0.40003517707E+02  0.28147551446E+01 -0.11229213544E+03  0.11923811454E+03  0.00000000000E+00 0. -1.
         13    1    5    5    0    0 -0.97394944020E+01 -0.20531687225E+02  0.32312546251E+02  0.39503272988E+02  0.00000000000E+00 0. -1.
        -14    1    5    5    0    0  0.96478739681E+02 -0.44738993493E+01  0.20473585350E+03  0.22637343637E+03  0.00000000000E+00 0.  1.
          5    1    4    4  501    0 -0.95937418500E+02  0.17398939795E+02  0.38169014687E+02  0.10479054087E+03  0.41800000000E+01 0.  1.
         -5    1    4    4    0  501 -0.33345451588E+02 -0.68534669464E+00  0.15948982951E+03  0.16299345680E+03  0.41800000000E+01 0.  1.
</event>
<event>
11    1  0.8453735E-009  0.1753452E+03  0.7561462E-02  0.1073471E+00
         22   -1    0    0    0    0  0.00000000000E+00  0.00000000000E+00  0.38569802097E+03  0.38569802097E+03  0.00000000000E+00 0. -1.
         22   -1    0    0    0    0 -0.00000000000E+00 -0.00000000000E+00 -0.98161332198E+03  0.98161332198E+03  0.00000000000E+00 0.  1.
         24    2    1    2    0    0 -0.53457188964E+02 -0.22805256195E+02 -0.87881210010E+03  0.88418985671E+03  0.78123265800E+02 0.  0.
         25    2    1    2    0    0 -0.36496873715E+02  0.11220661255E+03  0.12856928089E+02  0.17243724838E+03  0.12508780251E+03 0.  0.
        -24    2    1    2    0    0  0.89954062679E+02 -0.89401356357E+02  0.27003987101E+03  0.31068423787E+03  0.86711174681E+02 0.  0.
        -11    1    3    3    0    0 -0.13167077906E+02  0.97231678026E+01 -0.62168536209E+03  0.62190079705E+03  0.00000000000E+00 0.  1.
         12    1    3    3    0    0 -0.40290111058E+02 -0.32528423997E+02 -0.25712673801E+03  0.26228905966E+03  0.00000000000E+00 0. -1.
         13    1    5    5    0    0  0.80283136460E+02 -0.10627252959E+03  0.24621615923E+03  0.27993147307E+03  0.00000000000E+00 0. -1.
        -14    1    5    5    0    0  0.96709262184E+01  0.16871173234E+02  0.23823711774E+02  0.30752764801E+02  0.00000000000E+00 0.  1.
          5    1    4    4  501    0 -0.80245363712E+02  0.78186423631E+02  0.26511893757E+02  0.11520758720E+03  0.41800000000E+01 0. -1.
         -5    1    4    4    0  501  0.43748489997E+02  0.34020188921E+02 -0.13654965668E+02  0.57229661178E+02  0.41800000000E+01 0. -1.
</event>
<event>
11    1  0.8453735E-009  0.1339459E+03  0.7561462E-02  0.1114514E+00
         22   -1    0    0    0    0  0.00000000000E+00  0.00000000000E+00  0.10652725883E+04  0.10652725883E+04  0.00000000000E+00 0.  1.
         22   -1    0    0    0    0 -0.00000000000E+00 -0.00000000000E+00 -0.64437662674E+02  0.64437662674E+02  0.00000000000E+00 0.  1.
         24    2    1    2    0    0 -0.63279366048E+00  0.30745781898E+02  0.21870273622E+02  0.91946657769E+02  0.83846141678E+02 0.  0.
         25    2    1    2    0    0  0.24418753397E+01 -0.75813919053E+02  0.17350916781E+03  0.22694834505E+03  0.12508559841E+03 0.  0.
        -24    2    1    2    0    0 -0.18090816792E+01  0.45068137155E+02  0.80545548422E+03  0.81081524818E+03  0.81415108312E+02 0.  0.
        -11    1    3    3    0    0 -0.26755919645E+02  0.45508680432E+02  0.30182787978E+02  0.60810524753E+02  0.00000000000E+00 0.  1.
         12    1    3    3    0    0  0.26123125984E+02 -0.14762898533E+02 -0.83125143551E+01  0.31136133016E+02  0.00000000000E+00 0. -1.
         13    1    5    5    0    0  0.34623857134E+02  0.36231510799E+02  0.31848314326E+03  0.32240199502E+03  0.00000000000E+00 0. -1.
        -14    1    5    5    0    0 -0.36432938813E+02  0.88366263562E+01  0.48697234096E+03  0.48841325316E+03  0.00000000000E+00 0.  1.
          5    1    4    4  501    0  0.21093357840E+02  0.25811171044E+02  0.82943241406E+02  0.89488546701E+02  0.41800000000E+01 0.  1.
         -5    1    4    4    0  501 -0.18651482500E+02 -0.10162509010E+03  0.90565926407E+02  0.13745979835E+03  0.41800000000E+01 0.  1.
</event>
<event>
11    1  0.8453735E-009  0.1383008E+03  0.7561462E-02  0.1109471E+00
         22   -1    0    0    0    0  0.00000000000E+00  0.00000000000E+00  0.22026842145E+03  0.22026842145E+03  0.00000000000E+00 0.  1.
         22   -1    0    0    0    0 -0.00000000000E+00 -0.00000000000E+00 -0.46831509764E+03  0.46831509764E+03  0.00000000000E+00 0. -1.
        -24    2    1    2    0    0 -0.49431985216E+02  0.40195191607E+02 -0.29693065942E+03  0.31404310678E+03  0.79975507628E+02 0.  0.
         25    2    1    2    0    0  0.39423119102E+02  0.22194378976E+02 -0.11810318133E+03  0.17788479058E+03  0.12509142457E+03 0.  0.
         24    2    1    2    0    0  0.10008866114E+02 -0.62389570583E+02  0.16698716457E+03  0.19665562173E+03  0.82438367938E+02 0.  0.
        -13    1    5    5    0    0  0.32032249886E+02 -0.72737240743E+02  0.13056800540E+03  0.15285540637E+03  0.00000000000E+00 0.  1.
         14    1    5    5    0    0 -0.22023383772E+02  0.10347670160E+02  0.36419159170E+02  0.43800215355E+02  0.00000000000E+00 0. -1.
         11    1    3    3    0    0 -0.12298962844E+02  0.13721529075E+02 -0.24177385188E+03  0.24247503026E+03  0.00000000000E+00 0. -1.
        -12    1    3    3    0    0 -0.37133022372E+02  0.26473662532E+02 -0.55156807541E+02  0.71568076518E+02  0.00000000000E+00 0.  1.
          5    1    4    4  501    0 -0.25353632985E+02 -0.25723780723E+02 -0.81590104530E+02  0.89324896627E+02  0.41800000000E+01 0.  1.
         -5    1    4    4    0  501  0.64776752086E+02  0.47918159699E+02 -0.36513076803E+02  0.88559893956E+02  0.41800000000E+01 0.  1.
</event>
<event>
11    1  0.8453735E-009  0.1856362E+03  0.7561462E-02  0.1065173E+00
         22   -1    0    0    0    0  0.00000000000E+00  0.00000000000E+00  0.86676724826E+03  0.86676724826E+03  0.00000000000E+00 0.  1.
         22   -1    0    0    0    0 -0.00000000000E+00 -0.00000000000E+00 -0.17988700579E+04  0.17988700579E+04  0.00000000000E+00 0.  1.
         24    2    1    2    0    0 -0.54549465960E+01  0.19170892085E+02 -0.17478804601E+04  0.17498158492E+04  0.79825583044E+02 0.  0.
         25    2    1    2    0    0 -0.88332553624E+02 -0.11650947107E+03  0.18950503256E+03  0.27006779755E+03  0.12508941215E+03 0.  0.
        -24    2    1    2    0    0  0.93787500220E+02  0.97338578984E+02  0.62627261797E+03  0.64575365935E+03  0.80681487291E+02 0.  0.
        -13    1    3    3    0    0 -0.27001540504E+02  0.87079874490E+01 -0.15780057061E+04  0.15782607265E+04  0.00000000000E+00 0.  1.
         14    1    3    3    0    0  0.21546593908E+02  0.10462904636E+02 -0.16987475400E+03  0.17155512271E+03  0.00000000000E+00 0. -1.
         11    1    5    5    0    0  0.11787605477E+02  0.41108789626E+01  0.73213115660E+01  0.14472338158E+02  0.00000000000E+00 0. -1.
        -12    1    5    5    0    0  0.81999894744E+02  0.93227700021E+02  0.61895130640E+03  0.63128132119E+03  0.00000000000E+00 0.  1.
          5    1    4    4  501    0 -0.10819340869E+01 -0.41594889066E+02 -0.69486286367E+01  0.42391758842E+02  0.41800000000E+01 0.  1.
         -5    1    4    4    0  501 -0.87250619537E+02 -0.74914582003E+02  0.19645366120E+03  0.22767603871E+03  0.41800000000E+01 0.  1.
</event>
<event>
11    1  0.1024381E-008  0.1549450E+03  0.7561462E-02  0.1091930E+00
         22   -1    0    0    0    0  0.00000000000E+00  0.00000000000E+00  0.14502518689E+03  0.14502518689E+03  0.00000000000E+00 0.  1.
         22   -1    0    0    0    0 -0.00000000000E+00 -0.00000000000E+00 -0.16623384955E+04  0.16623384955E+04  0.00000000000E+00 0.  1.
        -24    2    1    2    0    0  0.47086796733E+01 -0.11618560225E+02 -0.10453030833E+04  0.10484191649E+04  0.79793776607E+02 0.  0.
         25    2    1    2    0    0 -0.70367787189E+02 -0.52316128486E+02 -0.57751666624E+03  0.59737966214E+03  0.12509339782E+03 0.  0.
         24    2    1    2    0    0  0.65659107516E+02  0.63934688711E+02  0.10550644095E+03  0.16156485532E+03  0.81072995328E+02 0.  0.
        -13    1    5    5    0    0  0.49724574083E+01  0.40037949162E+02  0.83489607592E+02  0.92726896215E+02  0.00000000000E+00 0.  1.
         14    1    5    5    0    0  0.60686650107E+02  0.23896739550E+02  0.22016833358E+02  0.68837959103E+02  0.00000000000E+00 0. -1.
         11    1    3    3    0    0 -0.21038890758E+02 -0.45985552672E+01 -0.83071697411E+02  0.85817763579E+02  0.00000000000E+00 0. -1.
        -12    1    3    3    0    0  0.25747570431E+02 -0.70200049581E+01 -0.96223138589E+03  0.96260140133E+03  0.00000000000E+00 0.  1.
          5    1    4    4  501    0  0.12404005553E+02 -0.66842570901E+02 -0.28285102491E+03  0.29093635615E+03  0.41800000000E+01 0. -1.
         -5    1    4    4    0  501 -0.82771792742E+02  0.14526442415E+02 -0.29466564133E+03  0.30644330599E+03  0.41800000000E+01 0. -1.
</event>
<event>
11    1  0.8453735E-009  0.6952897E+03  0.7561462E-02  0.9039275E-01
         22   -1    0    0    0    0  0.00000000000E+00  0.00000000000E+00  0.32913921416E+03  0.32913921416E+03  0.00000000000E+00 0. -1.
         22   -1    0    0    0    0 -0.00000000000E+00 -0.00000000000E+00 -0.20483855475E+04  0.20483855475E+04  0.00000000000E+00 0. -1.
        -24    2    1    2    0    0  0.50888015431E+03  0.36638363666E+03 -0.79088310712E+03  0.10125202615E+04  0.80654882523E+02 0.  0.
         25    2    1    2    0    0 -0.65942211786E+03 -0.37429904712E+03 -0.91164409504E+03  0.11923423225E+04  0.12509177389E+03 0.  0.
         24    2    1    2    0    0  0.15054196356E+03  0.79154104574E+01 -0.16719131171E+02  0.17266217766E+03  0.82505525479E+02 0.  0.
        -11    1    5    5    0    0  0.36271029135E+02  0.39167809427E+02 -0.54102249834E+01  0.53656084317E+02  0.00000000000E+00 0.  1.
         12    1    5    5    0    0  0.11427093442E+03 -0.31252398969E+02 -0.11308906188E+02  0.11900609335E+03  0.00000000000E+00 0. -1.
         13    1    3    3    0    0  0.27666002759E+03  0.24478063082E+03 -0.48566688419E+03  0.61018902849E+03  0.00000000000E+00 0. -1.
        -14    1    3    3    0    0  0.23222012672E+03  0.12160300584E+03 -0.30521622294E+03  0.40233123297E+03  0.00000000000E+00 0.  1.
          5    1    4    4  501    0 -0.12854429683E+03 -0.66444688325E+02 -0.10522562264E+03  0.17896490414E+03  0.41800000000E+01 0.  1.
         -5    1    4    4    0  501 -0.53087782103E+03 -0.30785435879E+03 -0.80641847240E+03  0.10133774184E+04  0.41800000000E+01 0.  1.
</event>
<event>
11    1  0.8453735E-009  0.6421890E+03  0.7561462E-02  0.9122122E-01
         22   -1    0    0    0    0  0.00000000000E+00  0.00000000000E+00  0.73989486319E+03  0.73989486319E+03  0.00000000000E+00 0. -1.
         22   -1    0    0    0    0 -0.00000000000E+00 -0.00000000000E+00 -0.96905696612E+03  0.96905696612E+03  0.00000000000E+00 0. -1.
         24    2    1    2    0    0  0.55549089797E+03 -0.25992034766E+03 -0.49668670001E+03  0.79313215660E+03  0.78944379159E+02 0.  0.
         25    2    1    2    0    0 -0.65525615365E+03  0.18746959343E+03  0.11147846858E+03  0.70183997601E+03  0.12508568107E+03 0.  0.
        -24    2    1    2    0    0  0.99765255673E+02  0.72450754226E+02  0.15604612850E+03  0.21397969671E+03  0.78960106100E+02 0.  0.
        -13    1    3    3    0    0  0.25564456827E+03 -0.13456689887E+03 -0.28141664391E+03  0.40330847130E+03  0.00000000000E+00 0.  1.
         14    1    3    3    0    0  0.29984632971E+03 -0.12535344879E+03 -0.21527005610E+03  0.38982368530E+03  0.00000000000E+00 0. -1.
         13    1    5    5    0    0  0.11101379124E+01 -0.14304900855E+02  0.22191709145E+02  0.26426020310E+02  0.00000000000E+00 0. -1.
        -14    1    5    5    0    0  0.98655117760E+02  0.86755655081E+02  0.13385441936E+03  0.18755367640E+03  0.00000000000E+00 0.  1.
          5    1    4    4  501    0 -0.38133805468E+03  0.50872702942E+02  0.35087517283E+02  0.38633579969E+03  0.41800000000E+01 0.  1.
         -5    1    4    4    0  501 -0.27391809897E+03  0.13659689049E+03  0.76390951301E+02  0.31550417632E+03  0.41800000000E+01 0.  1.
</event>
<event>
11    1  0.8453735E-009  0.1301881E+03  0.7561462E-02  0.1119038E+00
         22   -1    0    0    0    0  0.00000000000E+00  0.00000000000E+00  0.65980901431E+03  0.65980901431E+03  0.00000000000E+00 0. -1.
         22   -1    0    0    0    0 -0.00000000000E+00 -0.00000000000E+00 -0.14732633480E+04  0.14732633480E+04  0.00000000000E+00 0.  1.
        -24    2    1    2    0    0 -0.16770684920E+02  0.28636406157E+02 -0.10645512785E+04  0.10681180175E+04  0.80655906377E+02 0.  0.
         25    2    1    2    0    0  0.22084387660E+02 -0.50457715401E+02 -0.39279009937E+03  0.41589109182E+03  0.12509051472E+03 0.  0.
         24    2    1    2    0    0 -0.53137027404E+01  0.21821309244E+02  0.64388704412E+03  0.64906325299E+03  0.78664959296E+02 0.  0.
        -13    1    5    5    0    0 -0.33385938831E+02 -0.13118498419E+02  0.34033762046E+03  0.34222275174E+03  0.00000000000E+00 0.  1.
         14    1    5    5    0    0  0.28072236090E+02  0.34939807663E+02  0.30354942367E+03  0.30684050125E+03  0.00000000000E+00 0. -1.
         13    1    3    3    0    0 -0.42905260989E+02  0.17502679332E+02 -0.35673676535E+03  0.35973368616E+03  0.00000000000E+00 0. -1.
        -14    1    3    3    0    0  0.26134576069E+02  0.11133726825E+02 -0.70781451313E+03  0.70838433138E+03  0.00000000000E+00 0.  1.
          5    1    4    4  501    0  0.22778171797E+02 -0.73095937600E+02 -0.12181027585E+03  0.14393427981E+03  0.41800000000E+01 0. -1.
         -5    1    4    4    0  501 -0.69378413648E+00  0.22638222199E+02 -0.27097982352E+03  0.27195681201E+03  0.41800000000E+01 0. -1.
</event>
<event>
11    1  0.8453735E-009  0.1331292E+03  0.7561462E-02  0.1115483E+00
         22   -1    0    0    0    0  0.00000000000E+00  0.00000000000E+00  0.69981129717E+03  0.69981129717E+03  0.00000000000E+00 0. -1.
         22   -1    0    0    0    0 -0.00000000000E+00 -0.00000000000E+00 -0.53506101865E+02  0.53506101865E+02  0.00000000000E+00 0. -1.
         24    2    1    2    0    0 -0.18976260155E+02 -0.45977589085E+02  0.50779795123E+02  0.10780980136E+03  0.81057563058E+02 0.  0.
         25    2    1    2    0    0  0.47453922277E+01  0.35410912295E+02  0.18254243365E+03  0.22415824531E+03  0.12509487360E+03 0.  0.
        -24    2    1    2    0    0  0.14230867927E+02  0.10566676790E+02  0.41298296653E+03  0.42134935236E+03  0.81646640050E+02 0.  0.
        -13    1    3    3    0    0  0.30915144297E+02 -0.21303565227E+02  0.31169867346E+02  0.48797014957E+02  0.00000000000E+00 0.  1.
         14    1    3    3    0    0 -0.49891404452E+02 -0.24674023858E+02  0.19609927777E+02  0.59012786402E+02  0.00000000000E+00 0. -1.
         11    1    5    5    0    0  0.44232501486E+02 -0.97538060694E+01  0.27409030681E+03  0.27780775225E+03  0.00000000000E+00 0. -1.
        -12    1    5    5    0    0 -0.30001633559E+02  0.20320482859E+02  0.13889265972E+03  0.14354160012E+03  0.00000000000E+00 0.  1.
          5    1    4    4  501    0 -0.84767661965E+01  0.53424110089E+02  0.19201385459E+03  0.19953141070E+03  0.41800000000E+01 0.  1.
         -5    1    4    4    0  501  0.13222158424E+02 -0.18013197794E+02 -0.94714209380E+01  0.24626834606E+02  0.41800000000E+01 0.  1.
</event>
<event>
11    1  0.8453735E-009  0.1447005E+03  0.7561462E-02  0.1102420E+00
         22   -1    0    0    0    0  0.00000000000E+00  0.00000000000E+00  0.28954571823E+03  0.28954571823E+03  0.00000000000E+00 0. -1.
         22   -1    0    0    0    0 -0.00000000000E+00 -0.00000000000E+00 -0.22127544235E+04  0.22127544235E+04  0.00000000000E+00 0.  1.
        -24    2    1    2    0    0 -0.57893347275E+02 -0.88648034031E+01 -0.20644650206E+04  0.20669138805E+04  0.81773735111E+02 0.  0.
         25    2    1    2    0    0  0.31092424586E+02 -0.60918797633E+02 -0.99129407173E+02  0.17364259800E+03  0.12508906308E+03 0.  0.
         24    2    1    2    0    0  0.26800922688E+02  0.69783601036E+02  0.24038572249E+03  0.26174366324E+03  0.71668746576E+02 0.  0.
        -11    1    5    5    0    0  0.30567277391E+02 -0.28943376303E+01  0.76084757903E+02  0.82046486960E+02  0.00000000000E+00 0.  1.
         12    1    5    5    0    0 -0.37663547027E+01  0.72677938666E+02  0.16430096459E+03  0.17969717628E+03  0.00000000000E+00 0. -1.
         13    1    3    3    0    0 -0.19053096841E+02 -0.21141992587E+02 -0.20112886951E+03  0.20313253432E+03  0.00000000000E+00 0. -1.
        -14    1    3    3    0    0 -0.38840250433E+02  0.12277189184E+02 -0.18633361511E+04  0.18637813462E+04  0.00000000000E+00 0.  1.
          5    1    4    4  501    0  0.63040634129E+02 -0.15306274951E+02 -0.98227725371E+02  0.11779033082E+03  0.41800000000E+01 0. -1.
         -5    1    4    4    0  501 -0.31948209542E+02 -0.45612522682E+02 -0.90168180210E+00  0.55852267173E+02  0.41800000000E+01 0. -1.
</event>
<event>
11    1  0.8453735E-009  0.1676631E+03  0.7561462E-02  0.1080083E+00
         22   -1    0    0    0    0  0.00000000000E+00  0.00000000000E+00  0.68061299081E+03  0.68061299081E+03  0.00000000000E+00 0.  1.
         22   -1    0    0    0    0 -0.00000000000E+00 -0.00000000000E+00 -0.76946854440E+03  0.76946854440E+03  0.00000000000E+00 0.  1.
         24    2    1    2    0    0  0.86341176265E+02 -0.47419655599E+02 -0.68467367859E+03  0.69646677891E+03  0.81144966065E+02 0.  0.
         25    2    1    2    0    0 -0.17577132323E+03  0.94105701977E+02  0.12677635377E+03  0.26734194589E+03  0.12509208983E+03 0.  0.
        -24    2    1    2    0    0  0.89430146967E+02 -0.46686046378E+02  0.46904177122E+03  0.48627281042E+03  0.79269949448E+02 0.  0.
        -13    1    3    3    0    0  0.82422064478E+02 -0.28106173722E+02 -0.65550932114E+03  0.66126834479E+03  0.00000000000E+00 0.  1.
         14    1    3    3    0    0  0.39191117870E+01 -0.19313481877E+02 -0.29164357446E+02  0.35198434122E+02  0.00000000000E+00 0. -1.
         13    1    5    5    0    0  0.46589363197E+02  0.10722157171E+02  0.28123177980E+03  0.28526627454E+03  0.00000000000E+00 0. -1.
        -14    1    5    5    0    0  0.42840783769E+02 -0.57408203550E+02  0.18780999142E+03  0.20100653588E+03  0.00000000000E+00 0.  1.
          5    1    4    4  501    0 -0.31606708890E+02  0.48316284816E+02  0.97241239992E+02  0.11316703840E+03  0.41800000000E+01 0. -1.
         -5    1    4    4    0  501 -0.14416461434E+03  0.45789417162E+02  0.29535113782E+02  0.15417490749E+03  0.41800000000E+01 0. -1.
</event>
<event>
11    1  0.8453735E-009  0.1485137E+03  0.7561462E-02  0.1098407E+00
         22   -1    0    0    0    0  0.00000000000E+00  0.00000000000E+00  0.66532596736E+03  0.66532596736E+03  0.00000000000E+00 0. -1.
         22   -1    0    0    0    0 -0.00000000000E+00 -0.00000000000E+00 -0.14381640641E+04  0.14381640641E+04  0.00000000000E+00 0.  1.
        -24    2    1    2    0    0 -0.50988229129E+02 -0.27894289169E+02 -0.11376125237E+04  0.11417637377E+04  0.78001845001E+02 0.  0.
         25    2    1    2    0    0 -0.37959777017E+01  0.86585574001E+02 -0.27379560920E+03  0.31324639376E+03  0.12509115283E+03 0.  0.
         24    2    1    2    0    0  0.54784206831E+02 -0.58691284832E+02  0.63857003611E+03  0.64847990003E+03  0.79426151188E+02 0.  0.
        -13    1    5    5    0    0  0.25887791622E+02 -0.56969750220E+02  0.21498437471E+03  0.22390625620E+03  0.00000000000E+00 0.  1.
         14    1    5    5    0    0  0.28896415209E+02 -0.17215346121E+01  0.42358566140E+03  0.42457364383E+03  0.00000000000E+00 0. -1.
         11    1    3    3    0    0 -0.14015003355E+02  0.17421537886E+02 -0.98466607836E+02  0.10097327944E+03  0.00000000000E+00 0. -1.
        -12    1    3    3    0    0 -0.36973225774E+02 -0.45315827054E+02 -0.10391459158E+04  0.10407904582E+04  0.00000000000E+00 0.  1.
          5    1    4    4  501    0 -0.22199986755E+02 -0.16237824911E+02 -0.10121846754E+02  0.29604569774E+02  0.41800000000E+01 0.  1.
         -5    1    4    4    0  501  0.18404009053E+02  0.10282339891E+03 -0.26367376245E+03  0.28364182399E+03  0.41800000000E+01 0.  1.
</event>
<event>
11    1  0.8453735E-009  0.1345310E+03  0.7561462E-02  0.1113824E+00
         22   -1    0    0    0    0  0.00000000000E+00  0.00000000000E+00  0.22196449017E+04  0.22196449017E+04  0.00000000000E+00 0. -1.
         22   -1    0    0    0    0 -0.00000000000E+00 -0.00000000000E+00 -0.31335920817E+03  0.31335920817E+03  0.00000000000E+00 0.  1.
        -24    2    1    2    0    0 -0.48869649430E+02  0.16616498698E+01 -0.24701741853E+03  0.26457963881E+03  0.81202072032E+02 0.  0.
         25    2    1    2    0    0  0.97064501574E+02  0.15079870503E+01  0.55539505378E+02  0.16779693562E+03  0.12508950178E+03 0.  0.
         24    2    1    2    0    0 -0.48194852144E+02 -0.31696369201E+01  0.20977636067E+04  0.21006275355E+04  0.98443398815E+02 0.  0.
        -11    1    5    5    0    0  0.78834628369E+01  0.38788592549E+02  0.78287126443E+03  0.78387123979E+03  0.00000000000E+00 0.  1.
         12    1    5    5    0    0 -0.56078314980E+02 -0.41958229469E+02  0.13148923423E+04  0.13167562957E+04  0.00000000000E+00 0. -1.
         11    1    3    3    0    0 -0.17321227035E+02 -0.33996816158E+01 -0.23183328993E+01  0.17803297687E+02  0.00000000000E+00 0. -1.
        -12    1    3    3    0    0 -0.31548422395E+02  0.50613314856E+01 -0.24469908563E+03  0.24677634112E+03  0.00000000000E+00 0.  1.
          5    1    4    4  501    0  0.12037251237E+03  0.26134694501E+02  0.50794222112E+02  0.13330449876E+03  0.41800000000E+01 0.  1.
         -5    1    4    4    0  501 -0.23308010795E+02 -0.24626707451E+02  0.47452832659E+01  0.34492436857E+02  0.41800000000E+01 0.  1.
</event>
<event>
11    1  0.8453735E-009  0.1558986E+03  0.7561462E-02  0.1091000E+00
         22   -1    0    0    0    0  0.00000000000E+00  0.00000000000E+00  0.84344625920E+03  0.84344625920E+03  0.00000000000E+00 0. -1.
         22   -1    0    0    0    0 -0.00000000000E+00 -0.00000000000E+00 -0.34831471711E+04  0.34831471711E+04  0.00000000000E+00 0. -1.
         24    2    1    2    0    0  0.73447654714E+01  0.92730788827E+02 -0.34543740953E+04  0.34565650506E+04  0.80551935108E+02 0.  0.
         25    2    1    2    0    0 -0.48478425125E+01 -0.95120315002E+02  0.22312622905E+03  0.27295846121E+03  0.12509848740E+03 0.  0.
        -24    2    1    2    0    0 -0.24969229589E+01  0.23895261747E+01  0.59154695427E+03  0.59706991854E+03  0.80949021377E+02 0.  0.
        -13    1    3    3    0    0  0.39426753120E+01 -0.13578799830E+02 -0.22788433343E+03  0.22832257426E+03  0.00000000000E+00 0.  1.
         14    1    3    3    0    0  0.34020901594E+01  0.10630958866E+03 -0.32264897618E+04  0.32282424763E+04  0.00000000000E+00 0. -1.
         13    1    5    5    0    0  0.23675278172E+02 -0.27000880946E+02  0.17366580490E+03  0.17733972527E+03  0.00000000000E+00 0. -1.
        -14    1    5    5    0    0 -0.26172201131E+02  0.29390407120E+02  0.41788114937E+03  0.41973019327E+03  0.00000000000E+00 0.  1.
          5    1    4    4  501    0 -0.91329176493E+01 -0.12279184091E+03  0.20552015146E+03  0.23961897136E+03  0.41800000000E+01 0.  1.
         -5    1    4    4    0  501  0.42850751368E+01  0.27671525907E+02  0.17606077590E+02  0.33339489844E+02  0.41800000000E+01 0.  1.
</event>
<event>
11    1  0.8453735E-009  0.1577867E+03  0.7561462E-02  0.1089178E+00
         22   -1    0    0    0    0  0.00000000000E+00  0.00000000000E+00  0.24016393316E+04  0.24016393316E+04  0.00000000000E+00 0.  1.
         22   -1    0    0    0    0 -0.00000000000E+00 -0.00000000000E+00 -0.25027285304E+02  0.25027285304E+02  0.00000000000E+00 0. -1.
         24    2    1    2    0    0 -0.76617445869E+02 -0.50894758631E+02  0.22896794097E+03  0.26002797200E+03  0.82022672248E+02 0.  0.
         25    2    1    2    0    0  0.10583906595E+03  0.40426845949E+02  0.87030068474E+03  0.88651396005E+03  0.12508989470E+03 0.  0.
        -24    2    1    2    0    0 -0.29221620078E+02  0.10467912682E+02  0.12773434206E+04  0.12801246849E+04  0.78418839409E+02 0.  0.
        -13    1    3    3    0    0 -0.19394651350E+02 -0.37468232591E+02  0.17573356464E+03  0.18072716092E+03  0.00000000000E+00 0.  1.
         14    1    3    3    0    0 -0.57222794520E+02 -0.13426526040E+02  0.53234376330E+02  0.79300811077E+02  0.00000000000E+00 0. -1.
         13    1    5    5    0    0 -0.32783242125E+02  0.41524606359E+02  0.84178974718E+03  0.84345065792E+03  0.00000000000E+00 0. -1.
        -14    1    5    5    0    0  0.35616220472E+01 -0.31056693677E+02  0.43555367341E+03  0.43667402693E+03  0.00000000000E+00 0.  1.
          5    1    4    4  501    0  0.32796529931E+00  0.11872124578E+02  0.38222034235E+01  0.13158135972E+02  0.41800000000E+01 0. -1.
         -5    1    4    4    0  501  0.10551110065E+03  0.28554721370E+02  0.86647848131E+03  0.87335582408E+03  0.41800000000E+01 0. -1.
</event>
<event>
11    1  0.8453735E-009  0.1327056E+03  0.7561462E-02  0.1115989E+00
         22   -1    0    0    0    0  0.00000000000E+00  0.00000000000E+00  0.28479356637E+04  0.28479356637E+04  0.00000000000E+00 0.  1.
         22   -1    0    0    0    0 -0.00000000000E+00 -0.00000000000E+00 -0.59419541628E+03  0.59419541628E+03  0.00000000000E+00 0. -1.
         24    2    1    2    0    0  0.40085996943E+02 -0.18595275511E+02 -0.57945464861E+03  0.58716498216E+03  0.83918740804E+02 0.  0.
         25    2    1    2    0    0 -0.68760627236E+02 -0.63876394067E+01  0.50269533692E+03  0.52260808918E+03  0.12509111609E+03 0.  0.
        -24    2    1    2    0    0  0.28674630293E+02  0.24982914918E+02  0.23304995591E+04  0.23323580086E+04  0.84966493230E+02 0.  0.
        -13    1    3    3    0    0  0.40465139833E+02 -0.81997681735E+01 -0.10841787455E+03  0.11601335812E+03  0.00000000000E+00 0.  1.
         14    1    3    3    0    0 -0.37914288947E+00 -0.10395507338E+02 -0.47103677406E+03  0.47115162404E+03  0.00000000000E+00 0. -1.
         11    1    5    5    0    0 -0.30223542525E+02  0.69318913294E+01  0.67265536810E+03  0.67336970371E+03  0.00000000000E+00 0. -1.
        -12    1    5    5    0    0  0.58898172818E+02  0.18051023589E+02  0.16578441910E+04  0.16589883049E+04  0.00000000000E+00 0.  1.
          5    1    4    4  501    0  0.14047968207E+02  0.93587340187E+01  0.32935747026E+03  0.32981623206E+03  0.41800000000E+01 0. -1.
         -5    1    4    4    0  501 -0.82808595443E+02 -0.15746373425E+02  0.17333786665E+03  0.19279185712E+03  0.41800000000E+01 0. -1.
</event>
<event>
11    1  0.8453735E-009  0.2098078E+03  0.7561462E-02  0.1047797E+00
         22   -1    0    0    0    0  0.00000000000E+00  0.00000000000E+00  0.17130752510E+04  0.17130752510E+04  0.00000000000E+00 0. -1.
         22   -1    0    0    0    0 -0.00000000000E+00 -0.00000000000E+00 -0.23273647779E+03  0.23273647779E+03  0.00000000000E+00 0. -1.
         24    2    1    2    0    0 -0.15402474973E+03 -0.69420255671E+02 -0.17446310662E+03  0.25574432139E+03  0.80156016143E+02 0.  0.
         25    2    1    2    0    0  0.15719589744E+03  0.39319712500E+02  0.64575352340E+03  0.67743117318E+03  0.12513509278E+03 0.  0.
        -24    2    1    2    0    0 -0.31711477122E+01  0.30100543171E+02  0.10090483565E+04  0.10126362342E+04  0.79608155011E+02 0.  0.
        -13    1    3    3    0    0 -0.92955347786E+02 -0.66093053016E+02 -0.67509544225E+02  0.13253877508E+03  0.00000000000E+00 0.  1.
         14    1    3    3    0    0 -0.61069401946E+02 -0.33272026551E+01 -0.10695356240E+03  0.12320554631E+03  0.00000000000E+00 0. -1.
         11    1    5    5    0    0 -0.63507460815E+01  0.55960549300E+02  0.79814479998E+03  0.80012938753E+03  0.00000000000E+00 0. -1.
        -12    1    5    5    0    0  0.31795983693E+01 -0.25860006129E+02  0.21090355647E+03  0.21250684670E+03  0.00000000000E+00 0.  1.
          5    1    4    4  501    0  0.30025202749E+02  0.42627283465E+02  0.67824246301E+02  0.85651613423E+02  0.41800000000E+01 0. -1.
         -5    1    4    4    0  501  0.12717069469E+03 -0.33075709642E+01  0.57792927710E+03  0.59177955976E+03  0.41800000000E+01 0. -1.
</event>
<event>
11    1  0.8453735E-009  0.2221833E+03  0.7561462E-02  0.1039858E+00
         22   -1    0    0    0    0  0.00000000000E+00  0.00000000000E+00  0.82427932972E+03  0.82427932972E+03  0.00000000000E+00 0. -1.
         22   -1    0    0    0    0 -0.00000000000E+00 -0.00000000000E+00 -0.12050083396E+04  0.12050083396E+04  0.00000000000E+00 0.  1.
         24    2    1    2    0    0 -0.35951845489E+02 -0.26036904483E+02 -0.10725792436E+04  0.10765578435E+04  0.81117822227E+02 0.  0.
         25    2    1    2    0    0  0.29012876114E+02  0.20672882908E+03  0.11923797559E+02  0.24365614504E+03  0.12509030464E+03 0.  0.
        -24    2    1    2    0    0  0.69389693752E+01 -0.18069192460E+03  0.67992643615E+03  0.70907368074E+03  0.88248542383E+02 0.  0.
        -11    1    3    3    0    0 -0.43733270323E+02 -0.11321298073E+02 -0.10276752062E+04  0.10286676335E+04  0.00000000000E+00 0.  1.
         12    1    3    3    0    0  0.77814248339E+01 -0.14715606410E+02 -0.44904037388E+02  0.47890210045E+02  0.00000000000E+00 0. -1.
         13    1    5    5    0    0 -0.27288051194E+02 -0.15314373505E+03  0.56541027913E+03  0.58641830213E+03  0.00000000000E+00 0. -1.
        -14    1    5    5    0    0  0.34227020569E+02 -0.27548189554E+02  0.11451615702E+03  0.12265537861E+03  0.00000000000E+00 0.  1.
          5    1    4    4  501    0 -0.17378740260E+02  0.16895282088E+03 -0.27187719059E+02  0.17205731825E+03  0.41800000000E+01 0. -1.
         -5    1    4    4    0  501  0.46391616374E+02  0.37776008203E+02  0.39111516619E+02  0.71598826791E+02  0.41800000000E+01 0. -1.
</event>
<event>
11    1  0.8453735E-009  0.1724408E+03  0.7561462E-02  0.1075927E+00
         22   -1    0    0    0    0  0.00000000000E+00  0.00000000000E+00  0.14970444893E+03  0.14970444893E+03  0.00000000000E+00 0. -1.
         22   -1    0    0    0    0 -0.00000000000E+00 -0.00000000000E+00 -0.81650098860E+03  0.81650098860E+03  0.00000000000E+00 0. -1.
        -24    2    1    2    0    0  0.57998339667E+02  0.28066447171E+02 -0.34376276845E+03  0.35894456093E+03  0.80726848002E+02 0.  0.
         25    2    1    2    0    0 -0.16296087152E+03  0.18402604708E+02 -0.39735240040E+03  0.44769593645E+03  0.12509124631E+03 0.  0.
         24    2    1    2    0    0  0.10496253186E+03 -0.46469051879E+02  0.74318629175E+02  0.15956494015E+03  0.82226550487E+02 0.  0.
        -13    1    5    5    0    0  0.55644487531E+01 -0.30730780943E+02 -0.47406023882E+01  0.31588246205E+02  0.00000000000E+00 0.  1.
         14    1    5    5    0    0  0.99398083104E+02 -0.15738270936E+02  0.79059231563E+02  0.12797669394E+03  0.00000000000E+00 0. -1.
         13    1    3    3    0    0  0.62008748763E+02  0.41586880818E+02 -0.18415436822E+03  0.19871432991E+03  0.00000000000E+00 0. -1.
        -14    1    3    3    0    0 -0.40104090958E+01 -0.13520433647E+02 -0.15960840023E+03  0.16023023102E+03  0.00000000000E+00 0.  1.
          5    1    4    4  501    0 -0.12253823303E+03 -0.44105990724E+02 -0.22693584947E+03  0.26168360504E+03  0.41800000000E+01 0.  1.
         -5    1    4    4    0  501 -0.40422638491E+02  0.62508595432E+02 -0.17041655092E+03  0.18601233140E+03  0.41800000000E+01 0.  1.
</event>
<event>
11    1  0.8453735E-009  0.1435121E+03  0.7561462E-02  0.1103699E+00
         22   -1    0    0    0    0  0.00000000000E+00  0.00000000000E+00  0.15246139187E+03  0.15246139187E+03  0.00000000000E+00 0.  1.
         22   -1    0    0    0    0 -0.00000000000E+00 -0.00000000000E+00 -0.13937839171E+04  0.13937839171E+04  0.00000000000E+00 0. -1.
        -24    2    1    2    0    0 -0.68725242970E+02 -0.17559326792E+02 -0.94366200813E+03  0.94982687139E+03  0.81496080009E+02 0.  0.
         25    2    1    2    0    0  0.62526213710E+02  0.29378565737E+02 -0.42341819588E+03  0.44688145162E+03  0.12508971051E+03 0.  0.
         24    2    1    2    0    0  0.61990292594E+01 -0.11819238945E+02  0.12575767878E+03  0.14953698596E+03  0.79800965078E+02 0.  0.
        -11    1    5    5    0    0 -0.20950915015E+01  0.29925881790E+02  0.86801406693E+02  0.91839163831E+02  0.00000000000E+00 0.  1.
         12    1    5    5    0    0  0.82941207609E+01 -0.41745120735E+02  0.38956272083E+02  0.57697822133E+02  0.00000000000E+00 0. -1.
         11    1    3    3    0    0 -0.39982998740E+02  0.30513549534E+02 -0.53194957159E+03  0.53432205981E+03  0.00000000000E+00 0. -1.
        -12    1    3    3    0    0 -0.28742244230E+02 -0.48072876326E+02 -0.41171243654E+03  0.41550481158E+03  0.00000000000E+00 0.  1.
          5    1    4    4  501    0  0.44257102471E+02  0.16508729095E+02 -0.42139738541E+03  0.42405714012E+03  0.41800000000E+01 0.  1.
         -5    1    4    4    0  501  0.18269111240E+02  0.12869836641E+02 -0.20208104716E+01  0.22824311504E+02  0.41800000000E+01 0.  1.
</event>
<event>
11    1  0.8453735E-009  0.2726835E+03  0.7561462E-02  0.1012464E+00
         22   -1    0    0    0    0  0.00000000000E+00  0.00000000000E+00  0.64709335542E+03  0.64709335542E+03  0.00000000000E+00 0. -1.
         22   -1    0    0    0    0 -0.00000000000E+00 -0.00000000000E+00 -0.81641814186E+03  0.81641814186E+03  0.00000000000E+00 0. -1.
        -24    2    1    2    0    0 -0.92927973664E+01 -0.11969869878E+02 -0.11471099648E+03  0.14196853532E+03  0.82260673710E+02 0.  0.
         25    2    1    2    0    0  0.21653766878E+03  0.13642807252E+03 -0.63036717340E+03  0.69174513234E+03  0.12508946338E+03 0.  0.
         24    2    1    2    0    0 -0.20724487141E+03 -0.12445820264E+03  0.57575338344E+03  0.62979782962E+03  0.81933306495E+02 0.  0.
        -13    1    5    5    0    0 -0.82588414802E+02 -0.91398658763E+02  0.33035771330E+03  0.35257733878E+03  0.00000000000E+00 0.  1.
         14    1    5    5    0    0 -0.12465645661E+03 -0.33059543880E+02  0.24539567014E+03  0.27722049084E+03  0.00000000000E+00 0. -1.
         11    1    3    3    0    0  0.15850853925E+00  0.31550315567E+02 -0.20125337117E+02  0.37422943917E+02  0.00000000000E+00 0. -1.
        -12    1    3    3    0    0 -0.94513059057E+01 -0.43520185444E+02 -0.94585659359E+02  0.10454559140E+03  0.00000000000E+00 0.  1.
          5    1    4    4  501    0  0.21248020354E+03  0.13587788994E+03 -0.63564450361E+03  0.68386551692E+03  0.41800000000E+01 0. -1.
         -5    1    4    4    0  501  0.40574652392E+01  0.55018258054E+00  0.52773302072E+01  0.78796154193E+01  0.41800000000E+01 0. -1.
</event>
<event>
11    1  0.8453735E-009  0.1339438E+03  0.7561462E-02  0.1114516E+00
         22   -1    0    0    0    0  0.00000000000E+00  0.00000000000E+00  0.71023254979E+03  0.71023254979E+03  0.00000000000E+00 0. -1.
         22   -1    0    0    0    0 -0.00000000000E+00 -0.00000000000E+00 -0.20734387814E+03  0.20734387814E+03  0.00000000000E+00 0. -1.
        -24    2    1    2    0    0 -0.29217542993E+02  0.39316876253E+02 -0.97505489443E+02  0.13670047976E+03  0.82342085945E+02 0.  0.
         25    2    1    2    0    0  0.34452251616E+02 -0.30168140145E+02 -0.36891844152E+02  0.13822534093E+03  0.12509261524E+03 0.  0.
         24    2    1    2    0    0 -0.52347086225E+01 -0.91487361085E+01  0.63728600525E+03  0.64265060725E+03  0.82190321611E+02 0.  0.
        -11    1    5    5    0    0 -0.63245152522E+01 -0.34959292488E+02  0.13177825285E+03  0.13648318412E+03  0.00000000000E+00 0.  1.
         12    1    5    5    0    0  0.10898066297E+01  0.25810556379E+02  0.50550775240E+03  0.50616742312E+03  0.00000000000E+00 0. -1.
         13    1    3    3    0    0 -0.11871945439E+02 -0.51040748071E+01 -0.86890137573E+02  0.87845834709E+02  0.00000000000E+00 0. -1.
        -14    1    3    3    0    0 -0.17345597554E+02  0.44420951060E+02 -0.10615351870E+02  0.48854645050E+02  0.00000000000E+00 0.  1.
          5    1    4    4  501    0 -0.24469675110E+02 -0.59946329096E+02 -0.58303248776E+01  0.65144396998E+02  0.41800000000E+01 0. -1.
         -5    1    4    4    0  501  0.58921926725E+02  0.29778188951E+02 -0.31061519275E+02  0.73080943931E+02  0.41800000000E+01 0. -1.
</event>
<event>
11    1  0.8453735E-009  0.1264583E+03  0.7561462E-02  0.1123699E+00
         22   -1    0    0    0    0  0.00000000000E+00  0.00000000000E+00  0.66380641667E+02  0.66380641667E+02  0.00000000000E+00 0.  1.
         22   -1    0    0    0    0 -0.00000000000E+00 -0.00000000000E+00 -0.57816496785E+03  0.57816496785E+03  0.00000000000E+00 0.  1.
        -24    2    1    2    0    0  0.36180601048E+02  0.92718576925E+01 -0.37655889047E+03  0.38692015795E+03  0.80719312412E+02 0.  0.
         25    2    1    2    0    0 -0.34588433152E+02  0.76187029714E+01 -0.80547030305E+02  0.15293903054E+03  0.12509244033E+03 0.  0.
         24    2    1    2    0    0 -0.15921678962E+01 -0.16890560664E+02 -0.54678405407E+02  0.10468642103E+03  0.87645266227E+02 0.  0.
        -13    1    5    5    0    0 -0.36614171464E+02  0.16954619183E+02 -0.21135482580E+02  0.45549591519E+02  0.00000000000E+00 0.  1.
         14    1    5    5    0    0  0.35022003568E+02 -0.33845179847E+02 -0.33542922827E+02  0.59136829510E+02  0.00000000000E+00 0. -1.
         13    1    3    3    0    0  0.41705718488E+02 -0.23156873386E+02 -0.13602418054E+03  0.14414640277E+03  0.00000000000E+00 0. -1.
        -14    1    3    3    0    0 -0.55251174402E+01  0.32428731078E+02 -0.24053470993E+03  0.24277375518E+03  0.00000000000E+00 0.  1.
          5    1    4    4  501    0 -0.59519550207E+01  0.19960632901E+02 -0.10867791434E+03  0.11073488204E+03  0.41800000000E+01 0.  1.
         -5    1    4    4    0  501 -0.28636478131E+02 -0.12341929929E+02  0.28130884036E+02  0.42204148502E+02  0.41800000000E+01 0.  1.
</event>
<event>
11    1  0.8453735E-009  0.1658866E+03  0.7561462E-02  0.1081668E+00
         22   -1    0    0    0    0  0.00000000000E+00  0.00000000000E+00  0.14581990153E+03  0.14581990153E+03  0.00000000000E+00 0. -1.
         22   -1    0    0    0    0 -0.00000000000E+00 -0.00000000000E+00 -0.24564302512E+04  0.24564302512E+04  0.00000000000E+00 0. -1.
        -24    2    1    2    0    0 -0.52243476714E+02  0.65468423196E+01 -0.20929380538E+04  0.20952101846E+04  0.82120514706E+02 0.  0.
         25    2    1    2    0    0  0.78923809469E+02  0.98243249034E+02 -0.30038823674E+03  0.34894430300E+03  0.12509328577E+03 0.  0.
         24    2    1    2    0    0 -0.26680332755E+02 -0.10479009135E+03  0.82715940815E+02  0.15809566510E+03  0.80371071010E+02 0.  0.
        -13    1    5    5    0    0  0.19811474175E+02 -0.41596929290E+02  0.28792560694E+01  0.46163721155E+02  0.00000000000E+00 0.  1.
         14    1    5    5    0    0 -0.46491806930E+02 -0.63193162064E+02  0.79836684745E+02  0.11193194394E+03  0.00000000000E+00 0. -1.
         13    1    3    3    0    0 -0.26677878271E+02 -0.27543089722E+02 -0.15924088442E+04  0.15928704461E+04  0.00000000000E+00 0. -1.
        -14    1    3    3    0    0 -0.25565598444E+02  0.34089932041E+02 -0.50052920956E+03  0.50233973854E+03  0.00000000000E+00 0.  1.
          5    1    4    4  501    0  0.69591292295E+02  0.12510238192E+03 -0.21071419942E+03  0.25477735410E+03  0.41800000000E+01 0. -1.
         -5    1    4    4    0  501  0.93325171742E+01 -0.26859132888E+02 -0.89674037322E+02  0.94166948905E+02  0.41800000000E+01 0. -1.
</event>
<event>
11    1  0.8453735E-009  0.2061612E+03  0.7561462E-02  0.1050250E+00
         22   -1    0    0    0    0  0.00000000000E+00  0.00000000000E+00  0.57642563456E+03  0.57642563456E+03  0.00000000000E+00 0.  1.
         22   -1    0    0    0    0 -0.00000000000E+00 -0.00000000000E+00 -0.51454002129E+03  0.51454002129E+03  0.00000000000E+00 0.  1.
        -24    2    1    2    0    0  0.49954529389E+02  0.12556584300E+03 -0.20870005739E+03  0.26093461955E+03  0.79176548237E+02 0.  0.
         25    2    1    2    0    0 -0.10048529413E+03 -0.21395227140E+03 -0.20668980403E+03  0.33799461014E+03  0.12508722005E+03 0.  0.
         24    2    1    2    0    0  0.50530764746E+02  0.88386428401E+02  0.47727547469E+03  0.49203642616E+03  0.62788908439E+02 0.  0.
        -13    1    5    5    0    0  0.55693757835E+02  0.58952431912E+02  0.25051377839E+03  0.26331414139E+03  0.00000000000E+00 0.  1.
         14    1    5    5    0    0 -0.51629930893E+01  0.29433996489E+02  0.22676169629E+03  0.22872228477E+03  0.00000000000E+00 0. -1.
         11    1    3    3    0    0  0.15646248066E+02  0.51333234899E+00 -0.67218683272E+02  0.69017533783E+02  0.00000000000E+00 0. -1.
        -12    1    3    3    0    0  0.34308281322E+02  0.12505251065E+03 -0.14148137411E+03  0.19191708576E+03  0.00000000000E+00 0.  1.
          5    1    4    4  501    0  0.27232808519E+02 -0.16448243153E+02 -0.27949724881E+02  0.42553849222E+02  0.41800000000E+01 0. -1.
         -5    1    4    4    0  501 -0.12771810265E+03 -0.19750402824E+03 -0.17874007915E+03  0.29544076092E+03  0.41800000000E+01 0. -1.
</event>
<event>
11    1  0.8453735E-009  0.1356217E+03  0.7561462E-02  0.1112548E+00
         22   -1    0    0    0    0  0.00000000000E+00  0.00000000000E+00  0.70733689520E+03  0.70733689520E+03  0.00000000000E+00 0. -1.
         22   -1    0    0    0    0 -0.00000000000E+00 -0.00000000000E+00 -0.46651300999E+03  0.46651300999E+03  0.00000000000E+00 0.  1.
        -24    2    1    2    0    0  0.38036958099E+02  0.29590944974E+02 -0.36291165107E+03  0.37484656471E+03  0.80514883029E+02 0.  0.
         25    2    1    2    0    0  0.76195099152E+01 -0.57048143400E+00 -0.52497336974E+02  0.13587257964E+03  0.12508798954E+03 0.  0.
         24    2    1    2    0    0 -0.45656468015E+02 -0.29020463540E+02  0.65623287326E+03  0.66313076084E+03  0.78575579201E+02 0.  0.
        -11    1    5    5    0    0 -0.83167766558E+01 -0.23548613154E+02  0.51647660455E+02  0.57368865998E+02  0.00000000000E+00 0.  1.
         12    1    5    5    0    0 -0.37339691359E+02 -0.54718503854E+01  0.60458521280E+03  0.60576189484E+03  0.00000000000E+00 0. -1.
         13    1    3    3    0    0  0.36932312152E+02 -0.15894131044E+02 -0.95922558856E+02  0.10400844379E+03  0.00000000000E+00 0. -1.
        -14    1    3    3    0    0  0.11046459476E+01  0.45485076018E+02 -0.26698909221E+03  0.27083812092E+03  0.00000000000E+00 0.  1.
          5    1    4    4  501    0  0.27175338013E+02 -0.50314743646E+02 -0.58513171647E+02  0.81922744585E+02  0.41800000000E+01 0.  1.
         -5    1    4    4    0  501 -0.19555828097E+02  0.49744262212E+02  0.60158346720E+01  0.53949835054E+02  0.41800000000E+01 0.  1.
</event>
<event>
11    1  0.8453735E-009  0.1512530E+03  0.7561462E-02  0.1095605E+00
         22   -1    0    0    0    0  0.00000000000E+00  0.00000000000E+00  0.16025764630E+03  0.16025764630E+03  0.00000000000E+00 0. -1.
         22   -1    0    0    0    0 -0.00000000000E+00 -0.00000000000E+00 -0.24292839910E+03  0.24292839910E+03  0.00000000000E+00 0. -1.
        -24    2    1    2    0    0 -0.73417335634E+01  0.37937119995E+02 -0.98077495236E+02  0.13217159361E+03  0.79730853248E+02 0.  0.
         25    2    1    2    0    0  0.79198666568E+02  0.18214089279E+02  0.15504145835E+01  0.14918192304E+03  0.12509460636E+03 0.  0.
         24    2    1    2    0    0 -0.71856933005E+02 -0.56151209274E+02  0.13856327845E+02  0.12183252876E+03  0.79591394746E+02 0.  0.
        -11    1    5    5    0    0 -0.44841950275E+01 -0.51660160133E+02 -0.39416299885E+01  0.52004005586E+02  0.00000000000E+00 0.  1.
         12    1    5    5    0    0 -0.67372737977E+02 -0.44910491412E+01  0.17797957834E+02  0.69828523169E+02  0.00000000000E+00 0. -1.
         11    1    3    3    0    0  0.37566650080E+01  0.15703349252E+02 -0.10511227988E+03  0.10634518837E+03  0.00000000000E+00 0. -1.
        -12    1    3    3    0    0 -0.11098398571E+02  0.22233770743E+02  0.70347846401E+01  0.25826405233E+02  0.00000000000E+00 0.  1.
          5    1    4    4  501    0  0.44185474488E+02 -0.38868911340E+02 -0.39058053581E+02  0.70754168599E+02  0.41800000000E+01 0.  1.
         -5    1    4    4    0  501  0.35013192080E+02  0.57083000619E+02  0.40608468165E+02  0.78427754437E+02  0.41800000000E+01 0.  1.
</event>
<event>
11    1  0.8453735E-009  0.1455200E+03  0.7561462E-02  0.1101546E+00
         22   -1    0    0    0    0  0.00000000000E+00  0.00000000000E+00  0.33554090227E+04  0.33554090227E+04  0.00000000000E+00 0. -1.
         22   -1    0    0    0    0 -0.00000000000E+00 -0.00000000000E+00 -0.14351830568E+03  0.14351830568E+03  0.00000000000E+00 0.  1.
        -24    2    1    2    0    0  0.48299054523E+01  0.19179806962E+02 -0.11565779139E+03  0.14395013558E+03  0.83388991124E+02 0.  0.
         25    2    1    2    0    0 -0.41489589821E+01 -0.92059979671E+02  0.46393092485E+03  0.48925668018E+03  0.12509173574E+03 0.  0.
         24    2    1    2    0    0 -0.68094647027E+00  0.72880172709E+02  0.28636175836E+04  0.28657205126E+04  0.82075625842E+02 0.  0.
        -11    1    5    5    0    0  0.28497279321E+02  0.44960354197E+01  0.42956669143E+03  0.43053437917E+03  0.00000000000E+00 0.  1.
         12    1    5    5    0    0 -0.29178225791E+02  0.68384137289E+02  0.24340508921E+04  0.24351861335E+04  0.00000000000E+00 0. -1.
         13    1    3    3    0    0  0.12164151181E+02 -0.20779646909E+02 -0.30904123623E+01  0.24275727552E+02  0.00000000000E+00 0. -1.
        -14    1    3    3    0    0 -0.73342457286E+01  0.39959453871E+02 -0.11256737903E+03  0.11967440802E+03  0.00000000000E+00 0.  1.
          5    1    4    4  501    0  0.56443518370E+02 -0.41333169117E+02  0.15094166204E+03  0.16641862689E+03  0.41800000000E+01 0.  1.
         -5    1    4    4    0  501 -0.60592477352E+02 -0.50726810554E+02  0.31298926280E+03  0.32283805329E+03  0.41800000000E+01 0.  1.
</event>
<event>
11    1  0.8453735E-009  0.1696606E+03  0.7561462E-02  0.1078327E+00
         22   -1    0    0    0    0  0.00000000000E+00  0.00000000000E+00  0.40729487534E+04  0.40729487534E+04  0.00000000000E+00 0.  1.
         22   -1    0    0    0    0 -0.00000000000E+00 -0.00000000000E+00 -0.36600502644E+03  0.36600502644E+03  0.00000000000E+00 0.  1.
        -24    2    1    2    0    0  0.60123460809E+01 -0.12150049093E+03 -0.28915988123E+03  0.32351122137E+03  0.79041481727E+02 0.  0.
         25    2    1    2    0    0  0.29640081386E+02  0.76611493117E+02  0.35814401378E+02  0.15387562403E+03  0.12508869263E+03 0.  0.
         24    2    1    2    0    0 -0.35652427467E+02  0.44888997811E+02  0.39602892068E+04  0.39615669344E+04  0.82679240446E+02 0.  0.
        -11    1    5    5    0    0 -0.89400775556E+01  0.29457467805E+02  0.35449401790E+04  0.35450738413E+04  0.00000000000E+00 0.  1.
         12    1    5    5    0    0 -0.26712349912E+02  0.15431530006E+02  0.41534902778E+03  0.41649309314E+03  0.00000000000E+00 0. -1.
         13    1    3    3    0    0 -0.20721960235E+02 -0.41012270179E+01 -0.22142903095E+02  0.30602742631E+02  0.00000000000E+00 0. -1.
        -14    1    3    3    0    0  0.26734306316E+02 -0.11739926391E+03 -0.26701697814E+03  0.29290847873E+03  0.00000000000E+00 0.  1.
          5    1    4    4  501    0 -0.36396740174E+02  0.28589338447E+02  0.52835255765E+02  0.70364121681E+02  0.41800000000E+01 0.  1.
         -5    1    4    4    0  501  0.66036821560E+02  0.48022154671E+02 -0.17020854387E+02  0.83511502352E+02  0.41800000000E+01 0.  1.
</event>
<event>
11    1  0.8453735E-009  0.1347903E+03  0.7561462E-02  0.1113519E+00
         22   -1    0    0    0    0  0.00000000000E+00  0.00000000000E+00  0.63386752947E+03  0.63386752947E+03  0.00000000000E+00 0. -1.
         22   -1    0    0    0    0 -0.00000000000E+00 -0.00000000000E+00 -0.89371009318E+03  0.89371009318E+03  0.00000000000E+00 0.  1.
        -24    2    1    2    0    0  0.27137539079E+02  0.35791420523E+02 -0.86199422872E+03  0.86699558403E+03  0.81423710166E+02 0.  0.
         25    2    1    2    0    0 -0.37329100345E+02  0.18264607666E+02  0.15477178275E+03  0.20329345867E+03  0.12508744132E+03 0.  0.
         24    2    1    2    0    0  0.10191561266E+02 -0.54056028189E+02  0.44737988226E+03  0.45728857994E+03  0.77059484777E+02 0.  0.
        -13    1    5    5    0    0 -0.33020530070E+02 -0.17136192723E+02  0.20358728543E+03  0.20695841925E+03  0.00000000000E+00 0.  1.
         14    1    5    5    0    0  0.43212091335E+02 -0.36919835467E+02  0.24379259682E+03  0.25033016070E+03  0.00000000000E+00 0. -1.
         13    1    3    3    0    0  0.95526805749E+00  0.49302946342E+02 -0.28388492316E+03  0.28813597945E+03  0.00000000000E+00 0. -1.
        -14    1    3    3    0    0  0.26182271022E+02 -0.13511525819E+02 -0.57810930556E+03  0.57885960458E+03  0.00000000000E+00 0.  1.
          5    1    4    4  501    0 -0.74736372252E+02 -0.10686681145E+02  0.57304012776E+02  0.94873351219E+02  0.41800000000E+01 0. -1.
         -5    1    4    4    0  501  0.37407271907E+02  0.28951288811E+02  0.97467769978E+02  0.10842010745E+03  0.41800000000E+01 0. -1.
</event>
<event>
11    1  0.8453735E-009  0.1387720E+03  0.7561462E-02  0.1108937E+00
         22   -1    0    0    0    0  0.00000000000E+00  0.00000000000E+00  0.27201273510E+04  0.27201273510E+04  0.00000000000E+00 0.  1.
         22   -1    0    0    0    0 -0.00000000000E+00 -0.00000000000E+00 -0.72594306814E+03  0.72594306814E+03  0.00000000000E+00 0. -1.
        -24    2    1    2    0    0  0.32138095713E+02  0.21553835886E+01 -0.70337270884E+03  0.70858479741E+03  0.79509400130E+02 0.  0.
         25    2    1    2    0    0 -0.90116365116E+02  0.53981554015E+01  0.29511720230E+03  0.33300417965E+03  0.12509005248E+03 0.  0.
         24    2    1    2    0    0  0.57978269403E+02 -0.75535389901E+01  0.24024397894E+04  0.24044814421E+04  0.79972044955E+02 0.  0.
        -13    1    5    5    0    0  0.76670374540E+02 -0.45899959490E+00  0.16560444692E+04  0.16578183980E+04  0.00000000000E+00 0.  1.
         14    1    5    5    0    0 -0.18692105137E+02 -0.70945393952E+01  0.74639532027E+03  0.74666304409E+03  0.00000000000E+00 0. -1.
         11    1    3    3    0    0  0.50856304043E+02  0.18839234100E+02 -0.58922091948E+03  0.59171156178E+03  0.00000000000E+00 0. -1.
        -12    1    3    3    0    0 -0.18718208331E+02 -0.16683850511E+02 -0.11415178936E+03  0.11687323563E+03  0.00000000000E+00 0.  1.
          5    1    4    4  501    0 -0.11098379581E+03  0.50406511229E+01  0.15203731981E+03  0.18834975475E+03  0.41800000000E+01 0. -1.
         -5    1    4    4    0  501  0.20867430697E+02  0.35750427859E+00  0.14307988248E+03  0.14465442491E+03  0.41800000000E+01 0. -1.
</event>
<event>
11    1  0.8453735E-009  0.1304936E+03  0.7561462E-02  0.1118664E+00
         22   -1    0    0    0    0  0.00000000000E+00  0.00000000000E+00  0.67519148642E+03  0.67519148642E+03  0.00000000000E+00 0. -1.
         22   -1    0    0    0    0 -0.00000000000E+00 -0.00000000000E+00 -0.28516397389E+03  0.28516397389E+03  0.00000000000E+00 0. -1.
         24    2    1    2    0    0  0.35362871557E+02  0.18307893890E+02 -0.12644914041E+03  0.15516699807E+03  0.80633122953E+02 0.  0.
         25    2    1    2    0    0 -0.20914396264E+02 -0.52438385541E+02 -0.10757408290E+03  0.17437920381E+03  0.12509487264E+03 0.  0.
        -24    2    1    2    0    0 -0.14448475293E+02  0.34130491651E+02  0.62405073584E+03  0.63080925843E+03  0.84305104941E+02 0.  0.
        -13    1    3    3    0    0  0.39629315628E+02  0.27618020781E+02 -0.27288316984E+02  0.55478734420E+02  0.00000000000E+00 0.  1.
         14    1    3    3    0    0 -0.42664440710E+01 -0.93101268913E+01 -0.99160823423E+02  0.99688263651E+02  0.00000000000E+00 0. -1.
         13    1    5    5    0    0 -0.39245429302E+02  0.29896904802E+02  0.19935094785E+03  0.20536511157E+03  0.00000000000E+00 0. -1.
        -14    1    5    5    0    0  0.24796954009E+02  0.42335868485E+01  0.42469978799E+03  0.42544414686E+03  0.00000000000E+00 0.  1.
          5    1    4    4  501    0 -0.45609426119E+02  0.19982018668E+02 -0.11122518477E+02  0.51192613122E+02  0.41800000000E+01 0.  1.
         -5    1    4    4    0  501  0.24695029856E+02 -0.72420404208E+02 -0.96451564421E+02  0.12318659068E+03  0.41800000000E+01 0.  1.
</event>
<event>
11    1  0.8453735E-009  0.1291316E+03  0.7561462E-02  0.1120341E+00
         22   -1    0    0    0    0  0.00000000000E+00  0.00000000000E+00  0.80055538857E+03  0.80055538857E+03  0.00000000000E+00 0. -1.
         22   -1    0    0    0    0 -0.00000000000E+00 -0.00000000000E+00 -0.84510267257E+02  0.84510267257E+02  0.00000000000E+00 0. -1.
         24    2    1    2    0    0  0.31736941634E+02  0.21970402823E+01 -0.36823110262E+02  0.93504042290E+02  0.79843622318E+02 0.  0.
         25    2    1    2    0    0 -0.33835032386E+02 -0.48263600056E+01  0.23930512098E+03  0.27218265139E+03  0.12509337161E+03 0.  0.
        -24    2    1    2    0    0  0.20980907514E+01  0.26293197232E+01  0.51356311060E+03  0.51937896215E+03  0.77434633430E+02 0.  0.
        -13    1    3    3    0    0 -0.72911176335E+01  0.39234388521E+01  0.21651232521E+02  0.23180371836E+02  0.00000000000E+00 0.  1.
         14    1    3    3    0    0  0.39028059268E+02 -0.17263985698E+01 -0.58474342783E+02  0.70323670454E+02  0.00000000000E+00 0. -1.
         11    1    5    5    0    0 -0.14862629887E+01 -0.11932991945E+02  0.49656597820E+03  0.49671156216E+03  0.00000000000E+00 0. -1.
        -12    1    5    5    0    0  0.35843537401E+01  0.14562311668E+02  0.16997132394E+02  0.22667399994E+02  0.00000000000E+00 0.  1.
          5    1    4    4  501    0 -0.19404264011E+02 -0.13974207102E+02 -0.69891001660E+01  0.25261113338E+02  0.41800000000E+01 0.  1.
         -5    1    4    4    0  501 -0.14430768375E+02  0.91478470965E+01  0.24629422115E+03  0.24692153805E+03  0.41800000000E+01 0.  1.
</event>
<event>
11    1  0.8453735E-009  0.1264257E+03  0.7561462E-02  0.1123740E+00
         22   -1    0    0    0    0  0.00000000000E+00  0.00000000000E+00  0.30665661141E+03  0.30665661141E+03  0.00000000000E+00 0. -1.
         22   -1    0    0    0    0 -0.00000000000E+00 -0.00000000000E+00 -0.20455377947E+03  0.20455377947E+03  0.00000000000E+00 0. -1.
         24    2    1    2    0    0  0.82103832066E+01  0.18883197802E+02 -0.14598275991E+03  0.17222984533E+03  0.89040259877E+02 0.  0.
         25    2    1    2    0    0  0.23726533285E+02 -0.68650906124E+01  0.79742554135E+02  0.15038739682E+03  0.12508963319E+03 0.  0.
        -24    2    1    2    0    0 -0.31936916492E+02 -0.12018107190E+02  0.16834303770E+03  0.18859314874E+03  0.77869094462E+02 0.  0.
        -11    1    3    3    0    0  0.28876455002E+02 -0.42162394105E+01 -0.72401974488E+01  0.30067370809E+02  0.00000000000E+00 0.  1.
         12    1    3    3    0    0 -0.20666071796E+02  0.23099437213E+02 -0.13874256246E+03  0.14216247452E+03  0.00000000000E+00 0. -1.
         11    1    5    5    0    0 -0.33785080957E+02  0.16418263768E+02  0.15016648887E+03  0.15479329914E+03  0.00000000000E+00 0. -1.
        -12    1    5    5    0    0  0.18481644649E+01 -0.28436370958E+02  0.18176548836E+02  0.33799849596E+02  0.00000000000E+00 0.  1.
          5    1    4    4  501    0  0.40255185060E+02 -0.28673062212E+02 -0.14892530290E+02  0.51786912239E+02  0.41800000000E+01 0. -1.
         -5    1    4    4    0  501 -0.16528651775E+02  0.21807971600E+02  0.94635084425E+02  0.98600484577E+02  0.41800000000E+01 0. -1.
</event>
<event>
11    1  0.8453735E-009  0.1460208E+03  0.7561462E-02  0.1101015E+00
         22   -1    0    0    0    0  0.00000000000E+00  0.00000000000E+00  0.67208650670E+03  0.67208650670E+03  0.00000000000E+00 0. -1.
         22   -1    0    0    0    0 -0.00000000000E+00 -0.00000000000E+00 -0.17985156435E+03  0.17985156435E+03  0.00000000000E+00 0. -1.
         24    2    1    2    0    0  0.11156043911E+02 -0.15301156656E+02 -0.13355715501E+03  0.15768188500E+03  0.81654641574E+02 0.  0.
         25    2    1    2    0    0 -0.22848896792E+02  0.86425544533E+02  0.18584571502E+03  0.24119870586E+03  0.12508692612E+03 0.  0.
        -24    2    1    2    0    0  0.11692852881E+02 -0.71124387878E+02  0.43994638234E+03  0.45305748019E+03  0.80702290307E+02 0.  0.
        -13    1    3    3    0    0  0.42243282025E+02 -0.95905426587E+00 -0.40509963943E+02  0.58536072981E+02  0.00000000000E+00 0.  1.
         14    1    3    3    0    0 -0.31087238114E+02 -0.14342102390E+02 -0.93047191069E+02  0.99145812016E+02  0.00000000000E+00 0. -1.
         13    1    5    5    0    0 -0.35101993005E+01 -0.48690995322E+02  0.92817618682E+02  0.10487251719E+03  0.00000000000E+00 0. -1.
        -14    1    5    5    0    0  0.15203052181E+02 -0.22433392555E+02  0.34712876366E+03  0.34818496299E+03  0.00000000000E+00 0.  1.
          5    1    4    4  501    0 -0.58808691792E+02  0.62769884352E+02  0.17731372842E+03  0.19711963701E+03  0.41800000000E+01 0.  1.
         -5    1    4    4    0  501  0.35959795000E+02  0.23655660181E+02  0.85319866042E+01  0.44079068847E+02  0.41800000000E+01 0.  1.
</event>
<event>
11    1  0.8453735E-009  0.1459798E+03  0.7561462E-02  0.1101059E+00
         22   -1    0    0    0    0  0.00000000000E+00  0.00000000000E+00  0.75613745829E+03  0.75613745829E+03  0.00000000000E+00 0. -1.
         22   -1    0    0    0    0 -0.00000000000E+00 -0.00000000000E+00 -0.43812464282E+02  0.43812464282E+02  0.00000000000E+00 0. -1.
         24    2    1    2    0    0 -0.57136607976E+02  0.28605715231E+02  0.14625933381E+03  0.17817427078E+03  0.79192165819E+02 0.  0.
         25    2    1    2    0    0  0.85934837772E+02 -0.38869305720E+02  0.24942897709E+03  0.29454776936E+03  0.12509178450E+03 0.  0.
        -24    2    1    2    0    0 -0.28798229796E+02  0.10263590489E+02  0.31663668311E+03  0.32722788244E+03  0.76711267917E+02 0.  0.
        -13    1    3    3    0    0  0.43041069840E+01 -0.19862378667E+02  0.50948598638E+02  0.54852521605E+02  0.00000000000E+00 0.  1.
         14    1    3    3    0    0 -0.61440714960E+02  0.48468093898E+02  0.95310735169E+02  0.12332174917E+03  0.00000000000E+00 0. -1.
         13    1    5    5    0    0 -0.31711572614E+02  0.27728504826E+02  0.84509931909E+02  0.94426809799E+02  0.00000000000E+00 0. -1.
        -14    1    5    5    0    0  0.29133428182E+01 -0.17464914337E+02  0.23212675120E+03  0.23280107264E+03  0.00000000000E+00 0.  1.
          5    1    4    4  501    0  0.10211205631E+03 -0.47879963312E+02  0.12391351271E+03  0.16760487452E+03  0.41800000000E+01 0. -1.
         -5    1    4    4    0  501 -0.16177218539E+02  0.90106575920E+01  0.12551546438E+03  0.12694289484E+03  0.41800000000E+01 0. -1.
</event>
<event>
11    1  0.8453735E-009  0.1479171E+03  0.7561462E-02  0.1099026E+00
         22   -1    0    0    0    0  0.00000000000E+00  0.00000000000E+00  0.10147955166E+04  0.10147955166E+04  0.00000000000E+00 0.  1.
         22   -1    0    0    0    0 -0.00000000000E+00 -0.00000000000E+00 -0.11777257517E+03  0.11777257517E+03  0.00000000000E+00 0. -1.
         24    2    1    2    0    0 -0.29473776013E+02  0.17450622039E+02 -0.67798353483E+02  0.11068186785E+03  0.80502369246E+02 0.  0.
         25    2    1    2    0    0  0.38751257711E+02 -0.92699422372E+02  0.23932267463E+03  0.28812718706E+03  0.12508833060E+03 0.  0.
        -24    2    1    2    0    0 -0.92774816981E+01  0.75248800333E+02  0.72549862034E+03  0.73375903690E+03  0.79407949889E+02 0.  0.
        -13    1    3    3    0    0  0.27257033353E+01  0.34789205912E+02 -0.14545519379E+01  0.34926122430E+02  0.00000000000E+00 0.  1.
         14    1    3    3    0    0 -0.32199479348E+02 -0.17338583873E+02 -0.66343801545E+02  0.75755745423E+02  0.00000000000E+00 0. -1.
         11    1    5    5    0    0  0.17380954375E+02  0.16427177022E+01  0.33697443492E+03  0.33742638588E+03  0.00000000000E+00 0. -1.
        -12    1    5    5    0    0 -0.26658436073E+02  0.73606082631E+02  0.38852418542E+03  0.39633265102E+03  0.00000000000E+00 0.  1.
          5    1    4    4  501    0 -0.36331920836E+02 -0.55396114463E+02  0.57335276689E+02  0.87712851522E+02  0.41800000000E+01 0. -1.
         -5    1    4    4    0  501  0.75083178547E+02 -0.37303307909E+02  0.18198739794E+03  0.20041433554E+03  0.41800000000E+01 0. -1.
</event>
<event>
11    1  0.8453735E-009  0.2462289E+03  0.7561462E-02  0.1025928E+00
         22   -1    0    0    0    0  0.00000000000E+00  0.00000000000E+00  0.12170914370E+04  0.12170914370E+04  0.00000000000E+00 0.  1.
         22   -1    0    0    0    0 -0.00000000000E+00 -0.00000000000E+00 -0.21143696308E+03  0.21143696308E+03  0.00000000000E+00 0.  1.
        -24    2    1    2    0    0 -0.32412895282E+02 -0.63719843845E+02 -0.12573991890E+03  0.16549833202E+03  0.80426092880E+02 0.  0.
         25    2    1    2    0    0  0.71868914455E+02  0.25498528898E+03  0.38075364997E+03  0.48041956825E+03  0.12508789365E+03 0.  0.
         24    2    1    2    0    0 -0.39456019173E+02 -0.19126544514E+03  0.75064074282E+03  0.78261049977E+03  0.10429967218E+03 0.  0.
        -11    1    5    5    0    0 -0.43354797433E+02 -0.15374972721E+03  0.70748324245E+03  0.72529384075E+03  0.00000000000E+00 0.  1.
         12    1    5    5    0    0  0.38987782598E+01 -0.37515717927E+02  0.43157500372E+02  0.57316659025E+02  0.00000000000E+00 0. -1.
         13    1    3    3    0    0 -0.32587048796E+02 -0.60353311896E+02 -0.39414558754E+02  0.79107176968E+02  0.00000000000E+00 0. -1.
        -14    1    3    3    0    0  0.17415351380E+00 -0.33665319488E+01 -0.86325360145E+02  0.86391155050E+02  0.00000000000E+00 0.  1.
          5    1    4    4  501    0  0.43078585218E+02  0.20722241371E+02  0.26783253916E+02  0.54954443698E+02  0.41800000000E+01 0. -1.
         -5    1    4    4    0  501  0.28790329237E+02  0.23426304761E+03  0.35397039605E+03  0.42546512456E+03  0.41800000000E+01 0. -1.
</event>
<event>
11    1  0.8453735E-009  0.1551231E+03  0.7561462E-02  0.1091756E+00
         22   -1    0    0    0    0  0.00000000000E+00  0.00000000000E+00  0.19093066572E+04  0.19093066572E+04  0.00000000000E+00 0.  1.
         22   -1    0    0    0    0 -0.00000000000E+00 -0.00000000000E+00 -0.13527935921E+04  0.13527935921E+04  0.00000000000E+00 0.  1.
         24    2    1    2    0    0 -0.30661965298E+02  0.86808347101E+02 -0.13407166215E+04  0.13463765856E+04  0.82054895279E+02 0.  0.
         25    2    1    2    0    0  0.12444769313E+02 -0.23528898074E+02  0.55823989794E+03  0.57270216243E+03  0.12508997512E+03 0.  0.
        -24    2    1    2    0    0  0.18217195985E+02 -0.63279449026E+02  0.13389897886E+04  0.13430215013E+04  0.80479464250E+02 0.  0.
        -11    1    3    3    0    0 -0.25098024351E+02  0.10203929908E+03 -0.12297671623E+04  0.12342484364E+04  0.00000000000E+00 0.  1.
         12    1    3    3    0    0 -0.55639409472E+01 -0.15230951976E+02 -0.11094945917E+03  0.11212814913E+03  0.00000000000E+00 0. -1.
         11    1    5    5    0    0  0.20823846669E+02  0.94577265250E+01  0.14284473325E+03  0.14466409021E+03  0.00000000000E+00 0. -1.
        -12    1    5    5    0    0 -0.26066506843E+01 -0.72737175551E+02  0.11961450553E+04  0.11983574111E+04  0.00000000000E+00 0.  1.
          5    1    4    4  501    0 -0.46144966575E+02  0.14218786297E+02  0.34334197908E+03  0.34674589950E+03  0.41800000000E+01 0. -1.
         -5    1    4    4    0  501  0.58589735889E+02 -0.37747684371E+02  0.21489791886E+03  0.22595626293E+03  0.41800000000E+01 0. -1.
</event>
<event>
11    1  0.8453735E-009  0.1318377E+03  0.7561462E-02  0.1117031E+00
         22   -1    0    0    0    0  0.00000000000E+00  0.00000000000E+00  0.47813732777E+02  0.47813732777E+02  0.00000000000E+00 0.  1.
         22   -1    0    0    0    0 -0.00000000000E+00 -0.00000000000E+00 -0.17823837843E+04  0.17823837843E+04  0.00000000000E+00 0.  1.
        -24    2    1    2    0    0  0.24854234791E+02 -0.46496956593E+02 -0.10897086009E+04  0.10939837082E+04  0.80968012197E+02 0.  0.
         25    2    1    2    0    0  0.15098165305E+02  0.16478100839E+02 -0.63059156767E+03  0.64326726767E+03  0.12509024758E+03 0.  0.
         24    2    1    2    0    0 -0.39952400096E+02  0.30018855755E+02 -0.14269882928E+02  0.92946541166E+02  0.77059094089E+02 0.  0.
        -11    1    5    5    0    0 -0.46648888335E+02  0.31084559637E+02  0.18848750198E+02  0.59140882769E+02  0.00000000000E+00 0.  1.
         12    1    5    5    0    0  0.66964882392E+01 -0.10657038821E+01 -0.33118633126E+02  0.33805658397E+02  0.00000000000E+00 0. -1.
         13    1    3    3    0    0  0.74141839518E+01 -0.13555838227E+02 -0.31172653084E+02  0.34791740025E+02  0.00000000000E+00 0. -1.
        -14    1    3    3    0    0  0.17440050839E+02 -0.32941118366E+02 -0.10585359478E+04  0.10591919682E+04  0.00000000000E+00 0.  1.
          5    1    4    4  501    0 -0.33262705987E+02  0.55454434502E+02 -0.31619308543E+03  0.32276483946E+03  0.41800000000E+01 0. -1.
         -5    1    4    4    0  501  0.48360871292E+02 -0.38976333663E+02 -0.31439848224E+03  0.32050242821E+03  0.41800000000E+01 0. -1.
</event>
<event>
11    1  0.8453735E-009  0.4005234E+03  0.7561462E-02  0.9648215E-01
         22   -1    0    0    0    0  0.00000000000E+00  0.00000000000E+00  0.24514346830E+03  0.24514346830E+03  0.00000000000E+00 0.  1.
         22   -1    0    0    0    0 -0.00000000000E+00 -0.00000000000E+00 -0.84863826587E+03  0.84863826587E+03  0.00000000000E+00 0.  1.
        -24    2    1    2    0    0  0.89174855162E+00  0.27242251816E+02 -0.17717969109E+03  0.19508472533E+03  0.76957596266E+02 0.  0.
         25    2    1    2    0    0 -0.37746483516E+03 -0.66363195658E+02 -0.24736470182E+03  0.47299095714E+03  0.12508946523E+03 0.  0.
         24    2    1    2    0    0  0.37657308660E+03  0.39120943842E+02 -0.17895040465E+03  0.42570605170E+03  0.76581050714E+02 0.  0.
        -11    1    5    5    0    0  0.23180778493E+03 -0.74590942907E+01 -0.13038303797E+03  0.26606432274E+03  0.00000000000E+00 0.  1.
         12    1    5    5    0    0  0.14476530167E+03  0.46580038133E+02 -0.48567366681E+02  0.15964172896E+03  0.00000000000E+00 0. -1.
         13    1    3    3    0    0  0.10295876535E+02  0.15933666655E+02 -0.17923303782E+03  0.18023420500E+03  0.00000000000E+00 0. -1.
        -14    1    3    3    0    0 -0.94041279834E+01  0.11308585161E+02  0.20533467223E+01  0.14850520335E+02  0.00000000000E+00 0.  1.
          5    1    4    4  501    0 -0.17901986601E+03 -0.19670754634E+02 -0.44934727969E+02  0.18566543348E+03  0.41800000000E+01 0.  1.
         -5    1    4    4    0  501 -0.19844496915E+03 -0.46692441024E+02 -0.20242997385E+03  0.28732552366E+03  0.41800000000E+01 0.  1.
</event>
<event>
11    1  0.8453735E-009  0.1634180E+03  0.7561462E-02  0.1083906E+00
         22   -1    0    0    0    0  0.00000000000E+00  0.00000000000E+00  0.79227526415E+03  0.79227526415E+03  0.00000000000E+00 0.  1.
         22   -1    0    0    0    0 -0.00000000000E+00 -0.00000000000E+00 -0.18821774305E+03  0.18821774305E+03  0.00000000000E+00 0.  1.
        -24    2    1    2    0    0 -0.67690516030E+02 -0.69373775858E+02 -0.94341205238E+02  0.15710452992E+03  0.79917730061E+02 0.  0.
         25    2    1    2    0    0  0.92714926172E+02  0.11484856881E+03  0.10138235250E+03  0.21843065973E+03  0.12508924981E+03 0.  0.
         24    2    1    2    0    0 -0.25024410143E+02 -0.45474792952E+02  0.59701637383E+03  0.60495781755E+03  0.82772172212E+02 0.  0.
        -11    1    5    5    0    0  0.11114931014E+02 -0.44155169393E+02  0.48757292738E+03  0.48969437427E+03  0.00000000000E+00 0.  1.
         12    1    5    5    0    0 -0.36139341157E+02 -0.13196235585E+01  0.10944344645E+03  0.11526344328E+03  0.00000000000E+00 0. -1.
         13    1    3    3    0    0  0.95798973786E+01 -0.62914375858E+01 -0.43812175602E+02  0.45286458812E+02  0.00000000000E+00 0. -1.
        -14    1    3    3    0    0 -0.77270413408E+02 -0.63082338273E+02 -0.50529029636E+02  0.11181807111E+03  0.00000000000E+00 0.  1.
          5    1    4    4  501    0  0.99357100403E+02  0.50930619625E+02  0.18148158343E+02  0.11319270943E+03  0.41800000000E+01 0.  1.
         -5    1    4    4    0  501 -0.66421742307E+01  0.63917949185E+02  0.83234194157E+02  0.10523795030E+03  0.41800000000E+01 0.  1.
</event>
<event>
11    1  0.8453735E-009  0.1415994E+03  0.7561462E-02  0.1105785E+00
         22   -1    0    0    0    0  0.00000000000E+00  0.00000000000E+00  0.21007829806E+04  0.21007829806E+04  0.00000000000E+00 0. -1.
         22   -1    0    0    0    0 -0.00000000000E+00 -0.00000000000E+00 -0.20754370381E+03  0.20754370381E+03  0.00000000000E+00 0.  1.
         24    2    1    2    0    0 -0.21018405472E+02  0.25536694291E+02 -0.18907643458E+03  0.20797735219E+03  0.80067376564E+02 0.  0.
         25    2    1    2    0    0  0.81891144403E+02 -0.29854474199E+02  0.82390183643E+03  0.83788982403E+03  0.12509065500E+03 0.  0.
        -24    2    1    2    0    0 -0.60872738932E+02  0.43177799071E+01  0.12584138749E+04  0.12624595082E+04  0.80463629116E+02 0.  0.
        -13    1    3    3    0    0 -0.20260743345E+01  0.52240264841E+02 -0.13471149374E+03  0.14450030032E+03  0.00000000000E+00 0.  1.
         14    1    3    3    0    0 -0.18992331137E+02 -0.26703570550E+02 -0.54364940839E+02  0.63477051874E+02  0.00000000000E+00 0. -1.
         13    1    5    5    0    0 -0.36672726856E+02 -0.36366345671E+02  0.78051843297E+03  0.78222530271E+03  0.00000000000E+00 0. -1.
        -14    1    5    5    0    0 -0.24200012076E+02  0.40684125578E+02  0.47789544194E+03  0.48023420545E+03  0.00000000000E+00 0.  1.
          5    1    4    4  501    0  0.34638895745E+02 -0.70780142538E+02  0.60742038528E+03  0.61252483912E+03  0.41800000000E+01 0.  1.
         -5    1    4    4    0  501  0.47252248658E+02  0.40925668339E+02  0.21648145115E+03  0.22536498491E+03  0.41800000000E+01 0.  1.
</event>
<event>
11    1  0.8453735E-009  0.2582321E+03  0.7561462E-02  0.1019603E+00
         22   -1    0    0    0    0  0.00000000000E+00  0.00000000000E+00  0.18191617451E+03  0.18191617451E+03  0.00000000000E+00 0. -1.
         22   -1    0    0    0    0 -0.00000000000E+00 -0.00000000000E+00 -0.14265062559E+04  0.14265062559E+04  0.00000000000E+00 0. -1.
        -24    2    1    2    0    0 -0.19491673926E+02 -0.19148856710E+03 -0.11054521512E+04  0.11256173727E+04  0.89119103016E+02 0.  0.
         25    2    1    2    0    0  0.12121124379E+03  0.19684047067E+03  0.36182351223E+02  0.26532234372E+03  0.12509375293E+03 0.  0.
         24    2    1    2    0    0 -0.10171956987E+03 -0.53519035703E+01 -0.17532028149E+03  0.21748271404E+03  0.78651230367E+02 0.  0.
        -13    1    5    5    0    0 -0.54394999893E+02  0.20817943346E+02 -0.14318379122E+03  0.15457619755E+03  0.00000000000E+00 0.  1.
         14    1    5    5    0    0 -0.47324569972E+02 -0.26169846916E+02 -0.32136490269E+02  0.62906516495E+02  0.00000000000E+00 0. -1.
         13    1    3    3    0    0  0.91853275879E+01 -0.14661889071E+03 -0.61591673906E+03  0.63319420308E+03  0.00000000000E+00 0. -1.
        -14    1    3    3    0    0 -0.28677001514E+02 -0.44869676389E+02 -0.48953541210E+03  0.49242316961E+03  0.00000000000E+00 0.  1.
          5    1    4    4  501    0  0.32446634953E+02  0.50264920120E+02 -0.45660351024E+02  0.75376961800E+02  0.41800000000E+01 0.  1.
         -5    1    4    4    0  501  0.88764608839E+02  0.14657555055E+03  0.81842702247E+02  0.18994538192E+03  0.41800000000E+01 0.  1.
</event>
<event>
11    1  0.8453735E-009  0.1555802E+03  0.7561462E-02  0.1091309E+00
         22   -1    0    0    0    0  0.00000000000E+00  0.00000000000E+00  0.14791375534E+03  0.14791375534E+03  0.00000000000E+00 0.  1.
         22   -1    0    0    0    0 -0.00000000000E+00 -0.00000000000E+00 -0.88158245378E+03  0.88158245378E+03  0.00000000000E+00 0. -1.
        -24    2    1    2    0    0  0.91158716894E+02  0.16306464000E+02 -0.72917697028E+03  0.73936045540E+03  0.79868746067E+02 0.  0.
         25    2    1    2    0    0 -0.91138884238E+02 -0.11945400098E+02 -0.85154441818E+02  0.17704242919E+03  0.12507499338E+03 0.  0.
         24    2    1    2    0    0 -0.19832656047E-01 -0.43610639018E+01  0.80662713653E+02  0.11309332454E+03  0.79149272954E+02 0.  0.
        -11    1    5    5    0    0 -0.15259304938E+02 -0.30848862973E+02  0.74293010153E+02  0.81877653187E+02  0.00000000000E+00 0.  1.
         12    1    5    5    0    0  0.15239472282E+02  0.26487799071E+02  0.63697035006E+01  0.31215671349E+02  0.00000000000E+00 0. -1.
         11    1    3    3    0    0  0.76844244062E+02  0.38210659911E+01 -0.29821929192E+03  0.30798438997E+03  0.00000000000E+00 0. -1.
        -12    1    3    3    0    0  0.14314472833E+02  0.12485398009E+02 -0.43095767835E+03  0.43137606543E+03  0.00000000000E+00 0.  1.
          5    1    4    4  501    0 -0.23199400972E+02  0.52505541300E+02 -0.52135817331E+02  0.77657323682E+02  0.41800000000E+01 0. -1.
         -5    1    4    4    0  501 -0.67939483267E+02 -0.64450941399E+02 -0.33018624487E+02  0.99385105508E+02  0.41800000000E+01 0. -1.
</event>
<event>
11    1  0.8453735E-009  0.1441088E+03  0.7561462E-02  0.1103055E+00
         22   -1    0    0    0    0  0.00000000000E+00  0.00000000000E+00  0.51238840388E+03  0.51238840388E+03  0.00000000000E+00 0.  1.
         22   -1    0    0    0    0 -0.00000000000E+00 -0.00000000000E+00 -0.72370640927E+02  0.72370640927E+02  0.00000000000E+00 0.  1.
         24    2    1    2    0    0  0.21067137443E+02 -0.58629282405E+02  0.45846068450E+02  0.11224481676E+03  0.81337690288E+02 0.  0.
         25    2    1    2    0    0 -0.42127950353E+02 -0.34178861694E+02  0.20994114219E+03  0.25032116912E+03  0.12506976349E+03 0.  0.
        -24    2    1    2    0    0  0.21060812910E+02  0.92808144099E+02  0.18423055232E+03  0.22219305893E+03  0.79824492341E+02 0.  0.
        -11    1    3    3    0    0  0.51053765192E+02 -0.23791637650E+02  0.28394938494E+02  0.63077741672E+02  0.00000000000E+00 0.  1.
         12    1    3    3    0    0 -0.29986627749E+02 -0.34837644756E+02  0.17451129956E+02  0.49167075087E+02  0.00000000000E+00 0. -1.
         11    1    5    5    0    0  0.25178380671E+02  0.34235361491E+02  0.14616232241E+03  0.15221509558E+03  0.00000000000E+00 0. -1.
        -12    1    5    5    0    0 -0.41175677608E+01  0.58572782608E+02  0.38068229913E+02  0.69977963356E+02  0.00000000000E+00 0.  1.
          5    1    4    4  501    0 -0.10234353304E+02 -0.42876507859E+02  0.21234558965E+03  0.21691302118E+03  0.41800000000E+01 0. -1.
         -5    1    4    4    0  501 -0.31893597049E+02  0.86976461657E+01 -0.24044474596E+01  0.33408147945E+02  0.41800000000E+01 0. -1.
</event>
<event>
11    1  0.8453735E-009  0.1556663E+03  0.7561462E-02  0.1091226E+00
         22   -1    0    0    0    0  0.00000000000E+00  0.00000000000E+00  0.59200574908E+03  0.59200574908E+03  0.00000000000E+00 0. -1.
         22   -1    0    0    0    0 -0.00000000000E+00 -0.00000000000E+00 -0.44471890967E+03  0.44471890967E+03  0.00000000000E+00 0.  1.
         24    2    1    2    0    0  0.77152930980E+02 -0.42223602419E+02 -0.33965125245E+03  0.36009458934E+03  0.81053887144E+02 0.  0.
         25    2    1    2    0    0 -0.10797793837E+03  0.88514185971E+02  0.76092777751E+01  0.18761472434E+03  0.12508951751E+03 0.  0.
        -24    2    1    2    0    0  0.30825007389E+02 -0.46290583552E+02  0.47932881409E+03  0.48901534506E+03  0.79289951981E+02 0.  0.
        -13    1    3    3    0    0  0.44491470530E+02  0.16188870072E+02 -0.19572333130E+03  0.20136830157E+03  0.00000000000E+00 0.  1.
         14    1    3    3    0    0  0.32661460450E+02 -0.58412472491E+02 -0.14392792115E+03  0.15872628777E+03  0.00000000000E+00 0. -1.
         13    1    5    5    0    0  0.37311652303E+02 -0.66085519940E+02  0.38608017816E+03  0.39346837143E+03  0.00000000000E+00 0. -1.
        -14    1    5    5    0    0 -0.64866449140E+01  0.19794936389E+02  0.93248635923E+02  0.95546973633E+02  0.00000000000E+00 0.  1.
          5    1    4    4  501    0 -0.34679274326E+02  0.23965078246E+02  0.62497626122E+02  0.75501011344E+02  0.41800000000E+01 0.  1.
         -5    1    4    4    0  501 -0.73298664043E+02  0.64549107725E+02 -0.54888348347E+02  0.11211371300E+03  0.41800000000E+01 0.  1.
</event>
<event>
11    1  0.8525955E-009  0.1566273E+03  0.7561462E-02  0.1090293E+00
         22   -1    0    0    0    0  0.00000000000E+00  0.00000000000E+00  0.62202133562E+03  0.62202133562E+03  0.00000000000E+00 0. -1.
         22   -1    0    0    0    0 -0.00000000000E+00 -0.00000000000E+00 -0.10740723818E+04  0.10740723818E+04  0.00000000000E+00 0.  1.
         24    2    1    2    0    0 -0.36779221219E+02 -0.52000070452E+01 -0.84768882059E+03  0.85236368731E+03  0.81041765140E+02 0.  0.
         25    2    1    2    0    0 -0.29142649925E+01 -0.80941226181E+02 -0.19192579933E+03  0.24298710093E+03  0.12508894328E+03 0.  0.
        -24    2    1    2    0    0  0.39693486211E+02  0.86141233226E+02  0.58756357377E+03  0.60074292916E+03  0.81640852558E+02 0.  0.
        -11    1    3    3    0    0 -0.26176765921E+02  0.36863304070E+02 -0.38491094204E+03  0.38755716941E+03  0.00000000000E+00 0.  1.
         12    1    3    3    0    0 -0.10602455298E+02 -0.42063311116E+02 -0.46277787855E+03  0.46480651790E+03  0.00000000000E+00 0. -1.
         11    1    5    5    0    0  0.52490386285E+02  0.95683148515E+02  0.51788603770E+03  0.52926028909E+03  0.00000000000E+00 0. -1.
        -12    1    5    5    0    0 -0.12796900074E+02 -0.95419152888E+01  0.69677536070E+02  0.71482640072E+02  0.00000000000E+00 0.  1.
          5    1    4    4  501    0 -0.31029757665E+02 -0.48643553459E+02 -0.19140886662E+03  0.19995966537E+03  0.41800000000E+01 0.  1.
         -5    1    4    4    0  501  0.28115492672E+02 -0.32297672722E+02 -0.51693271461E+00  0.43027435560E+02  0.41800000000E+01 0.  1.
</event>
<event>
11    1  0.8453735E-009  0.2129752E+03  0.7561462E-02  0.1045709E+00
         22   -1    0    0    0    0  0.00000000000E+00  0.00000000000E+00  0.73866747778E+02  0.73866747778E+02  0.00000000000E+00 0. -1.
         22   -1    0    0    0    0 -0.00000000000E+00 -0.00000000000E+00 -0.15926249808E+04  0.15926249808E+04  0.00000000000E+00 0.  1.
        -24    2    1    2    0    0 -0.16625482840E+03  0.26810592101E+02 -0.11935366165E+04  0.12078754646E+04  0.77935917281E+02 0.  0.
         25    2    1    2    0    0  0.19229120136E+03 -0.52443131424E+02 -0.24736956812E+03  0.34141814617E+03  0.12509380137E+03 0.  0.
         24    2    1    2    0    0 -0.26036372965E+02  0.25632539323E+02 -0.77852048415E+02  0.11719811785E+03  0.79621213222E+02 0.  0.
        -13    1    5    5    0    0  0.10886580420E+02  0.39763304653E+02 -0.16919110057E+02  0.44563374146E+02  0.00000000000E+00 0.  1.
         14    1    5    5    0    0 -0.36922953385E+02 -0.14130765330E+02 -0.60932938358E+02  0.72634743700E+02  0.00000000000E+00 0. -1.
         13    1    3    3    0    0 -0.99173976650E+02  0.44905833983E+02 -0.55552226757E+03  0.56608921677E+03  0.00000000000E+00 0. -1.
        -14    1    3    3    0    0 -0.67080851748E+02 -0.18095241882E+02 -0.63801434892E+03  0.64178624781E+03  0.00000000000E+00 0.  1.
          5    1    4    4  501    0  0.12882201055E+03  0.53325240876E+01 -0.76029649043E+02  0.14973819201E+03  0.41800000000E+01 0. -1.
         -5    1    4    4    0  501  0.63469190818E+02 -0.57775655512E+02 -0.17133991908E+03  0.19167995415E+03  0.41800000000E+01 0. -1.
</event>
<event>
11    1  0.8453735E-009  0.1407492E+03  0.7561462E-02  0.1106725E+00
         22   -1    0    0    0    0  0.00000000000E+00  0.00000000000E+00  0.23806256952E+03  0.23806256952E+03  0.00000000000E+00 0. -1.
         22   -1    0    0    0    0 -0.00000000000E+00 -0.00000000000E+00 -0.10072063146E+04  0.10072063146E+04  0.00000000000E+00 0. -1.
         24    2    1    2    0    0 -0.63806670428E+01  0.21196851191E+02 -0.70783419987E+03  0.71254879514E+03  0.78781416176E+02 0.  0.
         25    2    1    2    0    0  0.57200978222E+02 -0.59740310156E+02 -0.26493607131E+03  0.30443127505E+03  0.12508566177E+03 0.  0.
        -24    2    1    2    0    0 -0.50820311179E+02  0.38543458964E+02  0.20362652608E+03  0.22828881395E+03  0.81140114590E+02 0.  0.
        -11    1    3    3    0    0 -0.77622500158E+01  0.26029628803E+02 -0.76231798190E+02  0.80926393446E+02  0.00000000000E+00 0.  1.
         12    1    3    3    0    0  0.13815829729E+01 -0.48327776116E+01 -0.63160240168E+03  0.63162240169E+03  0.00000000000E+00 0. -1.
         13    1    5    5    0    0 -0.43360427392E+02  0.47849482131E+01  0.18278778663E+03  0.18792125302E+03  0.00000000000E+00 0. -1.
        -14    1    5    5    0    0 -0.74598837868E+01  0.33758510751E+02  0.20838739446E+02  0.40367560936E+02  0.00000000000E+00 0.  1.
          5    1    4    4  501    0 -0.13727645122E+02 -0.75457257967E+02 -0.14683535196E+03  0.16571161397E+03  0.41800000000E+01 0. -1.
         -5    1    4    4    0  501  0.70928623344E+02  0.15716947811E+02 -0.11810071935E+03  0.13871966108E+03  0.41800000000E+01 0. -1.
</event>
<event>
11    1  0.8453735E-009  0.1466972E+03  0.7561462E-02  0.1100302E+00
         22   -1    0    0    0    0  0.00000000000E+00  0.00000000000E+00  0.11461681175E+03  0.11461681175E+03  0.00000000000E+00 0.  1.
         22   -1    0    0    0    0 -0.00000000000E+00 -0.00000000000E+00 -0.10090905712E+04  0.10090905712E+04  0.00000000000E+00 0.  1.
         24    2    1    2    0    0  0.54262255127E+02 -0.57748858375E+02 -0.69015298853E+03  0.69947746779E+03  0.81720605635E+02 0.  0.
         25    2    1    2    0    0 -0.26849995815E+02  0.65265171912E+02 -0.27731781032E+03  0.31230423936E+03  0.12509318550E+03 0.  0.
        -24    2    1    2    0    0 -0.27412259312E+02 -0.75163135368E+01  0.72997039420E+02  0.11192567580E+03  0.79942868404E+02 0.  0.
        -11    1    3    3    0    0  0.28973561605E+02 -0.27796768894E+02 -0.59783285407E+03  0.59917964672E+03  0.00000000000E+00 0.  1.
         12    1    3    3    0    0  0.25288693522E+02 -0.29952089481E+02 -0.92320134463E+02  0.10029782107E+03  0.00000000000E+00 0. -1.
         13    1    5    5    0    0 -0.33618593555E+02 -0.15265925206E+02 -0.13223829592E+01  0.36946001160E+02  0.00000000000E+00 0. -1.
        -14    1    5    5    0    0  0.62063342431E+01  0.77496116695E+01  0.74319422379E+02  0.74979674636E+02  0.00000000000E+00 0.  1.
          5    1    4    4  501    0 -0.71009912929E+02  0.22051443466E+02 -0.10143708016E+03  0.12583968978E+03  0.41800000000E+01 0. -1.
         -5    1    4    4    0  501  0.44159917114E+02  0.43213728446E+02 -0.17588073016E+03  0.18646454957E+03  0.41800000000E+01 0. -1.
</event>
<event>
11    1  0.8453735E-009  0.1705293E+03  0.7561462E-02  0.1077572E+00
         22   -1    0    0    0    0  0.00000000000E+00  0.00000000000E+00  0.58373965429E+03  0.58373965429E+03  0.00000000000E+00 0. -1.
         22   -1    0    0    0    0 -0.00000000000E+00 -0.00000000000E+00 -0.62241341022E+03  0.62241341022E+03  0.00000000000E+00 0. -1.
         24    2    1    2    0    0 -0.24688916898E+02  0.11067675811E+03 -0.55293125979E+03  0.57047003577E+03  0.82729657605E+02 0.  0.
         25    2    1    2    0    0  0.55455672010E+02 -0.20024861526E+03  0.27400217267E+03  0.36592015595E+03  0.12508209474E+03 0.  0.
        -24    2    1    2    0    0 -0.30766755112E+02  0.89571857154E+02  0.24025533119E+03  0.26976287280E+03  0.77972255101E+02 0.  0.
        -11    1    3    3    0    0 -0.21600747649E+02  0.22049616854E+02 -0.43271868192E+02  0.53152915999E+02  0.00000000000E+00 0.  1.
         12    1    3    3    0    0 -0.30881692487E+01  0.88627141255E+02 -0.50965939160E+03  0.51731711977E+03  0.00000000000E+00 0. -1.
         13    1    5    5    0    0  0.24560047544E+02  0.35378430806E+02  0.11125455928E+03  0.11929964904E+03  0.00000000000E+00 0. -1.
        -14    1    5    5    0    0 -0.55326802656E+02  0.54193426348E+02  0.12900077191E+03  0.15046322376E+03  0.00000000000E+00 0.  1.
          5    1    4    4  501    0 -0.26702378383E+02 -0.13378050686E+03  0.14554645242E+03  0.19952815150E+03  0.41800000000E+01 0. -1.
         -5    1    4    4    0  501  0.82158050393E+02 -0.66468108400E+02  0.12845572025E+03  0.16639200445E+03  0.41800000000E+01 0. -1.
</event>
<event>
11    1  0.8453735E-009  0.3648511E+03  0.7561462E-02  0.9759567E-01
         22   -1    0    0    0    0  0.00000000000E+00  0.00000000000E+00  0.14862497905E+04  0.14862497905E+04  0.00000000000E+00 0. -1.
         22   -1    0    0    0    0 -0.00000000000E+00 -0.00000000000E+00 -0.52160144614E+03  0.52160144614E+03  0.00000000000E+00 0.  1.
        -24    2    1    2    0    0  0.34380147807E+03  0.39596707456E+02 -0.39760882547E+03  0.53315084016E+03  0.79935503402E+02 0.  0.
         25    2    1    2    0    0 -0.28789259171E+03 -0.17543076274E+03  0.64493706774E+03  0.73841023462E+03  0.12509099232E+03 0.  0.
         24    2    1    2    0    0 -0.55908886358E+02  0.13583405529E+03  0.71732010209E+03  0.73629016186E+03  0.77449205508E+02 0.  0.
        -11    1    5    5    0    0 -0.44515672110E+02  0.30010437104E+02  0.34129893080E+03  0.34549563176E+03  0.00000000000E+00 0.  1.
         12    1    5    5    0    0 -0.11393214248E+02  0.10582361818E+03  0.37602117129E+03  0.39079453010E+03  0.00000000000E+00 0. -1.
         11    1    3    3    0    0  0.37613665994E+01  0.13618476795E+02 -0.14569792985E+02  0.20295064832E+02  0.00000000000E+00 0. -1.
        -12    1    3    3    0    0  0.34004011147E+03  0.25978230661E+02 -0.38303903249E+03  0.51285577533E+03  0.00000000000E+00 0.  1.
          5    1    4    4  501    0 -0.30336534523E+02 -0.15960632506E+02  0.18134964710E+03  0.18460827181E+03  0.41800000000E+01 0. -1.
         -5    1    4    4    0  501 -0.25755605719E+03 -0.15947013024E+03  0.46358742064E+03  0.55380196280E+03  0.41800000000E+01 0. -1.
</event>
<event>
11    1  0.8453735E-009  0.1328565E+03  0.7561462E-02  0.1115808E+00
         22   -1    0    0    0    0  0.00000000000E+00  0.00000000000E+00  0.61965275489E+03  0.61965275489E+03  0.00000000000E+00 0.  1.
         22   -1    0    0    0    0 -0.00000000000E+00 -0.00000000000E+00 -0.86780401052E+03  0.86780401052E+03  0.00000000000E+00 0.  1.
        -24    2    1    2    0    0  0.30274290203E+02 -0.28370884341E+01 -0.69834845722E+03  0.70396146947E+03  0.83346272117E+02 0.  0.
         25    2    1    2    0    0 -0.32134420524E+02  0.47462912536E+02 -0.13395547193E+03  0.19203349992E+03  0.12508975811E+03 0.  0.
         24    2    1    2    0    0  0.18601303214E+01 -0.44625824102E+02  0.58415267353E+03  0.59146179602E+03  0.81226756089E+02 0.  0.
        -13    1    5    5    0    0  0.80807767596E+01  0.15166961783E+02  0.32393087701E+03  0.32438641889E+03  0.00000000000E+00 0.  1.
         14    1    5    5    0    0 -0.62206464382E+01 -0.59792785885E+02  0.26022179652E+03  0.26707537713E+03  0.00000000000E+00 0. -1.
         11    1    3    3    0    0  0.22763190407E+02  0.33158993343E+02 -0.53572010271E+03  0.53722780096E+03  0.00000000000E+00 0. -1.
        -12    1    3    3    0    0  0.75110997956E+01 -0.35996081777E+02 -0.16262835452E+03  0.16673366851E+03  0.00000000000E+00 0.  1.
          5    1    4    4  501    0 -0.53522496463E+01  0.75373009471E+02 -0.30658986114E+02  0.81652819684E+02  0.41800000000E+01 0. -1.
         -5    1    4    4    0  501 -0.26782170878E+02 -0.27910096935E+02 -0.10329648581E+03  0.11038068023E+03  0.41800000000E+01 0. -1.
</event>
<event>
11    1  0.8453735E-009  0.1774721E+03  0.7561462E-02  0.1071706E+00
         22   -1    0    0    0    0  0.00000000000E+00  0.00000000000E+00  0.12938017317E+04  0.12938017317E+04  0.00000000000E+00 0.  1.
         22   -1    0    0    0    0 -0.00000000000E+00 -0.00000000000E+00 -0.51809066015E+03  0.51809066015E+03  0.00000000000E+00 0. -1.
        -24    2    1    2    0    0 -0.97366063400E+02  0.78247935175E+02 -0.47932929504E+03  0.50378542847E+03  0.91871079224E+02 0.  0.
         25    2    1    2    0    0  0.11803158244E+03 -0.10751003524E+03  0.39072501287E+03  0.44022984327E+03  0.12508563902E+03 0.  0.
         24    2    1    2    0    0 -0.20665519040E+02  0.29262100063E+02  0.86431535376E+03  0.86787712016E+03  0.69902294509E+02 0.  0.
        -11    1    5    5    0    0 -0.34344049588E+02 -0.12868995860E+01  0.65512640358E+03  0.65602726659E+03  0.00000000000E+00 0.  1.
         12    1    5    5    0    0  0.13678530548E+02  0.30548999649E+02  0.20918895019E+03  0.21184985357E+03  0.00000000000E+00 0. -1.
         13    1    3    3    0    0 -0.79911462707E+02  0.37847536005E+02 -0.42382652191E+03  0.43295172771E+03  0.00000000000E+00 0. -1.
        -14    1    3    3    0    0 -0.17454600693E+02  0.40400399170E+02 -0.55502773124E+02  0.70833700757E+02  0.00000000000E+00 0.  1.
          5    1    4    4  501    0 -0.14110409149E+02  0.16105926424E+02  0.40908579900E+02  0.46362579973E+02  0.41800000000E+01 0.  1.
         -5    1    4    4    0  501  0.13214199159E+03 -0.12361596166E+03  0.34981643297E+03  0.39386726330E+03  0.41800000000E+01 0.  1.
</event>
<event>
11    1  0.8453735E-009  0.1419214E+03  0.7561462E-02  0.1105432E+00
         22   -1    0    0    0    0  0.00000000000E+00  0.00000000000E+00  0.30635700391E+03  0.30635700391E+03  0.00000000000E+00 0. -1.
         22   -1    0    0    0    0 -0.00000000000E+00 -0.00000000000E+00 -0.79228097589E+03  0.79228097589E+03  0.00000000000E+00 0.  1.
         24    2    1    2    0    0  0.13526821587E+02  0.44428175297E+02 -0.47579879556E+03  0.48561179130E+03  0.85308149263E+02 0.  0.
         25    2    1    2    0    0 -0.67705574859E+02 -0.81934318941E+02 -0.27953188076E+03  0.32416519813E+03  0.12509087030E+03 0.  0.
        -24    2    1    2    0    0  0.54178753272E+02  0.37506143644E+02  0.26940670434E+03  0.28886099037E+03  0.80738165064E+02 0.  0.
        -11    1    3    3    0    0  0.13602295786E+02  0.70032577890E+02 -0.36290790562E+03  0.36985366347E+03  0.00000000000E+00 0.  1.
         12    1    3    3    0    0 -0.75474199050E-01 -0.25604402593E+02 -0.11289088994E+03  0.11575812784E+03  0.00000000000E+00 0. -1.
         13    1    5    5    0    0  0.65467148184E+02  0.46547511567E+02  0.25864994595E+03  0.27083650578E+03  0.00000000000E+00 0. -1.
        -14    1    5    5    0    0 -0.11288394912E+02 -0.90413679232E+01  0.10756758386E+02  0.18024484586E+02  0.00000000000E+00 0.  1.
          5    1    4    4  501    0 -0.33869946818E+02 -0.11700154929E+02 -0.22999529416E+01  0.36150091374E+02  0.41800000000E+01 0.  1.
         -5    1    4    4    0  501 -0.33835628042E+02 -0.70234164012E+02 -0.27723192782E+03  0.28801510676E+03  0.41800000000E+01 0.  1.
</event>
<event>
11    1  0.8453735E-009  0.1480604E+03  0.7561462E-02  0.1098877E+00
         22   -1    0    0    0    0  0.00000000000E+00  0.00000000000E+00  0.77238247682E+03  0.77238247682E+03  0.00000000000E+00 0. -1.
         22   -1    0    0    0    0 -0.00000000000E+00 -0.00000000000E+00 -0.12144773112E+04  0.12144773112E+04  0.00000000000E+00 0. -1.
        -24    2    1    2    0    0  0.67501015546E+02 -0.14439464896E+02 -0.11263035710E+04  0.11312357796E+04  0.79810838072E+02 0.  0.
         25    2    1    2    0    0 -0.30710551784E+02 -0.58316983533E+02 -0.19346401047E+02  0.14270593478E+03  0.12508673802E+03 0.  0.
         24    2    1    2    0    0 -0.36790463762E+02  0.72756448429E+02  0.70355513762E+03  0.71291807364E+03  0.81334550094E+02 0.  0.
        -13    1    5    5    0    0 -0.42187027429E+02  0.13841233792E+02  0.15659688705E+03  0.16276949982E+03  0.00000000000E+00 0.  1.
         14    1    5    5    0    0  0.53965636672E+01  0.58915214637E+02  0.54695825057E+03  0.55014857382E+03  0.00000000000E+00 0. -1.
         11    1    3    3    0    0  0.55620316978E+02  0.74000820701E+01 -0.10375400374E+04  0.10390561631E+04  0.00000000000E+00 0. -1.
        -12    1    3    3    0    0  0.11880698569E+02 -0.21839546966E+02 -0.88763533615E+02  0.92179616565E+02  0.00000000000E+00 0.  1.
          5    1    4    4  501    0 -0.72828123915E+01  0.72415893808E+01  0.45887803248E+02  0.47208504107E+02  0.41800000000E+01 0. -1.
         -5    1    4    4    0  501 -0.23427739393E+02 -0.65558572913E+02 -0.65234204295E+02  0.95497430675E+02  0.41800000000E+01 0. -1.
</event>
<event>
11    1  0.8453735E-009  0.5058391E+03  0.7561462E-02  0.9380567E-01
         22   -1    0    0    0    0  0.00000000000E+00  0.00000000000E+00  0.31557629689E+03  0.31557629689E+03  0.00000000000E+00 0. -1.
         22   -1    0    0    0    0 -0.00000000000E+00 -0.00000000000E+00 -0.12312626789E+04  0.12312626789E+04  0.00000000000E+00 0. -1.
         24    2    1    2    0    0 -0.56590669472E+02  0.21863478251E+02 -0.11315659078E+03  0.15178197266E+03  0.80949599350E+02 0.  0.
         25    2    1    2    0    0  0.51668597574E+03  0.10564937916E+03 -0.72426991972E+03  0.90462129407E+03  0.12508629112E+03 0.  0.
        -24    2    1    2    0    0 -0.46009530627E+03 -0.12751285741E+03 -0.78259871525E+02  0.49043570908E+03  0.80345240064E+02 0.  0.
        -11    1    3    3    0    0 -0.61675607532E+02 -0.13963978718E+02 -0.84940415099E+02  0.10589498280E+03  0.00000000000E+00 0.  1.
         12    1    3    3    0    0  0.50849380601E+01  0.35827456969E+02 -0.28216175685E+02  0.45886989858E+02  0.00000000000E+00 0. -1.
         13    1    5    5    0    0 -0.44079814879E+03 -0.10814644031E+03 -0.86163070089E+02  0.46197698555E+03  0.00000000000E+00 0. -1.
        -14    1    5    5    0    0 -0.19297157479E+02 -0.19366417096E+02  0.79031985640E+01  0.28458723538E+02  0.00000000000E+00 0.  1.
          5    1    4    4  501    0  0.19436064980E+03  0.72478634030E+02 -0.37218060408E+03  0.42610455176E+03  0.41800000000E+01 0. -1.
         -5    1    4    4    0  501  0.32232532594E+03  0.33170745126E+02 -0.35208931564E+03  0.47851674230E+03  0.41800000000E+01 0. -1.
</event>
<event>
11    1  0.8453735E-009  0.1349710E+03  0.7561462E-02  0.1113308E+00
         22   -1    0    0    0    0  0.00000000000E+00  0.00000000000E+00  0.20443276888E+04  0.20443276888E+04  0.00000000000E+00 0.  1.
         22   -1    0    0    0    0 -0.00000000000E+00 -0.00000000000E+00 -0.16847651001E+03  0.16847651001E+03  0.00000000000E+00 0.  1.
         24    2    1    2    0    0 -0.33353371251E+02  0.37679032732E+02 -0.11895410500E+03  0.15141054695E+03  0.79012136717E+02 0.  0.
         25    2    1    2    0    0  0.23816301934E+02  0.13684572879E+02  0.95605206533E+02  0.15981435742E+03  0.12508313056E+03 0.  0.
        -24    2    1    2    0    0  0.95370693174E+01 -0.51363605611E+02  0.18992000773E+04  0.19015792945E+04  0.79458818856E+02 0.  0.
        -13    1    3    3    0    0 -0.23564862813E+02  0.58979815654E+02 -0.10854454153E+03  0.12576103892E+03  0.00000000000E+00 0.  1.
         14    1    3    3    0    0 -0.97885084388E+01 -0.21300782922E+02 -0.10409563477E+02  0.25649508033E+02  0.00000000000E+00 0. -1.
         11    1    5    5    0    0  0.18584561223E+02  0.67288086102E+01  0.13906505682E+03  0.14046263848E+03  0.00000000000E+00 0. -1.
        -12    1    5    5    0    0 -0.90474919054E+01 -0.58092414221E+02  0.17601350205E+04  0.17611166560E+04  0.00000000000E+00 0.  1.
          5    1    4    4  501    0  0.25687103400E+02 -0.52967231587E+02  0.59793972492E+02  0.84012775513E+02  0.41800000000E+01 0. -1.
         -5    1    4    4    0  501 -0.18708014659E+01  0.66651804465E+02  0.35811234040E+02  0.75801581910E+02  0.41800000000E+01 0. -1.
</event>
<event>
11    1  0.8453735E-009  0.4125263E+03  0.7561462E-02  0.9613505E-01
         22   -1    0    0    0    0  0.00000000000E+00  0.00000000000E+00  0.43992635866E+03  0.43992635866E+03  0.00000000000E+00 0. -1.
         22   -1    0    0    0    0 -0.00000000000E+00 -0.00000000000E+00 -0.82424612915E+03  0.82424612915E+03  0.00000000000E+00 0.  1.
         24    2    1    2    0    0  0.31115323533E+03 -0.11528595101E+03 -0.20535807231E+03  0.39859204838E+03  0.81218820539E+02 0.  0.
         25    2    1    2    0    0 -0.42188357824E+03  0.20909038620E+03 -0.37110605321E+03  0.61243126390E+03  0.12509119509E+03 0.  0.
        -24    2    1    2    0    0  0.11073034291E+03 -0.93804435190E+02  0.19214435503E+03  0.25314917552E+03  0.78131754081E+02 0.  0.
        -11    1    3    3    0    0  0.42487287391E+02  0.52123311043E+01 -0.65372981099E+01  0.43302127569E+02  0.00000000000E+00 0.  1.
         12    1    3    3    0    0  0.26866594794E+03 -0.12049828212E+03 -0.19882077420E+03  0.35528992081E+03  0.00000000000E+00 0. -1.
         11    1    5    5    0    0  0.99360828830E+02 -0.10791275151E+03  0.17186786942E+03  0.22595641346E+03  0.00000000000E+00 0. -1.
        -12    1    5    5    0    0  0.11369514076E+02  0.14108316323E+02  0.20276485613E+02  0.27192762063E+02  0.00000000000E+00 0.  1.
          5    1    4    4  501    0 -0.18281669469E+03  0.12755942940E+03 -0.24084551900E+03  0.32820327285E+03  0.41800000000E+01 0.  1.
         -5    1    4    4    0  501 -0.23906688355E+03  0.81530956800E+02 -0.13026053421E+03  0.28422799106E+03  0.41800000000E+01 0.  1.
</event>
<event>
11    1  0.8453735E-009  0.1331463E+03  0.7561462E-02  0.1115463E+00
         22   -1    0    0    0    0  0.00000000000E+00  0.00000000000E+00  0.40005123571E+02  0.40005123571E+02  0.00000000000E+00 0. -1.
         22   -1    0    0    0    0 -0.00000000000E+00 -0.00000000000E+00 -0.24664127928E+04  0.24664127928E+04  0.00000000000E+00 0.  1.
        -24    2    1    2    0    0  0.17416925434E+02 -0.37730130316E+02 -0.12407214507E+04  0.12441163511E+04  0.81907659377E+02 0.  0.
         25    2    1    2    0    0 -0.45679537878E+02  0.37535539257E+02 -0.11663034034E+04  0.11744815716E+04  0.12509115186E+03 0.  0.
         24    2    1    2    0    0  0.28262612444E+02  0.19459105896E+00 -0.19382815116E+02  0.87819993757E+02  0.80856939429E+02 0.  0.
        -13    1    5    5    0    0  0.13746287571E+02 -0.40316927294E+02 -0.85905710954E+01  0.43453572467E+02  0.00000000000E+00 0.  1.
         14    1    5    5    0    0  0.14516324873E+02  0.40511518353E+02 -0.10792244020E+02  0.44366421290E+02  0.00000000000E+00 0. -1.
         13    1    3    3    0    0 -0.12863915715E+02  0.50589274977E+01 -0.41337061602E+02  0.43586990454E+02  0.00000000000E+00 0. -1.
        -14    1    3    3    0    0  0.30280841149E+02 -0.42789057814E+02 -0.11993843891E+04  0.12005293606E+04  0.00000000000E+00 0.  1.
          5    1    4    4  501    0 -0.87535814321E+02  0.11111328201E+02 -0.78558638337E+03  0.79053742387E+03  0.41800000000E+01 0. -1.
         -5    1    4    4    0  501  0.41856276443E+02  0.26424211057E+02 -0.38071702006E+03  0.38394414772E+03  0.41800000000E+01 0. -1.
</event>
<event>
11    1  0.8453735E-009  0.1344303E+03  0.7561462E-02  0.1113942E+00
         22   -1    0    0    0    0  0.00000000000E+00  0.00000000000E+00  0.33339858393E+03  0.33339858393E+03  0.00000000000E+00 0. -1.
         22   -1    0    0    0    0 -0.00000000000E+00 -0.00000000000E+00 -0.65983067987E+03  0.65983067987E+03  0.00000000000E+00 0. -1.
         24    2    1    2    0    0 -0.17855546911E+00  0.48111962938E+01 -0.47693315919E+03  0.48369778618E+03  0.80468195784E+02 0.  0.
         25    2    1    2    0    0  0.36070613847E+02 -0.38304779949E+02 -0.14567256121E+03  0.19909029585E+03  0.12509238771E+03 0.  0.
        -24    2    1    2    0    0 -0.35892058378E+02  0.33493583656E+02  0.29617362446E+03  0.31044118176E+03  0.79024372848E+02 0.  0.
        -13    1    3    3    0    0  0.75043884398E+01 -0.19596367635E+02 -0.33517023220E+02  0.39543954227E+02  0.00000000000E+00 0.  1.
         14    1    3    3    0    0 -0.76829439089E+01  0.24407563929E+02 -0.44341613597E+03  0.44415383195E+03  0.00000000000E+00 0. -1.
         13    1    5    5    0    0 -0.31654871375E+02  0.51558843806E+02  0.27785925983E+03  0.28436967759E+03  0.00000000000E+00 0. -1.
        -14    1    5    5    0    0 -0.42371870025E+01 -0.18065260150E+02  0.18314364629E+02  0.26071504171E+02  0.00000000000E+00 0.  1.
          5    1    4    4  501    0  0.36789812154E+01 -0.70739467453E+02 -0.34778671590E+02  0.79023006497E+02  0.41800000000E+01 0. -1.
         -5    1    4    4    0  501  0.32391632632E+02  0.32434687503E+02 -0.11089388962E+03  0.12006728936E+03  0.41800000000E+01 0. -1.
</event>
<event>
11    1  0.8453735E-009  0.1302788E+03  0.7561462E-02  0.1118927E+00
         22   -1    0    0    0    0  0.00000000000E+00  0.00000000000E+00  0.13318869538E+03  0.13318869538E+03  0.00000000000E+00 0. -1.
         22   -1    0    0    0    0 -0.00000000000E+00 -0.00000000000E+00 -0.99157968475E+03  0.99157968475E+03  0.00000000000E+00 0. -1.
         24    2    1    2    0    0  0.11181393037E+01 -0.10750519150E+02 -0.78137332698E+03  0.78562347768E+03  0.80889731517E+02 0.  0.
         25    2    1    2    0    0  0.12461962814E+02 -0.23939414507E+02 -0.16899325766E+03  0.21198268833E+03  0.12509813320E+03 0.  0.
        -24    2    1    2    0    0 -0.13580102118E+02  0.34689933657E+02  0.91975595272E+02  0.12716221412E+03  0.79516714617E+02 0.  0.
        -11    1    3    3    0    0 -0.70814413662E+01  0.75099613779E+01 -0.11356595277E+02  0.15346614871E+02  0.00000000000E+00 0.  1.
         12    1    3    3    0    0  0.81995806699E+01 -0.18260480527E+02 -0.77001673170E+03  0.77027686280E+03  0.00000000000E+00 0. -1.
         11    1    5    5    0    0  0.11522098923E+02  0.28669031884E+01  0.85254034505E+02  0.86076874345E+02  0.00000000000E+00 0. -1.
        -12    1    5    5    0    0 -0.25102201041E+02  0.31823030468E+02  0.67215607665E+01  0.41085339775E+02  0.00000000000E+00 0.  1.
          5    1    4    4  501    0  0.43527687537E+02  0.27411954224E+02 -0.28058089938E+02  0.58743541157E+02  0.41800000000E+01 0. -1.
         -5    1    4    4    0  501 -0.31065724723E+02 -0.51351368732E+02 -0.14093516773E+03  0.15323914717E+03  0.41800000000E+01 0. -1.
</event>
<event>
11    1  0.8453735E-009  0.1874332E+03  0.7561462E-02  0.1063784E+00
         22   -1    0    0    0    0  0.00000000000E+00  0.00000000000E+00  0.42873819512E+03  0.42873819512E+03  0.00000000000E+00 0.  1.
         22   -1    0    0    0    0 -0.00000000000E+00 -0.00000000000E+00 -0.81119684388E+03  0.81119684388E+03  0.00000000000E+00 0.  1.
        -24    2    1    2    0    0 -0.12330349306E+03  0.49426264871E+02 -0.64088921661E+03  0.65949018402E+03  0.80880206460E+02 0.  0.
         25    2    1    2    0    0  0.19646562193E+03 -0.82550791168E+02 -0.49570854619E+02  0.25202326684E+03  0.12508030892E+03 0.  0.
         24    2    1    2    0    0 -0.73162128878E+02  0.33124526297E+02  0.30800142247E+03  0.32842158813E+03  0.80906933978E+02 0.  0.
        -13    1    5    5    0    0 -0.70459378163E+02  0.55680020878E+02  0.22214078940E+03  0.23960659217E+03  0.00000000000E+00 0.  1.
         14    1    5    5    0    0 -0.27027507150E+01 -0.22555494581E+02  0.85860633065E+02  0.88814995961E+02  0.00000000000E+00 0. -1.
         13    1    3    3    0    0 -0.44007191271E+02  0.42955334807E+02 -0.14873675079E+03  0.16094848464E+03  0.00000000000E+00 0. -1.
        -14    1    3    3    0    0 -0.79296301785E+02  0.64709300637E+01 -0.49215246582E+03  0.49854169938E+03  0.00000000000E+00 0.  1.
          5    1    4    4  501    0  0.65308717657E+02 -0.59301687367E+02  0.34098066435E+02  0.94668206179E+02  0.41800000000E+01 0. -1.
         -5    1    4    4    0  501  0.13115690428E+03 -0.23249103801E+02 -0.83668921053E+02  0.15735506067E+03  0.41800000000E+01 0. -1.
</event>
<event>
11    1  0.8453735E-009  0.1416183E+03  0.7561462E-02  0.1105765E+00
         22   -1    0    0    0    0  0.00000000000E+00  0.00000000000E+00  0.24138575376E+04  0.24138575376E+04  0.00000000000E+00 0. -1.
         22   -1    0    0    0    0 -0.00000000000E+00 -0.00000000000E+00 -0.43434786632E+03  0.43434786632E+03  0.00000000000E+00 0.  1.
         24    2    1    2    0    0  0.58180200471E+02  0.31764299432E+02 -0.41983746288E+03  0.43240466034E+03  0.79475710771E+02 0.  0.
         25    2    1    2    0    0 -0.77524460779E+02 -0.24237832606E+02  0.76922233304E+03  0.78354839323E+03  0.12509025678E+03 0.  0.
        -24    2    1    2    0    0  0.19344260308E+02 -0.75264668259E+01  0.16301248012E+04  0.16322523504E+04  0.80684694123E+02 0.  0.
        -13    1    3    3    0    0  0.13077606225E+02  0.49089302601E+02 -0.27691731808E+03  0.28153860209E+03  0.00000000000E+00 0.  1.
         14    1    3    3    0    0  0.45102594246E+02 -0.17325003170E+02 -0.14292014480E+03  0.15086605825E+03  0.00000000000E+00 0. -1.
         11    1    5    5    0    0  0.13092432134E+02 -0.43640331489E+02  0.10324516188E+04  0.10334564507E+04  0.00000000000E+00 0. -1.
        -12    1    5    5    0    0  0.62518281738E+01  0.36113864663E+02  0.59767318234E+03  0.59879589967E+03  0.00000000000E+00 0.  1.
          5    1    4    4  501    0 -0.31707101360E+02 -0.61067042548E+02  0.20549899358E+03  0.21675293014E+03  0.41800000000E+01 0.  1.
         -5    1    4    4    0  501 -0.45817359419E+02  0.36829209942E+02  0.56372333946E+03  0.56679546309E+03  0.41800000000E+01 0.  1.
</event>
<event>
11    1  0.8453735E-009  0.3408067E+03  0.7561462E-02  0.9842617E-01
         22   -1    0    0    0    0  0.00000000000E+00  0.00000000000E+00  0.32770572649E+03  0.32770572649E+03  0.00000000000E+00 0.  1.
         22   -1    0    0    0    0 -0.00000000000E+00 -0.00000000000E+00 -0.77627023439E+03  0.77627023439E+03  0.00000000000E+00 0.  1.
         24    2    1    2    0    0 -0.85126766105E+02  0.25715847296E+03 -0.27485366222E+03  0.39402535635E+03  0.79588939503E+02 0.  0.
         25    2    1    2    0    0  0.34421280174E+02 -0.44355130784E+03 -0.19004548222E+03  0.49968735483E+03  0.12509028760E+03 0.  0.
        -24    2    1    2    0    0  0.50705485931E+02  0.18639283488E+03  0.16334636538E+02  0.21026324969E+03  0.81427750915E+02 0.  0.
        -13    1    3    3    0    0 -0.26094376102E+01  0.10271635248E+03 -0.13655058947E+03  0.17089037924E+03  0.00000000000E+00 0.  1.
         14    1    3    3    0    0 -0.82517328495E+02  0.15444212048E+03 -0.13830307275E+03  0.22313497712E+03  0.00000000000E+00 0. -1.
         13    1    5    5    0    0  0.62488063040E+02  0.12481699206E+03  0.36728694790E+02  0.14433653921E+03  0.00000000000E+00 0. -1.
        -14    1    5    5    0    0 -0.11782577109E+02  0.61575842825E+02 -0.20394058252E+02  0.65926710481E+02  0.00000000000E+00 0.  1.
          5    1    4    4  501    0  0.16849024975E-01 -0.30718223642E+03 -0.70831919868E+02  0.31527061381E+03  0.41800000000E+01 0. -1.
         -5    1    4    4    0  501  0.34404431149E+02 -0.13636907142E+03 -0.11921356235E+03  0.18441674103E+03  0.41800000000E+01 0. -1.
</event>
<event>
11    1  0.8453735E-009  0.1465024E+03  0.7561462E-02  0.1100507E+00
         22   -1    0    0    0    0  0.00000000000E+00  0.00000000000E+00  0.51163405258E+03  0.51163405258E+03  0.00000000000E+00 0.  1.
         22   -1    0    0    0    0 -0.00000000000E+00 -0.00000000000E+00 -0.55305900167E+03  0.55305900167E+03  0.00000000000E+00 0. -1.
        -24    2    1    2    0    0 -0.85484223751E+01 -0.21795733568E+02 -0.49476402327E+03  0.50167975342E+03  0.79642995586E+02 0.  0.
         25    2    1    2    0    0  0.74801841238E+02  0.54155638007E+02  0.81955743631E+02  0.17576029157E+03  0.12508712004E+03 0.  0.
         24    2    1    2    0    0 -0.66253418863E+02 -0.32359904440E+02  0.37138333055E+03  0.38725300926E+03  0.81256606192E+02 0.  0.
        -13    1    5    5    0    0 -0.60307948358E+02  0.14585973190E+02  0.19508405914E+03  0.20471343234E+03  0.00000000000E+00 0.  1.
         14    1    5    5    0    0 -0.59454705050E+01 -0.46945877630E+02  0.17629927140E+03  0.18253957692E+03  0.00000000000E+00 0. -1.
         11    1    3    3    0    0 -0.37223480620E+02 -0.33589415694E+00 -0.37025971357E+03  0.37212626329E+03  0.00000000000E+00 0. -1.
        -12    1    3    3    0    0  0.28675058245E+02 -0.21459839411E+02 -0.12450430969E+03  0.12955349013E+03  0.00000000000E+00 0.  1.
          5    1    4    4  501    0  0.30426376356E+02  0.85840723496E+02  0.20404916440E+02  0.93424981688E+02  0.41800000000E+01 0.  1.
         -5    1    4    4    0  501  0.44375464882E+02 -0.31685085489E+02  0.61550827191E+02  0.82335309885E+02  0.41800000000E+01 0.  1.
</event>
<event>
11    1  0.8453735E-009  0.2119160E+03  0.7561462E-02  0.1046403E+00
         22   -1    0    0    0    0  0.00000000000E+00  0.00000000000E+00  0.69845586125E+03  0.69845586125E+03  0.00000000000E+00 0. -1.
         22   -1    0    0    0    0 -0.00000000000E+00 -0.00000000000E+00 -0.34863119081E+03  0.34863119081E+03  0.00000000000E+00 0.  1.
        -24    2    1    2    0    0  0.65062135773E+02 -0.15818192971E+03 -0.27203664605E+03  0.33158788632E+03  0.81804554669E+02 0.  0.
         25    2    1    2    0    0 -0.54970007237E+02  0.16250532204E+03  0.22085994057E+03  0.30635892391E+03  0.12508795116E+03 0.  0.
         24    2    1    2    0    0 -0.10092128536E+02 -0.43233923315E+01  0.40100137592E+03  0.40914024182E+03  0.80455523173E+02 0.  0.
        -11    1    5    5    0    0 -0.37258672354E+02  0.22070938458E+02  0.21829943171E+03  0.22255331243E+03  0.00000000000E+00 0.  1.
         12    1    5    5    0    0  0.27166543818E+02 -0.26394330789E+02  0.18270194421E+03  0.18658692939E+03  0.00000000000E+00 0. -1.
         13    1    3    3    0    0 -0.56481302115E+01  0.36221124587E+01 -0.37037995271E+02  0.37640857685E+02  0.00000000000E+00 0. -1.
        -14    1    3    3    0    0  0.70710265984E+02 -0.16180404217E+03 -0.23499865078E+03  0.29394702864E+03  0.00000000000E+00 0.  1.
          5    1    4    4  501    0  0.17305307245E+02 -0.11933646468E+02  0.37114296265E+02  0.42858242662E+02  0.41800000000E+01 0. -1.
         -5    1    4    4    0  501 -0.72275314482E+02  0.17443896851E+03  0.18374564430E+03  0.26350068125E+03  0.41800000000E+01 0. -1.
</event>
<event>
11    1  0.8453735E-009  0.2203210E+03  0.7561462E-02  0.1041017E+00
         22   -1    0    0    0    0  0.00000000000E+00  0.00000000000E+00  0.76384398684E+03  0.76384398684E+03  0.00000000000E+00 0.  1.
         22   -1    0    0    0    0 -0.00000000000E+00 -0.00000000000E+00 -0.39868322824E+03  0.39868322824E+03  0.00000000000E+00 0. -1.
         24    2    1    2    0    0  0.75778831195E+02  0.18453887025E+02 -0.27302579788E+03  0.29525731830E+03  0.80937139171E+02 0.  0.
         25    2    1    2    0    0 -0.24520894264E+03 -0.34274314856E+02  0.98518662562E+02  0.29437239580E+03  0.12508807429E+03 0.  0.
        -24    2    1    2    0    0  0.16943011144E+03  0.15820427831E+02  0.53966789393E+03  0.57289750098E+03  0.89516826879E+02 0.  0.
        -13    1    3    3    0    0  0.61404889315E+02 -0.22526950199E+02 -0.12618521837E+03  0.14212928359E+03  0.00000000000E+00 0.  1.
         14    1    3    3    0    0  0.14373941881E+02  0.40980837223E+02 -0.14684057951E+03  0.15312803471E+03  0.00000000000E+00 0. -1.
         11    1    5    5    0    0  0.41589317729E+02 -0.12403441735E+02  0.26610949613E+03  0.26962525966E+03  0.00000000000E+00 0. -1.
        -12    1    5    5    0    0  0.12784079371E+03  0.28223869566E+02  0.27355839779E+03  0.30327224132E+03  0.00000000000E+00 0.  1.
          5    1    4    4  501    0 -0.10492761084E+03 -0.54626139434E+02  0.96217560862E+02  0.15254215825E+03  0.41800000000E+01 0.  1.
         -5    1    4    4    0  501 -0.14028133180E+03  0.20351824578E+02  0.23011016991E+01  0.14183023755E+03  0.41800000000E+01 0.  1.
</event>
<event>
11    1  0.8453735E-009  0.1609428E+03  0.7561462E-02  0.1086194E+00
         22   -1    0    0    0    0  0.00000000000E+00  0.00000000000E+00  0.12082150182E+04  0.12082150182E+04  0.00000000000E+00 0. -1.
         22   -1    0    0    0    0 -0.00000000000E+00 -0.00000000000E+00 -0.12445238956E+04  0.12445238956E+04  0.00000000000E+00 0.  1.
        -24    2    1    2    0    0 -0.53041463746E+02 -0.87188011197E+02 -0.12124998389E+04  0.12204516977E+04  0.94505772757E+02 0.  0.
         25    2    1    2    0    0  0.66171130259E+02  0.30048842804E+02  0.17870895300E+03  0.22993088650E+03  0.12509904576E+03 0.  0.
         24    2    1    2    0    0 -0.13129666512E+02  0.57139168393E+02  0.99748200837E+03  0.10023563296E+04  0.79439169740E+02 0.  0.
        -13    1    5    5    0    0 -0.58351520189E+01 -0.14709456560E+02  0.58540751748E+02  0.60641872716E+02  0.00000000000E+00 0.  1.
         14    1    5    5    0    0 -0.72945144935E+01  0.71848624953E+02  0.93894125662E+03  0.94171445685E+03  0.00000000000E+00 0. -1.
         11    1    3    3    0    0 -0.65323294556E+02 -0.21166394012E+02 -0.48114627568E+03  0.48602148887E+03  0.00000000000E+00 0. -1.
        -12    1    3    3    0    0  0.12281830810E+02 -0.66021617185E+02 -0.73135356319E+03  0.73443020886E+03  0.00000000000E+00 0.  1.
          5    1    4    4  501    0  0.82887709740E+02 -0.13687848157E+02  0.15708364552E+03  0.17818662605E+03  0.41800000000E+01 0.  1.
         -5    1    4    4    0  501 -0.16716579481E+02  0.43736690961E+02  0.21625307480E+02  0.51744260449E+02  0.41800000000E+01 0.  1.
</event>
<event>
11    1  0.8453735E-009  0.1542988E+03  0.7561462E-02  0.1092565E+00
         22   -1    0    0    0    0  0.00000000000E+00  0.00000000000E+00  0.55908834043E+03  0.55908834043E+03  0.00000000000E+00 0.  1.
         22   -1    0    0    0    0 -0.00000000000E+00 -0.00000000000E+00 -0.19072111673E+03  0.19072111673E+03  0.00000000000E+00 0.  1.
        -24    2    1    2    0    0  0.36767480225E+02 -0.70485216543E+02 -0.12168317499E+03  0.16477271779E+03  0.77609536131E+02 0.  0.
         25    2    1    2    0    0 -0.11480850488E+03  0.28064866390E+02  0.16490082019E+03  0.23834598555E+03  0.12509156170E+03 0.  0.
         24    2    1    2    0    0  0.78041024654E+02  0.42420350153E+02  0.32514957850E+03  0.34669075382E+03  0.81131638421E+02 0.  0.
        -11    1    5    5    0    0  0.78209520221E+02  0.38333873742E+02  0.32944230727E+03  0.34076157170E+03  0.00000000000E+00 0.  1.
         12    1    5    5    0    0 -0.16849556697E+00  0.40864764117E+01 -0.42927287771E+01  0.59291821167E+01  0.00000000000E+00 0. -1.
         11    1    3    3    0    0  0.28730082716E+02 -0.87105957687E+02 -0.92690722668E+02  0.13040105669E+03  0.00000000000E+00 0. -1.
        -12    1    3    3    0    0  0.80373975091E+01  0.16620741144E+02 -0.28992452322E+02  0.34371661097E+02  0.00000000000E+00 0.  1.
          5    1    4    4  501    0 -0.63866814928E+02 -0.43539192921E+02  0.44693335082E+02  0.89384551070E+02  0.41800000000E+01 0. -1.
         -5    1    4    4    0  501 -0.50941689951E+02  0.71604059310E+02  0.12020748511E+03  0.14896143448E+03  0.41800000000E+01 0. -1.
</event>
<event>
11    1  0.8453735E-009  0.1362106E+03  0.7561462E-02  0.1111865E+00
         22   -1    0    0    0    0  0.00000000000E+00  0.00000000000E+00  0.76664023284E+03  0.76664023284E+03  0.00000000000E+00 0.  1.
         22   -1    0    0    0    0 -0.00000000000E+00 -0.00000000000E+00 -0.12566699414E+03  0.12566699414E+03  0.00000000000E+00 0.  1.
        -24    2    1    2    0    0 -0.54898247176E+02 -0.12920486606E+02 -0.80966854160E+02  0.13287228021E+03  0.88986824068E+02 0.  0.
         25    2    1    2    0    0  0.41083049140E+01  0.44484223807E+02  0.39346618156E+03  0.41528069869E+03  0.12508676324E+03 0.  0.
         24    2    1    2    0    0  0.50789942262E+02 -0.31563737201E+02  0.32847391130E+03  0.34415424807E+03  0.83493402863E+02 0.  0.
        -13    1    5    5    0    0  0.78912471351E+01 -0.10032294878E+02  0.26120372888E+03  0.26151540434E+03  0.00000000000E+00 0.  1.
         14    1    5    5    0    0  0.42898695127E+02 -0.21531442323E+02  0.67270182413E+02  0.82638843735E+02  0.00000000000E+00 0. -1.
         13    1    3    3    0    0 -0.53351216284E+01 -0.81393201062E+01 -0.82483835019E+02  0.83055975667E+02  0.00000000000E+00 0. -1.
        -14    1    3    3    0    0 -0.49563125547E+02 -0.47811664997E+01  0.15169808584E+01  0.49816304540E+02  0.00000000000E+00 0.  1.
          5    1    4    4  501    0 -0.46317189638E+02  0.41787966259E+01  0.62301033797E+02  0.77856506532E+02  0.41800000000E+01 0. -1.
         -5    1    4    4    0  501  0.50425494552E+02  0.40305427181E+02  0.33116514777E+03  0.33742419216E+03  0.41800000000E+01 0. -1.
</event>
<event>
11    1  0.8453735E-009  0.1300028E+03  0.7561462E-02  0.1119266E+00
         22   -1    0    0    0    0  0.00000000000E+00  0.00000000000E+00  0.16357341393E+03  0.16357341393E+03  0.00000000000E+00 0.  1.
         22   -1    0    0    0    0 -0.00000000000E+00 -0.00000000000E+00 -0.11065303569E+04  0.11065303569E+04  0.00000000000E+00 0. -1.
         24    2    1    2    0    0 -0.91321500793E+01 -0.17124504924E+02 -0.98108181251E+03  0.98430852881E+03  0.77234138839E+02 0.  0.
         25    2    1    2    0    0 -0.27454645413E+02  0.14796831130E+02 -0.69741023630E+02  0.14656704689E+03  0.12508151379E+03 0.  0.
        -24    2    1    2    0    0  0.36586795492E+02  0.23276737941E+01  0.10786589319E+03  0.13922819511E+03  0.80033916138E+02 0.  0.
        -13    1    3    3    0    0  0.17781335530E+02  0.52983586008E+01 -0.66051817412E+02  0.68608243532E+02  0.00000000000E+00 0.  1.
         14    1    3    3    0    0 -0.26913485610E+02 -0.22422863525E+02 -0.91502999510E+03  0.91570028527E+03  0.00000000000E+00 0. -1.
         13    1    5    5    0    0  0.40673956916E+02  0.13559150765E+02  0.14738565449E+02  0.45337034003E+02  0.00000000000E+00 0. -1.
        -14    1    5    5    0    0 -0.40871614239E+01 -0.11231476971E+02  0.93127327737E+02  0.93891161111E+02  0.00000000000E+00 0.  1.
          5    1    4    4  501    0 -0.49066496981E+02  0.24855163536E+02  0.16032972764E+02  0.57444137178E+02  0.41800000000E+01 0.  1.
         -5    1    4    4    0  501  0.21611851568E+02 -0.10058332406E+02 -0.85773996395E+02  0.89122909717E+02  0.41800000000E+01 0.  1.
</event>
<event>
11    1  0.8453735E-009  0.1538301E+03  0.7561462E-02  0.1093028E+00
         22   -1    0    0    0    0  0.00000000000E+00  0.00000000000E+00  0.30411895417E+04  0.30411895417E+04  0.00000000000E+00 0. -1.
         22   -1    0    0    0    0 -0.00000000000E+00 -0.00000000000E+00 -0.49387947541E+03  0.49387947541E+03  0.00000000000E+00 0.  1.
         24    2    1    2    0    0  0.66237337538E+02  0.59801401329E+02 -0.43697896900E+03  0.45518894736E+03  0.91009702566E+02 0.  0.
         25    2    1    2    0    0 -0.55644314868E+02 -0.78151784692E+02  0.84858792601E+02  0.17903115256E+03  0.12508855934E+03 0.  0.
        -24    2    1    2    0    0 -0.10593022670E+02  0.18350383363E+02  0.28994302426E+04  0.29008489171E+04  0.88202944483E+02 0.  0.
        -13    1    3    3    0    0  0.73211787095E+02  0.66038181194E+02 -0.43444947480E+03  0.44549674892E+03  0.00000000000E+00 0.  1.
         14    1    3    3    0    0 -0.69744495567E+01 -0.62367798651E+01 -0.25294942087E+01  0.96921984429E+01  0.00000000000E+00 0. -1.
         11    1    5    5    0    0  0.92568217019E+00  0.13199912650E+02  0.28427675945E+04  0.28427983909E+04  0.00000000000E+00 0. -1.
        -12    1    5    5    0    0 -0.11518704840E+02  0.51504707121E+01  0.56662648100E+02  0.58050526263E+02  0.00000000000E+00 0.  1.
          5    1    4    4  501    0  0.15974622233E+02 -0.73063966090E+01 -0.24403075100E+02  0.30357115496E+02  0.41800000000E+01 0. -1.
         -5    1    4    4    0  501 -0.71618937101E+02 -0.70845388083E+02  0.10926186770E+03  0.14867403707E+03  0.41800000000E+01 0. -1.
</event>
<event>
11    1  0.8453735E-009  0.1534907E+03  0.7561462E-02  0.1093364E+00
         22   -1    0    0    0    0  0.00000000000E+00  0.00000000000E+00  0.91825826525E+03  0.91825826525E+03  0.00000000000E+00 0.  1.
         22   -1    0    0    0    0 -0.00000000000E+00 -0.00000000000E+00 -0.77627598409E+03  0.77627598409E+03  0.00000000000E+00 0. -1.
         24    2    1    2    0    0 -0.76239744979E+01  0.36922718304E+02 -0.68200409912E+03  0.68783426285E+03  0.81024501372E+02 0.  0.
         25    2    1    2    0    0  0.96208744791E+02 -0.36458065976E+02 -0.11802654043E+02  0.16239485917E+03  0.12508986567E+03 0.  0.
        -24    2    1    2    0    0 -0.88584770293E+02 -0.46465232777E+00  0.83578903433E+03  0.84430512732E+03  0.80376368980E+02 0.  0.
        -13    1    3    3    0    0  0.18023761243E+02 -0.13483914441E+02 -0.77853095704E+02  0.81041819012E+02  0.00000000000E+00 0.  1.
         14    1    3    3    0    0 -0.25647735741E+02  0.50406632745E+02 -0.60415100341E+03  0.60679244384E+03  0.00000000000E+00 0. -1.
         11    1    5    5    0    0 -0.38902584123E+02 -0.21715853874E+02  0.15228872996E+03  0.15867213566E+03  0.00000000000E+00 0. -1.
        -12    1    5    5    0    0 -0.49682186170E+02  0.21251201546E+02  0.68350030437E+03  0.68563299167E+03  0.00000000000E+00 0.  1.
          5    1    4    4  501    0  0.48058248642E+02 -0.37946976915E+02  0.53306831565E+02  0.81293659107E+02  0.41800000000E+01 0. -1.
         -5    1    4    4    0  501  0.48150496149E+02  0.14889109384E+01 -0.65109485608E+02  0.81101200061E+02  0.41800000000E+01 0. -1.
</event>
<event>
11    1  0.8453735E-009  0.1673756E+03  0.7561462E-02  0.1080338E+00
         22   -1    0    0    0    0  0.00000000000E+00  0.00000000000E+00  0.21203909370E+04  0.21203909370E+04  0.00000000000E+00 0. -1.
         22   -1    0    0    0    0 -0.00000000000E+00 -0.00000000000E+00 -0.35296378936E+03  0.35296378936E+03  0.00000000000E+00 0.  1.
        -24    2    1    2    0    0 -0.75448776589E+02  0.21212174219E+02 -0.31634309292E+03  0.33477368070E+03  0.76537511232E+02 0.  0.
         25    2    1    2    0    0  0.83324611959E+02  0.90999818652E+02  0.28747382011E+03  0.33692261607E+03  0.12510673051E+03 0.  0.
         24    2    1    2    0    0 -0.78758353693E+01 -0.11221199287E+03  0.17962964205E+04  0.18016584296E+04  0.81478258961E+02 0.  0.
        -11    1    5    5    0    0 -0.84445114513E+01 -0.31988162718E+02  0.15939669078E+03  0.16279391069E+03  0.00000000000E+00 0.  1.
         12    1    5    5    0    0  0.56867608197E+00 -0.80223830154E+02  0.16368997297E+04  0.16388645189E+04  0.00000000000E+00 0. -1.
         13    1    3    3    0    0 -0.15106939251E+02  0.38554955609E+02 -0.17950750905E+03  0.18422174145E+03  0.00000000000E+00 0. -1.
        -14    1    3    3    0    0 -0.60341837339E+02 -0.17342781390E+02 -0.13683558387E+03  0.15055193925E+03  0.00000000000E+00 0.  1.
          5    1    4    4  501    0 -0.83630794688E+01  0.32394282348E+02  0.18277170904E+03  0.18585559085E+03  0.41800000000E+01 0.  1.
         -5    1    4    4    0  501  0.91687691428E+02  0.58605536304E+02  0.10470211108E+03  0.15106702522E+03  0.41800000000E+01 0.  1.
</event>
<event>
11    1  0.8453735E-009  0.1306584E+03  0.7561462E-02  0.1118463E+00
         22   -1    0    0    0    0  0.00000000000E+00  0.00000000000E+00  0.92860860611E+03  0.92860860611E+03  0.00000000000E+00 0. -1.
         22   -1    0    0    0    0 -0.00000000000E+00 -0.00000000000E+00 -0.95727259354E+02  0.95727259354E+02  0.00000000000E+00 0.  1.
         24    2    1    2    0    0 -0.19357215223E+02  0.70430657245E+01 -0.42754726179E+02  0.93029586028E+02  0.80013940723E+02 0.  0.
         25    2    1    2    0    0 -0.11342294704E+02  0.18032458275E+02  0.13506618301E+03  0.18531885415E+03  0.12508551758E+03 0.  0.
        -24    2    1    2    0    0  0.30699509927E+02 -0.25075523999E+02  0.74056988993E+03  0.74598742530E+03  0.80512328349E+02 0.  0.
        -13    1    3    3    0    0  0.49411345318E+01 -0.25025484595E+02 -0.46068259120E+02  0.52659037098E+02  0.00000000000E+00 0.  1.
         14    1    3    3    0    0 -0.24298349755E+02  0.32068550320E+02  0.33135329407E+01  0.40370548931E+02  0.00000000000E+00 0. -1.
         11    1    5    5    0    0  0.47381240267E+02 -0.38863167359E+02  0.64935780166E+03  0.65224296262E+03  0.00000000000E+00 0. -1.
        -12    1    5    5    0    0 -0.16681730340E+02  0.13787643360E+02  0.91212088268E+02  0.93744462678E+02  0.00000000000E+00 0.  1.
          5    1    4    4  501    0  0.24925401631E+02  0.25828838184E+02  0.14270926992E+03  0.14721349344E+03  0.41800000000E+01 0. -1.
         -5    1    4    4    0  501 -0.36267696335E+02 -0.77963799092E+01 -0.76430869113E+01  0.38105360707E+02  0.41800000000E+01 0. -1.
</event>
<event>
11    1  0.8453735E-009  0.1476344E+03  0.7561462E-02  0.1099321E+00
         22   -1    0    0    0    0  0.00000000000E+00  0.00000000000E+00  0.91452369545E+02  0.91452369545E+02  0.00000000000E+00 0.  1.
         22   -1    0    0    0    0 -0.00000000000E+00 -0.00000000000E+00 -0.21844146751E+04  0.21844146751E+04  0.00000000000E+00 0. -1.
         24    2    1    2    0    0 -0.75245476798E+02 -0.39334345987E+02 -0.17643090918E+04  0.17681739427E+04  0.80271089209E+02 0.  0.
         25    2    1    2    0    0  0.48131603004E+02 -0.12016768390E+02 -0.36503327604E+03  0.38904762340E+03  0.12509079392E+03 0.  0.
        -24    2    1    2    0    0  0.27113873794E+02  0.51351114377E+02  0.36380062238E+02  0.11864547857E+03  0.96856293331E+02 0.  0.
        -11    1    3    3    0    0  0.35767471868E+00  0.48720970657E+01 -0.62400314324E+01  0.79248503645E+01  0.00000000000E+00 0.  1.
         12    1    3    3    0    0 -0.75603151517E+02 -0.44206443053E+02 -0.17580690603E+04  0.17602490923E+04  0.00000000000E+00 0. -1.
         11    1    5    5    0    0  0.49915019801E+01 -0.16064488592E+02 -0.21345108883E+02  0.27177133016E+02  0.00000000000E+00 0. -1.
        -12    1    5    5    0    0  0.22122371814E+02  0.67415602968E+02  0.57725171121E+02  0.91468345559E+02  0.00000000000E+00 0.  1.
          5    1    4    4  501    0 -0.10836977858E+01  0.50136698660E+02 -0.19508362045E+03  0.20146948732E+03  0.41800000000E+01 0.  1.
         -5    1    4    4    0  501  0.49215300789E+02 -0.62153467050E+02 -0.16994965560E+03  0.18757813608E+03  0.41800000000E+01 0.  1.
</event>
<event>
11    1  0.8453735E-009  0.1369578E+03  0.7561462E-02  0.1111004E+00
         22   -1    0    0    0    0  0.00000000000E+00  0.00000000000E+00  0.96749392279E+03  0.96749392279E+03  0.00000000000E+00 0. -1.
         22   -1    0    0    0    0 -0.00000000000E+00 -0.00000000000E+00 -0.15353324028E+03  0.15353324028E+03  0.00000000000E+00 0.  1.
         24    2    1    2    0    0 -0.47483718828E+02 -0.30492884218E+02 -0.12448099750E+03  0.14995457053E+03  0.61695501800E+02 0.  0.
         25    2    1    2    0    0  0.43146842444E+02  0.56154491706E+01  0.29713743855E+03  0.32531769869E+03  0.12509102449E+03 0.  0.
        -24    2    1    2    0    0  0.43368763844E+01  0.24877435047E+02  0.64130424146E+03  0.64575489386E+03  0.71348143397E+02 0.  0.
        -11    1    3    3    0    0 -0.53139512085E+02 -0.28174773322E+02 -0.12901349247E+03  0.14234502743E+03  0.00000000000E+00 0.  1.
         12    1    3    3    0    0  0.56557932567E+01 -0.23181108957E+01  0.45324949679E+01  0.76095430954E+01  0.00000000000E+00 0. -1.
         13    1    5    5    0    0  0.12544220882E+02 -0.18823912083E+02  0.38173466368E+03  0.38240430253E+03  0.00000000000E+00 0. -1.
        -14    1    5    5    0    0 -0.82073444980E+01  0.43701347130E+02  0.25956957778E+03  0.26335059133E+03  0.00000000000E+00 0.  1.
          5    1    4    4  501    0  0.14252967565E+01  0.40408203453E+02  0.24996557862E+03  0.25324912097E+03  0.41800000000E+01 0.  1.
         -5    1    4    4    0  501  0.41721545687E+02 -0.34792754282E+02  0.47171859934E+02  0.72068577721E+02  0.41800000000E+01 0.  1.
</event>
<event>
11    1  0.8453735E-009  0.1306625E+03  0.7561462E-02  0.1118458E+00
         22   -1    0    0    0    0  0.00000000000E+00  0.00000000000E+00  0.12756989257E+03  0.12756989257E+03  0.00000000000E+00 0. -1.
         22   -1    0    0    0    0 -0.00000000000E+00 -0.00000000000E+00 -0.57118645923E+03  0.57118645923E+03  0.00000000000E+00 0.  1.
         24    2    1    2    0    0  0.13598651366E+02 -0.35231559106E+02 -0.45293798229E+03  0.46201306541E+03  0.82928105814E+02 0.  0.
         25    2    1    2    0    0 -0.15263652697E+02  0.34359755992E+02 -0.46702710454E+02  0.13871783921E+03  0.12509166170E+03 0.  0.
        -24    2    1    2    0    0  0.16650013315E+01  0.87180311393E+00  0.56024126090E+02  0.98025447176E+02  0.80416125993E+02 0.  0.
        -11    1    3    3    0    0 -0.72708687748E+00 -0.25424899098E+02 -0.43903569056E+03  0.43977186329E+03  0.00000000000E+00 0.  1.
         12    1    3    3    0    0  0.14325738243E+02 -0.98066600082E+01 -0.13902291727E+02  0.22241202126E+02  0.00000000000E+00 0. -1.
         13    1    5    5    0    0 -0.28207950734E+01  0.25225931161E+02  0.66467689456E+02  0.71149548343E+02  0.00000000000E+00 0. -1.
        -14    1    5    5    0    0  0.44857964050E+01 -0.24354128047E+02 -0.10443563366E+02  0.26875898833E+02  0.00000000000E+00 0.  1.
          5    1    4    4  501    0  0.15948340721E+02 -0.25744418471E+02 -0.62029914515E+02  0.69154228713E+02  0.41800000000E+01 0. -1.
         -5    1    4    4    0  501 -0.31211993418E+02  0.60104174463E+02  0.15327204062E+02  0.69563610497E+02  0.41800000000E+01 0. -1.
</event>
<event>
11    1  0.8453735E-009  0.2056340E+03  0.7561462E-02  0.1050610E+00
         22   -1    0    0    0    0  0.00000000000E+00  0.00000000000E+00  0.59505080033E+03  0.59505080033E+03  0.00000000000E+00 0.  1.
         22   -1    0    0    0    0 -0.00000000000E+00 -0.00000000000E+00 -0.16698712047E+03  0.16698712047E+03  0.00000000000E+00 0.  1.
        -24    2    1    2    0    0  0.73090142112E+02  0.12723534646E+03 -0.17023741202E+02  0.16844003181E+03  0.80939695373E+02 0.  0.
         25    2    1    2    0    0 -0.14702325140E+03 -0.18005594492E+03  0.25136304491E+03  0.36450918651E+03  0.12509031516E+03 0.  0.
         24    2    1    2    0    0  0.73933109290E+02  0.52820598462E+02  0.19372437615E+03  0.22908870248E+03  0.81831408509E+02 0.  0.
        -13    1    5    5    0    0  0.88557618329E+02  0.27565788692E+02  0.15444907340E+03  0.18015782177E+03  0.00000000000E+00 0.  1.
         14    1    5    5    0    0 -0.14624509039E+02  0.25254809770E+02  0.39275302749E+02  0.48930880711E+02  0.00000000000E+00 0. -1.
         11    1    3    3    0    0 -0.16614812898E+02  0.98224519299E+01 -0.62534658214E+01  0.20288873905E+02  0.00000000000E+00 0. -1.
        -12    1    3    3    0    0  0.89704955010E+02  0.11741289453E+03 -0.10770275381E+02  0.14815115790E+03  0.00000000000E+00 0.  1.
          5    1    4    4  501    0 -0.61872473083E+02 -0.70614645832E+02  0.22103241099E+02  0.96543548715E+02  0.41800000000E+01 0. -1.
         -5    1    4    4    0  501 -0.85150778319E+02 -0.10944129909E+03  0.22925980381E+03  0.26796563779E+03  0.41800000000E+01 0. -1.
</event>
<event>
11    1  0.8453735E-009  0.1310933E+03  0.7561462E-02  0.1117933E+00
         22   -1    0    0    0    0  0.00000000000E+00  0.00000000000E+00  0.29762330038E+03  0.29762330038E+03  0.00000000000E+00 0. -1.
         22   -1    0    0    0    0 -0.00000000000E+00 -0.00000000000E+00 -0.14801992302E+04  0.14801992302E+04  0.00000000000E+00 0.  1.
         24    2    1    2    0    0 -0.19589107344E+02 -0.34244176988E+02 -0.14033176523E+04  0.14061080639E+04  0.79265738168E+02 0.  0.
         25    2    1    2    0    0 -0.97341747162E+01  0.37611651251E+02 -0.43185654402E+01  0.13105900449E+03  0.12509365365E+03 0.  0.
        -24    2    1    2    0    0  0.29323282060E+02 -0.33674742636E+01  0.22506028792E+03  0.24065546222E+03  0.79948255402E+02 0.  0.
        -13    1    3    3    0    0 -0.37035671669E+02 -0.25899525111E+02 -0.13113730224E+04  0.13121515272E+04  0.00000000000E+00 0.  1.
         14    1    3    3    0    0  0.17446564326E+02 -0.83446518768E+01 -0.91944629913E+02  0.93956536716E+02  0.00000000000E+00 0. -1.
         13    1    5    5    0    0  0.11725075403E+02  0.10376444317E+02  0.21598617103E+03  0.21655293594E+03  0.00000000000E+00 0. -1.
        -14    1    5    5    0    0  0.17598206656E+02 -0.13743918581E+02  0.90741168958E+01  0.24102526277E+02  0.00000000000E+00 0.  1.
          5    1    4    4  501    0  0.51649660166E+02 -0.49146500327E+01 -0.17900719368E+02  0.55043158831E+02  0.41800000000E+01 0.  1.
         -5    1    4    4    0  501 -0.61383834883E+02  0.42526301284E+02  0.13582153928E+02  0.76015845658E+02  0.41800000000E+01 0.  1.
</event>
<event>
11    1  0.8453735E-009  0.1998506E+03  0.7561462E-02  0.1054629E+00
         22   -1    0    0    0    0  0.00000000000E+00  0.00000000000E+00  0.47709671410E+03  0.47709671410E+03  0.00000000000E+00 0.  1.
         22   -1    0    0    0    0 -0.00000000000E+00 -0.00000000000E+00 -0.20698323094E+04  0.20698323094E+04  0.00000000000E+00 0.  1.
        -24    2    1    2    0    0  0.71567749317E+02  0.41515747234E+02 -0.19109780275E+04  0.19140255232E+04  0.69362681875E+02 0.  0.
         25    2    1    2    0    0  0.91208360091E+02 -0.11517096990E+02 -0.94025966517E+02  0.18149134494E+03  0.12508643985E+03 0.  0.
         24    2    1    2    0    0 -0.16277610941E+03 -0.29998650243E+02  0.41226839875E+03  0.45141215538E+03  0.80073220243E+02 0.  0.
        -11    1    5    5    0    0 -0.15960025425E+03 -0.14100086992E+02  0.40055472847E+03  0.43141064441E+03  0.00000000000E+00 0.  1.
         12    1    5    5    0    0 -0.31758551597E+01 -0.15898563251E+02  0.11713670280E+02  0.20001510964E+02  0.00000000000E+00 0. -1.
         11    1    3    3    0    0  0.31518846574E+02  0.55814101946E+02 -0.99662333063E+03  0.99868248949E+03  0.00000000000E+00 0. -1.
        -12    1    3    3    0    0  0.40048902742E+02 -0.14298354712E+02 -0.91435469692E+03  0.91534303369E+03  0.00000000000E+00 0.  1.
          5    1    4    4  501    0  0.10502095321E+03  0.31570161715E+02 -0.64318928128E+02  0.12720248677E+03  0.41800000000E+01 0. -1.
         -5    1    4    4    0  501 -0.13812593122E+02 -0.43087258705E+02 -0.29707038390E+02  0.54288858170E+02  0.41800000000E+01 0. -1.
</event>
<event>
11    1  0.8453735E-009  0.1481302E+03  0.7561462E-02  0.1098805E+00
         22   -1    0    0    0    0  0.00000000000E+00  0.00000000000E+00  0.22864460729E+03  0.22864460729E+03  0.00000000000E+00 0. -1.
         22   -1    0    0    0    0 -0.00000000000E+00 -0.00000000000E+00 -0.13586838671E+04  0.13586838671E+04  0.00000000000E+00 0.  1.
        -24    2    1    2    0    0 -0.77730876548E+02  0.49679809535E+01 -0.12393174567E+04  0.12445950604E+04  0.83918626318E+02 0.  0.
         25    2    1    2    0    0  0.12350571947E+03 -0.32800045006E+02 -0.21554896001E+02  0.18007980465E+03  0.12503846132E+03 0.  0.
         24    2    1    2    0    0 -0.45774842918E+02  0.27832064052E+02  0.13083309296E+03  0.16265360929E+03  0.80429710732E+02 0.  0.
        -11    1    5    5    0    0 -0.66972060640E+01 -0.15002417330E+02 -0.30903503337E+01  0.16717516562E+02  0.00000000000E+00 0.  1.
         12    1    5    5    0    0 -0.39077636854E+02  0.42834481382E+02  0.13392344330E+03  0.14593609273E+03  0.00000000000E+00 0. -1.
         13    1    3    3    0    0 -0.20080030384E+02 -0.26789253115E+01 -0.51299513609E+02  0.55154549745E+02  0.00000000000E+00 0. -1.
        -14    1    3    3    0    0 -0.57650846163E+02  0.76469062649E+01 -0.11880179431E+04  0.11894405107E+04  0.00000000000E+00 0.  1.
          5    1    4    4  501    0  0.10974110960E+03 -0.18589386626E+02  0.37604933935E+02  0.11755968649E+03  0.41800000000E+01 0. -1.
         -5    1    4    4    0  501  0.13764609861E+02 -0.14210658380E+02 -0.59159829935E+02  0.62520118156E+02  0.41800000000E+01 0. -1.
</event>
<event>
11    1  0.8453735E-009  0.1442740E+03  0.7561462E-02  0.1102878E+00
         22   -1    0    0    0    0  0.00000000000E+00  0.00000000000E+00  0.46150598139E+03  0.46150598139E+03  0.00000000000E+00 0.  1.
         22   -1    0    0    0    0 -0.00000000000E+00 -0.00000000000E+00 -0.68494837286E+03  0.68494837286E+03  0.00000000000E+00 0. -1.
         24    2    1    2    0    0 -0.15558015862E+02 -0.22402728502E+02 -0.64145699074E+03  0.64706031352E+03  0.80473873133E+02 0.  0.
         25    2    1    2    0    0  0.23136500358E+02 -0.54253306815E+02  0.12726872280E+03  0.18794439880E+03  0.12508817005E+03 0.  0.
        -24    2    1    2    0    0 -0.75784844959E+01  0.76656035317E+02  0.29074587647E+03  0.31144964194E+03  0.80833987896E+02 0.  0.
        -11    1    3    3    0    0  0.55036995968E+01 -0.40555159543E+02 -0.17285220062E+03  0.17763134558E+03  0.00000000000E+00 0.  1.
         12    1    3    3    0    0 -0.21061715459E+02  0.18152431041E+02 -0.46860479012E+03  0.46942896794E+03  0.00000000000E+00 0. -1.
         11    1    5    5    0    0  0.33373812386E+00  0.62494493692E+01 -0.45728774750E+01  0.77510132857E+01  0.00000000000E+00 0. -1.
        -12    1    5    5    0    0 -0.79122226198E+01  0.70406585948E+02  0.29531875395E+03  0.30369862865E+03  0.00000000000E+00 0.  1.
          5    1    4    4  501    0  0.46337824876E+02 -0.86079854882E+02  0.80889706784E+02  0.12695492308E+03  0.41800000000E+01 0. -1.
         -5    1    4    4    0  501 -0.23201324518E+02  0.31826548067E+02  0.46379016020E+02  0.60989475717E+02  0.41800000000E+01 0. -1.
</event>
<event>
11    1  0.8453735E-009  0.1741391E+03  0.7561462E-02  0.1074485E+00
         22   -1    0    0    0    0  0.00000000000E+00  0.00000000000E+00  0.16454254306E+03  0.16454254306E+03  0.00000000000E+00 0.  1.
         22   -1    0    0    0    0 -0.00000000000E+00 -0.00000000000E+00 -0.19530715215E+04  0.19530715215E+04  0.00000000000E+00 0.  1.
         24    2    1    2    0    0 -0.10363964413E+03  0.80404453542E+02 -0.15684203836E+04  0.15759565439E+04  0.80563494080E+02 0.  0.
         25    2    1    2    0    0  0.53158686177E+02 -0.62302315153E+02 -0.34954680619E+03  0.38018061503E+03  0.12508759308E+03 0.  0.
        -24    2    1    2    0    0  0.50480957957E+02 -0.18102138389E+02  0.12943821136E+03  0.16147690563E+03  0.80277804903E+02 0.  0.
        -13    1    3    3    0    0 -0.85132405313E+01  0.53843171159E+02 -0.48993947684E+03  0.49296273014E+03  0.00000000000E+00 0.  1.
         14    1    3    3    0    0 -0.95126403603E+02  0.26561282384E+02 -0.10784809068E+04  0.10829938138E+04  0.00000000000E+00 0. -1.
         13    1    5    5    0    0  0.70729482643E+01 -0.44903055260E+02  0.64088874827E+02  0.78572863289E+02  0.00000000000E+00 0. -1.
        -14    1    5    5    0    0  0.43408009693E+02  0.26800916871E+02  0.65349336531E+02  0.82904042336E+02  0.00000000000E+00 0.  1.
          5    1    4    4  501    0  0.28430767139E+02  0.11983135573E+02 -0.25703374481E+03  0.25891257681E+03  0.41800000000E+01 0.  1.
         -5    1    4    4    0  501  0.24727919038E+02 -0.74285450726E+02 -0.92513061377E+02  0.12126803823E+03  0.41800000000E+01 0.  1.
</event>
<event>
11    1  0.8453735E-009  0.1705485E+03  0.7561462E-02  0.1077555E+00
         22   -1    0    0    0    0  0.00000000000E+00  0.00000000000E+00  0.32780403911E+03  0.32780403911E+03  0.00000000000E+00 0. -1.
         22   -1    0    0    0    0 -0.00000000000E+00 -0.00000000000E+00 -0.66658078768E+03  0.66658078768E+03  0.00000000000E+00 0.  1.
        -24    2    1    2    0    0  0.10554404401E+03  0.39907928798E+02 -0.54234014930E+03  0.55922421834E+03  0.76594391636E+02 0.  0.
         25    2    1    2    0    0 -0.14615232812E+03 -0.32736905626E+02 -0.17923599091E+02  0.19596526616E+03  0.12509565193E+03 0.  0.
         24    2    1    2    0    0  0.40608284112E+02 -0.71710231724E+01  0.22148699982E+03  0.23919534229E+03  0.80358349741E+02 0.  0.
        -11    1    5    5    0    0  0.10645782231E+02  0.35947310138E+02  0.10237941472E+03  0.10902791543E+03  0.00000000000E+00 0.  1.
         12    1    5    5    0    0  0.29962501881E+02 -0.43118333311E+02  0.11910758510E+03  0.13016742686E+03  0.00000000000E+00 0. -1.
         11    1    3    3    0    0  0.44131959872E+01  0.93450097004E+01 -0.21519577924E+03  0.21544379524E+03  0.00000000000E+00 0. -1.
        -12    1    3    3    0    0  0.10113084802E+03  0.30562919098E+02 -0.32714437006E+03  0.34378042310E+03  0.00000000000E+00 0.  1.
          5    1    4    4  501    0 -0.61694515403E+02 -0.14958355780E+02  0.54071264234E+02  0.83493350959E+02  0.41800000000E+01 0. -1.
         -5    1    4    4    0  501 -0.84457812715E+02 -0.17778549846E+02 -0.71994863325E+02  0.11247191520E+03  0.41800000000E+01 0. -1.
</event>
<event>
11    1  0.8453735E-009  0.1756240E+03  0.7561462E-02  0.1073239E+00
         22   -1    0    0    0    0  0.00000000000E+00  0.00000000000E+00  0.11244538161E+03  0.11244538161E+03  0.00000000000E+00 0. -1.
         22   -1    0    0    0    0 -0.00000000000E+00 -0.00000000000E+00 -0.72966340902E+03  0.72966340902E+03  0.00000000000E+00 0. -1.
         24    2    1    2    0    0  0.10133378696E+02 -0.10536655497E+03 -0.34183718087E+03  0.36433606162E+03  0.68434722892E+02 0.  0.
         25    2    1    2    0    0  0.19383481726E+01  0.18278636060E+03 -0.28482676505E+03  0.36081625347E+03  0.12508985517E+03 0.  0.
        -24    2    1    2    0    0 -0.12071726868E+02 -0.77419805630E+02  0.94459185146E+01  0.11695647553E+03  0.86313607844E+02 0.  0.
        -13    1    3    3    0    0  0.16913064513E+02  0.32334622258E+01 -0.44669663150E+02  0.47873644473E+02  0.00000000000E+00 0.  1.
         14    1    3    3    0    0 -0.67796858176E+01 -0.10860001720E+03 -0.29716751772E+03  0.31646241715E+03  0.00000000000E+00 0. -1.
         13    1    5    5    0    0 -0.43333879478E+02 -0.72942464277E+02  0.95134839554E+01  0.85375257436E+02  0.00000000000E+00 0. -1.
        -14    1    5    5    0    0  0.31262152609E+02 -0.44773413530E+01 -0.67565440795E-01  0.31581218096E+02  0.00000000000E+00 0.  1.
          5    1    4    4  501    0 -0.48288972088E+02  0.60353869812E+02 -0.52894631307E+02  0.93753553787E+02  0.41800000000E+01 0. -1.
         -5    1    4    4    0  501  0.50227320260E+02  0.12243249079E+03 -0.23193213374E+03  0.26706269969E+03  0.41800000000E+01 0. -1.
</event>
<event>
11    1  0.8453735E-009  0.2654830E+03  0.7561462E-02  0.1015960E+00
         22   -1    0    0    0    0  0.00000000000E+00  0.00000000000E+00  0.35893151246E+03  0.35893151246E+03  0.00000000000E+00 0.  1.
         22   -1    0    0    0    0 -0.00000000000E+00 -0.00000000000E+00 -0.63760046072E+03  0.63760046072E+03  0.00000000000E+00 0.  1.
         24    2    1    2    0    0  0.15782650025E+01  0.12814604144E+03 -0.38468855880E+03  0.41305015860E+03  0.78747999275E+02 0.  0.
         25    2    1    2    0    0 -0.19233868093E+03 -0.22660198562E+03 -0.17700614975E+02  0.32296040324E+03  0.12508989655E+03 0.  0.
        -24    2    1    2    0    0  0.19076041593E+03  0.98455944176E+02  0.12372022551E+03  0.26052141135E+03  0.80508399188E+02 0.  0.
        -11    1    3    3    0    0  0.55590838967E+01  0.13815996558E+03 -0.33914572250E+03  0.36624977896E+03  0.00000000000E+00 0.  1.
         12    1    3    3    0    0 -0.39808188942E+01 -0.10013924136E+02 -0.45542836299E+02  0.46800379633E+02  0.00000000000E+00 0. -1.
         11    1    5    5    0    0  0.11008941436E+02  0.35198405913E+02  0.85291257844E+01  0.37853276701E+02  0.00000000000E+00 0. -1.
        -12    1    5    5    0    0  0.17975147450E+03  0.63257538263E+02  0.11519109973E+03  0.22266813465E+03  0.00000000000E+00 0.  1.
          5    1    4    4  501    0 -0.18661046460E+03 -0.15904219702E+03  0.18616798658E+02  0.24593076978E+03  0.41800000000E+01 0. -1.
         -5    1    4    4    0  501 -0.57282163329E+01 -0.67559788598E+02 -0.36317413633E+02  0.77029633459E+02  0.41800000000E+01 0. -1.
</event>
<event>
11    1  0.8453735E-009  0.5871653E+03  0.7561462E-02  0.9217405E-01
         22   -1    0    0    0    0  0.00000000000E+00  0.00000000000E+00  0.36117662093E+03  0.36117662093E+03  0.00000000000E+00 0.  1.
         22   -1    0    0    0    0 -0.00000000000E+00 -0.00000000000E+00 -0.23636900719E+04  0.23636900719E+04  0.00000000000E+00 0. -1.
         24    2    1    2    0    0 -0.67547254575E+02  0.51714026110E+02 -0.13522895578E+04  0.13573192514E+04  0.79947044953E+02 0.  0.
         25    2    1    2    0    0  0.50395693504E+03 -0.33728689033E+03 -0.14252573367E+03  0.63537165740E+03  0.12509404265E+03 0.  0.
        -24    2    1    2    0    0 -0.43640968046E+03  0.28557286422E+03 -0.50769815952E+03  0.73217578406E+03  0.79490172983E+02 0.  0.
        -11    1    3    3    0    0  0.11268137211E+02  0.34081690940E+02 -0.39306795538E+03  0.39470362314E+03  0.00000000000E+00 0.  1.
         12    1    3    3    0    0 -0.78815391786E+02  0.17632335170E+02 -0.95922160244E+03  0.96261562828E+03  0.00000000000E+00 0. -1.
         13    1    5    5    0    0 -0.16092889714E+03  0.84869835736E+02 -0.13115823847E+03  0.22428437858E+03  0.00000000000E+00 0. -1.
        -14    1    5    5    0    0 -0.27548078332E+03  0.20070302848E+03 -0.37653992105E+03  0.50789140548E+03  0.00000000000E+00 0.  1.
          5    1    4    4  501    0  0.27702371012E+03 -0.12521291027E+03 -0.10879314583E+03  0.32291458599E+03  0.41800000000E+01 0.  1.
         -5    1    4    4    0  501  0.22693322492E+03 -0.21207398006E+03 -0.33732587844E+02  0.31245707141E+03  0.41800000000E+01 0.  1.
</event>
<event>
11    1  0.8453735E-009  0.1337577E+03  0.7561462E-02  0.1114736E+00
         22   -1    0    0    0    0  0.00000000000E+00  0.00000000000E+00  0.11922024285E+03  0.11922024285E+03  0.00000000000E+00 0.  1.
         22   -1    0    0    0    0 -0.00000000000E+00 -0.00000000000E+00 -0.90737914314E+03  0.90737914314E+03  0.00000000000E+00 0. -1.
        -24    2    1    2    0    0 -0.21656901947E+02  0.41740891419E+02 -0.68239445834E+03  0.68873152861E+03  0.80483528167E+02 0.  0.
         25    2    1    2    0    0  0.61105472598E+02 -0.22098371707E+02 -0.17444299494E+03  0.22427638511E+03  0.12508925461E+03 0.  0.
         24    2    1    2    0    0 -0.39448570651E+02 -0.19642519712E+02  0.68678552992E+02  0.11359147228E+03  0.79020634176E+02 0.  0.
        -11    1    5    5    0    0 -0.40657527514E+02 -0.61607804912E+01  0.83770145407E+02  0.93318953173E+02  0.00000000000E+00 0.  1.
         12    1    5    5    0    0  0.12089568634E+01 -0.13481739220E+02 -0.15091592415E+02  0.20272519102E+02  0.00000000000E+00 0. -1.
         13    1    3    3    0    0 -0.34781282876E+02  0.13675035756E+02 -0.59192751565E+03  0.59310616927E+03  0.00000000000E+00 0. -1.
        -14    1    3    3    0    0  0.13124380929E+02  0.28065855663E+02 -0.90466942687E+02  0.95625359335E+02  0.00000000000E+00 0.  1.
          5    1    4    4  501    0  0.45201675932E+01  0.38761219092E+02 -0.10818249120E+02  0.40710820853E+02  0.41800000000E+01 0. -1.
         -5    1    4    4    0  501  0.56585305004E+02 -0.60859590799E+02 -0.16362474582E+03  0.18356556426E+03  0.41800000000E+01 0. -1.
</event>
<event>
11    1  0.8453735E-009  0.2675648E+03  0.7561462E-02  0.1014937E+00
         22   -1    0    0    0    0  0.00000000000E+00  0.00000000000E+00  0.16258668770E+03  0.16258668770E+03  0.00000000000E+00 0.  1.
         22   -1    0    0    0    0 -0.00000000000E+00 -0.00000000000E+00 -0.15094482252E+04  0.15094482252E+04  0.00000000000E+00 0. -1.
        -24    2    1    2    0    0  0.40827968170E+02  0.30773689944E+02 -0.87872623126E+03  0.88360068362E+03  0.77307409799E+02 0.  0.
         25    2    1    2    0    0 -0.26831511234E+03 -0.43887453235E+01 -0.45895019478E+03  0.54616386595E+03  0.12508967416E+03 0.  0.
         24    2    1    2    0    0  0.22748714417E+03 -0.26384944621E+02 -0.91851114713E+01  0.24227036335E+03  0.78511124190E+02 0.  0.
        -13    1    5    5    0    0  0.18535348216E+03 -0.41074006854E+02  0.16872512011E+02  0.19059818743E+03  0.00000000000E+00 0.  1.
         14    1    5    5    0    0  0.42133662005E+02  0.14689062233E+02 -0.26057623482E+02  0.51672175925E+02  0.00000000000E+00 0. -1.
         13    1    3    3    0    0  0.50648344529E+02  0.30138235892E+02 -0.86325690410E+03  0.86526646216E+03  0.00000000000E+00 0. -1.
        -14    1    3    3    0    0 -0.98203763587E+01  0.63545405288E+00 -0.15469327166E+02  0.18334221463E+02  0.00000000000E+00 0.  1.
          5    1    4    4  501    0 -0.21233615902E+03  0.23594341375E+02 -0.25451595954E+03  0.33232391342E+03  0.41800000000E+01 0.  1.
         -5    1    4    4    0  501 -0.55978953317E+02 -0.27983086699E+02 -0.20443423524E+03  0.21383995252E+03  0.41800000000E+01 0.  1.
</event>
<event>
11    1  0.8453735E-009  0.1525068E+03  0.7561462E-02  0.1094344E+00
         22   -1    0    0    0    0  0.00000000000E+00  0.00000000000E+00  0.51560885889E+03  0.51560885889E+03  0.00000000000E+00 0.  1.
         22   -1    0    0    0    0 -0.00000000000E+00 -0.00000000000E+00 -0.13286134398E+03  0.13286134398E+03  0.00000000000E+00 0. -1.
        -24    2    1    2    0    0  0.62714564269E+01 -0.87972641607E+02 -0.66984965193E+02  0.13650524520E+03  0.79800874482E+02 0.  0.
         25    2    1    2    0    0 -0.30648451090E+02  0.78179489993E+02  0.21801325882E+03  0.26500634353E+03  0.12508885194E+03 0.  0.
         24    2    1    2    0    0  0.24376994663E+02  0.97931516134E+01  0.23171922129E+03  0.24695861415E+03  0.81268787976E+02 0.  0.
        -11    1    5    5    0    0  0.41558410871E+02  0.31912003045E+02  0.18691693557E+03  0.19412217353E+03  0.00000000000E+00 0.  1.
         12    1    5    5    0    0 -0.17181416208E+02 -0.22118851432E+02  0.44802285720E+02  0.52836440619E+02  0.00000000000E+00 0. -1.
         11    1    3    3    0    0 -0.32752981424E+02 -0.46546448021E+02 -0.13698024364E+02  0.58540289434E+02  0.00000000000E+00 0. -1.
        -12    1    3    3    0    0  0.39024437851E+02 -0.41426193586E+02 -0.53286940829E+02  0.77964955765E+02  0.00000000000E+00 0.  1.
          5    1    4    4  501    0  0.69183577296E+01  0.41574397688E+02  0.20694786155E+03  0.21123726948E+03  0.41800000000E+01 0.  1.
         -5    1    4    4    0  501 -0.37566808820E+02  0.36605092306E+02  0.11065397272E+02  0.53769074052E+02  0.41800000000E+01 0.  1.
</event>
<event>
11    1  0.8453735E-009  0.1355280E+03  0.7561462E-02  0.1112657E+00
         22   -1    0    0    0    0  0.00000000000E+00  0.00000000000E+00  0.13787932155E+03  0.13787932155E+03  0.00000000000E+00 0. -1.
         22   -1    0    0    0    0 -0.00000000000E+00 -0.00000000000E+00 -0.19561351070E+04  0.19561351070E+04  0.00000000000E+00 0.  1.
        -24    2    1    2    0    0  0.49287366675E+02 -0.21085296012E+02 -0.17910810491E+04  0.17937297005E+04  0.81370019653E+02 0.  0.
         25    2    1    2    0    0 -0.27702307280E+02 -0.14133567941E+02 -0.11490620818E+03  0.17268385027E+03  0.12509636244E+03 0.  0.
         24    2    1    2    0    0 -0.21585059394E+02  0.35218863953E+02  0.87731471815E+02  0.12760087771E+03  0.82939072084E+02 0.  0.
        -11    1    5    5    0    0 -0.44701229581E+02  0.21697893942E+01  0.20557666133E+02  0.49249624860E+02  0.00000000000E+00 0.  1.
         12    1    5    5    0    0  0.23116170186E+02  0.33049074559E+02  0.67173805681E+02  0.78351252849E+02  0.00000000000E+00 0. -1.
         13    1    3    3    0    0 -0.21107337917E+02 -0.43197537196E+01 -0.24122437421E+03  0.24218459633E+03  0.00000000000E+00 0. -1.
        -14    1    3    3    0    0  0.70394704591E+02 -0.16765542292E+02 -0.15498566748E+04  0.15515451042E+04  0.00000000000E+00 0.  1.
          5    1    4    4  501    0 -0.61749732520E+02 -0.49615548305E+02 -0.65792974248E+02  0.10305784764E+03  0.41800000000E+01 0.  1.
         -5    1    4    4    0  501  0.34047425239E+02  0.35481980363E+02 -0.49113233927E+02  0.69626002633E+02  0.41800000000E+01 0.  1.
</event>
<event>
11    1  0.8453735E-009  0.1698315E+03  0.7561462E-02  0.1078178E+00
         22   -1    0    0    0    0  0.00000000000E+00  0.00000000000E+00  0.59982546721E+03  0.59982546721E+03  0.00000000000E+00 0. -1.
         22   -1    0    0    0    0 -0.00000000000E+00 -0.00000000000E+00 -0.13180710642E+04  0.13180710642E+04  0.00000000000E+00 0. -1.
        -24    2    1    2    0    0  0.43954952475E+02 -0.36879682820E+02 -0.11949752875E+04  0.12009209002E+04  0.10465620808E+03 0.  0.
         25    2    1    2    0    0  0.55123822067E+01  0.13923995055E+03 -0.31558717382E+02  0.18989923116E+03  0.12509042795E+03 0.  0.
         24    2    1    2    0    0 -0.49467334682E+02 -0.10236026773E+03  0.50828840786E+03  0.52707640010E+03  0.80794705071E+02 0.  0.
        -11    1    5    5    0    0 -0.46937986175E+02 -0.60645726779E+02  0.17353878874E+03  0.18972820012E+03  0.00000000000E+00 0.  1.
         12    1    5    5    0    0 -0.25293485070E+01 -0.41714540955E+02  0.33474961912E+03  0.33734819998E+03  0.00000000000E+00 0. -1.
         13    1    3    3    0    0  0.30728705025E+02 -0.70180701372E+01 -0.11006551540E+04  0.11011063866E+04  0.00000000000E+00 0. -1.
        -14    1    3    3    0    0  0.13226247450E+02 -0.29861612682E+02 -0.94320133508E+02  0.99814513567E+02  0.00000000000E+00 0.  1.
          5    1    4    4  501    0 -0.51045761206E+02  0.92356045811E+02  0.88045800688E+01  0.10597311907E+03  0.41800000000E+01 0. -1.
         -5    1    4    4    0  501  0.56558143413E+02  0.46883904742E+02 -0.40363297450E+02  0.83926112094E+02  0.41800000000E+01 0. -1.
</event>
<event>
11    1  0.8453735E-009  0.1359465E+03  0.7561462E-02  0.1112171E+00
         22   -1    0    0    0    0  0.00000000000E+00  0.00000000000E+00  0.48503248769E+03  0.48503248769E+03  0.00000000000E+00 0.  1.
         22   -1    0    0    0    0 -0.00000000000E+00 -0.00000000000E+00 -0.13150756628E+03  0.13150756628E+03  0.00000000000E+00 0.  1.
        -24    2    1    2    0    0  0.36053645418E+02  0.21505253192E+02 -0.29250482353E+02  0.98466497681E+02  0.84129181529E+02 0.  0.
         25    2    1    2    0    0 -0.42075157848E+02  0.32901858703E+02  0.13978651019E+02  0.13672928508E+03  0.12508654404E+03 0.  0.
         24    2    1    2    0    0  0.60215124302E+01 -0.54407111896E+02  0.36879675275E+03  0.38134427121E+03  0.80100036873E+02 0.  0.
        -13    1    5    5    0    0 -0.25776572399E+02 -0.47393453407E+02  0.30482117949E+03  0.30955859312E+03  0.00000000000E+00 0.  1.
         14    1    5    5    0    0  0.31798084829E+02 -0.70136584889E+01  0.63975573262E+02  0.71785678087E+02  0.00000000000E+00 0. -1.
         13    1    3    3    0    0 -0.21695862543E+02 -0.14048683169E+02 -0.11961794955E+02  0.28480879355E+02  0.00000000000E+00 0. -1.
        -14    1    3    3    0    0  0.57749507961E+02  0.35553936362E+02 -0.17288687398E+02  0.69985618326E+02  0.00000000000E+00 0.  1.
          5    1    4    4  501    0 -0.81736296950E+02  0.46134368143E+02  0.80557626244E+01  0.94295121160E+02  0.41800000000E+01 0. -1.
         -5    1    4    4    0  501  0.39661139102E+02 -0.13232509440E+02  0.59228883948E+01  0.42434163923E+02  0.41800000000E+01 0. -1.
</event>
<event>
11    1  0.8453735E-009  0.1873429E+03  0.7561462E-02  0.1063853E+00
         22   -1    0    0    0    0  0.00000000000E+00  0.00000000000E+00  0.41863468171E+03  0.41863468171E+03  0.00000000000E+00 0. -1.
         22   -1    0    0    0    0 -0.00000000000E+00 -0.00000000000E+00 -0.66726883151E+03  0.66726883151E+03  0.00000000000E+00 0. -1.
         24    2    1    2    0    0 -0.19685402652E+02 -0.89761971158E+02 -0.39545212473E+03  0.41379990374E+03  0.80020315164E+02 0.  0.
         25    2    1    2    0    0  0.11727458087E+03  0.18209395406E+03 -0.18129632592E+03  0.30891315913E+03  0.12508975446E+03 0.  0.
        -24    2    1    2    0    0 -0.97589178220E+02 -0.92331982903E+02  0.32811430085E+03  0.36319045034E+03  0.78736687908E+02 0.  0.
        -11    1    3    3    0    0 -0.22308057944E+02 -0.62385564057E+02 -0.12081507654E+03  0.13778929846E+03  0.00000000000E+00 0.  1.
         12    1    3    3    0    0  0.26226552920E+01 -0.27376407101E+02 -0.27463704819E+03  0.27601060528E+03  0.00000000000E+00 0. -1.
         11    1    5    5    0    0 -0.71587644430E+02 -0.76384322650E+02  0.31114736215E+03  0.32828651595E+03  0.00000000000E+00 0. -1.
        -12    1    5    5    0    0 -0.26001533790E+02 -0.15947660253E+02  0.16966938701E+02  0.34903934389E+02  0.00000000000E+00 0.  1.
          5    1    4    4  501    0  0.30908463983E+02  0.15210917997E+03 -0.13772051324E+03  0.20754986857E+03  0.41800000000E+01 0.  1.
         -5    1    4    4    0  501  0.86366116889E+02  0.29984774094E+02 -0.43575812676E+02  0.10136329057E+03  0.41800000000E+01 0.  1.
</event>
<event>
11    1  0.8453735E-009  0.1557852E+03  0.7561462E-02  0.1091110E+00
         22   -1    0    0    0    0  0.00000000000E+00  0.00000000000E+00  0.21538841517E+03  0.21538841517E+03  0.00000000000E+00 0. -1.
         22   -1    0    0    0    0 -0.00000000000E+00 -0.00000000000E+00 -0.19913698492E+04  0.19913698492E+04  0.00000000000E+00 0. -1.
         24    2    1    2    0    0  0.54304939108E+00  0.89504333524E+02 -0.14468270719E+04  0.14515615757E+04  0.75571895893E+02 0.  0.
         25    2    1    2    0    0 -0.55075198778E+01 -0.11147891478E+03 -0.51986899082E+03  0.54623060422E+03  0.12508486781E+03 0.  0.
        -24    2    1    2    0    0  0.49644704868E+01  0.21974581255E+02  0.19071462872E+03  0.20896608441E+03  0.82384626234E+02 0.  0.
        -11    1    3    3    0    0 -0.10876196737E+02  0.35197073889E+02 -0.19166223341E+03  0.19517053410E+03  0.00000000000E+00 0.  1.
         12    1    3    3    0    0  0.11419246128E+02  0.54307259635E+02 -0.12551648385E+04  0.12563910416E+04  0.00000000000E+00 0. -1.
         13    1    5    5    0    0  0.12827657695E+02  0.52360807212E+02  0.11528694983E+03  0.12726854967E+03  0.00000000000E+00 0. -1.
        -14    1    5    5    0    0 -0.78631872082E+01 -0.30386225956E+02  0.75427678890E+02  0.81697534747E+02  0.00000000000E+00 0.  1.
          5    1    4    4  501    0 -0.36400975438E+01 -0.10897768646E+03 -0.52655929744E+03  0.53774673647E+03  0.41800000000E+01 0. -1.
         -5    1    4    4    0  501 -0.18674223340E+01 -0.25012283201E+01  0.66903066261E+01  0.84838677521E+01  0.41800000000E+01 0. -1.
</event>
<event>
11    1  0.8453735E-009  0.2478944E+03  0.7561462E-02  0.1025027E+00
         22   -1    0    0    0    0  0.00000000000E+00  0.00000000000E+00  0.22177671207E+03  0.22177671207E+03  0.00000000000E+00 0.  1.
         22   -1    0    0    0    0 -0.00000000000E+00 -0.00000000000E+00 -0.15301958150E+04  0.15301958150E+04  0.00000000000E+00 0.  1.
        -24    2    1    2    0    0 -0.29201841559E+02  0.19250500716E+02 -0.94244361911E+03  0.94614275399E+03  0.75913150337E+02 0.  0.
         25    2    1    2    0    0  0.15906925042E+03  0.15045254983E+03 -0.48664738789E+03  0.54809852365E+03  0.12508922935E+03 0.  0.
         24    2    1    2    0    0 -0.12986740886E+03 -0.16970305055E+03  0.12067190408E+03  0.25773124943E+03  0.78733850719E+02 0.  0.
        -13    1    5    5    0    0 -0.57664640346E+02 -0.24123689106E+02  0.52026804339E+02  0.81326204215E+02  0.00000000000E+00 0.  1.
         14    1    5    5    0    0 -0.72202768518E+02 -0.14557936144E+03  0.68645099738E+02  0.17640504521E+03  0.00000000000E+00 0. -1.
         11    1    3    3    0    0 -0.22755493206E+02 -0.26503977133E+02 -0.29698838370E+03  0.29903573922E+03  0.00000000000E+00 0. -1.
        -12    1    3    3    0    0 -0.64463483533E+01  0.45754477849E+02 -0.64545523541E+03  0.64710701477E+03  0.00000000000E+00 0.  1.
          5    1    4    4  501    0  0.24041575456E+02 -0.16269099135E+02 -0.23239424698E+02  0.37419569710E+02  0.41800000000E+01 0.  1.
         -5    1    4    4    0  501  0.13502767497E+03  0.16672164896E+03 -0.46340796319E+03  0.51067895394E+03  0.41800000000E+01 0.  1.
</event>
<event>
11    1  0.8453735E-009  0.1315345E+03  0.7561462E-02  0.1117398E+00
         22   -1    0    0    0    0  0.00000000000E+00  0.00000000000E+00  0.72978078078E+03  0.72978078078E+03  0.00000000000E+00 0. -1.
         22   -1    0    0    0    0 -0.00000000000E+00 -0.00000000000E+00 -0.69497225815E+03  0.69497225815E+03  0.00000000000E+00 0. -1.
         24    2    1    2    0    0  0.20371112480E+02 -0.38946265194E+02 -0.53804008791E+03  0.54553418256E+03  0.78667746558E+02 0.  0.
         25    2    1    2    0    0 -0.42732308149E+02  0.44735224941E+01 -0.12101432211E+03  0.17927058339E+03  0.12508962128E+03 0.  0.
        -24    2    1    2    0    0  0.22361195670E+02  0.34472742700E+02  0.69386293264E+03  0.69994827297E+03  0.82422220781E+02 0.  0.
        -13    1    3    3    0    0 -0.22675374600E+02 -0.58645676248E+00 -0.62075728906E+02  0.66090185837E+02  0.00000000000E+00 0.  1.
         14    1    3    3    0    0  0.43046487080E+02 -0.38359808432E+02 -0.47596435900E+03  0.47944399672E+03  0.00000000000E+00 0. -1.
         11    1    5    5    0    0  0.39898171444E+02  0.28065098479E+01  0.55518753543E+03  0.55662639183E+03  0.00000000000E+00 0. -1.
        -12    1    5    5    0    0 -0.17536975775E+02  0.31666232852E+02  0.13867539721E+03  0.14332188114E+03  0.00000000000E+00 0.  1.
          5    1    4    4  501    0  0.26359255995E+02  0.40430420727E+02 -0.73208721992E+02  0.87786210036E+02  0.41800000000E+01 0.  1.
         -5    1    4    4    0  501 -0.69091564144E+02 -0.35956898232E+02 -0.47805600117E+02  0.91484373359E+02  0.41800000000E+01 0.  1.
</event>
<event>
11    1  0.8453735E-009  0.1658189E+03  0.7561462E-02  0.1081729E+00
         22   -1    0    0    0    0  0.00000000000E+00  0.00000000000E+00  0.62384917800E+03  0.62384917800E+03  0.00000000000E+00 0. -1.
         22   -1    0    0    0    0 -0.00000000000E+00 -0.00000000000E+00 -0.23543389553E+04  0.23543389553E+04  0.00000000000E+00 0.  1.
         24    2    1    2    0    0  0.38783281941E+01 -0.42087641451E+02 -0.22113466045E+04  0.22131942964E+04  0.79929827202E+02 0.  0.
         25    2    1    2    0    0  0.10303182928E+03  0.61279739791E+02 -0.78048014831E+02  0.19002598561E+03  0.12509044023E+03 0.  0.
        -24    2    1    2    0    0 -0.10691015747E+03 -0.19192098340E+02  0.55890484198E+03  0.57496785137E+03  0.80095501210E+02 0.  0.
        -11    1    3    3    0    0  0.89107337104E+01 -0.12219536002E+02 -0.19558648787E+04  0.19559233477E+04  0.00000000000E+00 0.  1.
         12    1    3    3    0    0 -0.50324055162E+01 -0.29868105449E+02 -0.25548172579E+03  0.25727094869E+03  0.00000000000E+00 0. -1.
         13    1    5    5    0    0 -0.33218984204E+02  0.87810643990E+01  0.35008304057E+03  0.35176518205E+03  0.00000000000E+00 0. -1.
        -14    1    5    5    0    0 -0.73691173269E+02 -0.27973162739E+02  0.20882180140E+03  0.22320266932E+03  0.00000000000E+00 0.  1.
          5    1    4    4  501    0  0.11879868053E+02  0.39829203582E+02  0.26609991434E+02  0.49528383449E+02  0.41800000000E+01 0. -1.
         -5    1    4    4    0  501  0.91151961226E+02  0.21450536208E+02 -0.10465800627E+03  0.14049760217E+03  0.41800000000E+01 0. -1.
</event>
<event>
11    1  0.8453735E-009  0.1315170E+03  0.7561462E-02  0.1117419E+00
         22   -1    0    0    0    0  0.00000000000E+00  0.00000000000E+00  0.16469370208E+04  0.16469370208E+04  0.00000000000E+00 0. -1.
         22   -1    0    0    0    0 -0.00000000000E+00 -0.00000000000E+00 -0.12548936913E+03  0.12548936913E+03  0.00000000000E+00 0.  1.
         24    2    1    2    0    0 -0.37151928787E+02  0.99512424489E+01 -0.39276067220E+02  0.10047088614E+03  0.84098135923E+02 0.  0.
         25    2    1    2    0    0  0.37423721927E+02 -0.33399105617E+02  0.28873320633E+02  0.13782872162E+03  0.12508817946E+03 0.  0.
        -24    2    1    2    0    0 -0.27179314038E+00  0.23447863168E+02  0.15318503982E+04  0.15341267822E+04  0.80183944771E+02 0.  0.
        -13    1    3    3    0    0 -0.76019721693E+01  0.45084392289E+02 -0.12814561590E+02  0.47482685241E+02  0.00000000000E+00 0.  1.
         14    1    3    3    0    0 -0.29549956618E+02 -0.35133149840E+02 -0.26461505630E+02  0.52988200894E+02  0.00000000000E+00 0. -1.
         13    1    5    5    0    0  0.24907838235E+02  0.41340549818E+02  0.11568316700E+04  0.11578380518E+04  0.00000000000E+00 0. -1.
        -14    1    5    5    0    0 -0.25179631375E+02 -0.17892686651E+02  0.37501872825E+03  0.37628873038E+03  0.00000000000E+00 0.  1.
          5    1    4    4  501    0 -0.25492047189E+02  0.33581394994E+02  0.14144922482E+02  0.44666607120E+02  0.41800000000E+01 0.  1.
         -5    1    4    4    0  501  0.62915769116E+02 -0.66980500611E+02  0.14728398151E+02  0.93162114498E+02  0.41800000000E+01 0.  1.
</event>
<event>
11    1  0.8453735E-009  0.1508826E+03  0.7561462E-02  0.1095980E+00
         22   -1    0    0    0    0  0.00000000000E+00  0.00000000000E+00  0.10132641739E+03  0.10132641739E+03  0.00000000000E+00 0.  1.
         22   -1    0    0    0    0 -0.00000000000E+00 -0.00000000000E+00 -0.13802382349E+04  0.13802382349E+04  0.00000000000E+00 0.  1.
        -24    2    1    2    0    0  0.49021001787E+02  0.22587601796E+02 -0.69792595947E+03  0.70471443226E+03  0.81292851798E+02 0.  0.
         25    2    1    2    0    0 -0.97929162543E+02 -0.87967900239E+02 -0.62742598896E+03  0.65317734436E+03  0.12509516066E+03 0.  0.
         24    2    1    2    0    0  0.48908160757E+02  0.65380298443E+02  0.46440130891E+02  0.12367287570E+03  0.80446894368E+02 0.  0.
        -11    1    5    5    0    0  0.40804243352E+02  0.66122208193E+02  0.12016491961E+01  0.77708279178E+02  0.00000000000E+00 0.  1.
         12    1    5    5    0    0  0.81039174044E+01 -0.74190974998E+00  0.45238481695E+02  0.45964596522E+02  0.00000000000E+00 0. -1.
         11    1    3    3    0    0  0.59636236873E+02 -0.25242579834E+01 -0.30147997619E+03  0.30733211461E+03  0.00000000000E+00 0. -1.
        -12    1    3    3    0    0 -0.10615235086E+02  0.25111859779E+02 -0.39644598328E+03  0.39738231765E+03  0.00000000000E+00 0.  1.
          5    1    4    4  501    0 -0.21679659842E+02 -0.91100784927E+02 -0.22821683125E+03  0.24671796677E+03  0.41800000000E+01 0.  1.
         -5    1    4    4    0  501 -0.76249502701E+02  0.31328846877E+01 -0.39920915771E+03  0.40645937759E+03  0.41800000000E+01 0.  1.
</event>
<event>
11    1  0.8453735E-009  0.1539596E+03  0.7561462E-02  0.1092900E+00
         22   -1    0    0    0    0  0.00000000000E+00  0.00000000000E+00  0.33517899048E+04  0.33517899048E+04  0.00000000000E+00 0. -1.
         22   -1    0    0    0    0 -0.00000000000E+00 -0.00000000000E+00 -0.25608265222E+03  0.25608265222E+03  0.00000000000E+00 0. -1.
         24    2    1    2    0    0 -0.40150824083E+02  0.30208900300E+02 -0.24106394798E+03  0.25946963901E+03  0.81780194569E+02 0.  0.
         25    2    1    2    0    0  0.10521568633E+03 -0.51273855873E+02  0.22638459121E+04  0.22703183345E+04  0.12509067663E+03 0.  0.
        -24    2    1    2    0    0 -0.65064862245E+02  0.21064955573E+02  0.10729252885E+04  0.10780845835E+04  0.80128184097E+02 0.  0.
        -13    1    3    3    0    0 -0.27257998546E+01  0.95322405639E+01  0.40094700297E+01  0.10694365102E+02  0.00000000000E+00 0.  1.
         14    1    3    3    0    0 -0.37425024228E+02  0.20676659736E+02 -0.24507341801E+03  0.24877527391E+03  0.00000000000E+00 0. -1.
         13    1    5    5    0    0 -0.75130562112E+02  0.39320854979E+01  0.98822553001E+03  0.99108514308E+03  0.00000000000E+00 0. -1.
        -14    1    5    5    0    0  0.10065699867E+02  0.17132870076E+02  0.84699758438E+02  0.86999440402E+02  0.00000000000E+00 0.  1.
          5    1    4    4  501    0  0.24592892460E+02 -0.56183337534E+02  0.16528120466E+04  0.16539548094E+04  0.41800000000E+01 0. -1.
         -5    1    4    4    0  501  0.80622793869E+02  0.49094816600E+01  0.61103386549E+03  0.61636352510E+03  0.41800000000E+01 0. -1.
</event>
<event>
11    1  0.8453735E-009  0.1861592E+03  0.7561462E-02  0.1064767E+00
         22   -1    0    0    0    0  0.00000000000E+00  0.00000000000E+00  0.61316129747E+03  0.61316129747E+03  0.00000000000E+00 0.  1.
         22   -1    0    0    0    0 -0.00000000000E+00 -0.00000000000E+00 -0.14402447690E+04  0.14402447690E+04  0.00000000000E+00 0.  1.
        -24    2    1    2    0    0 -0.59235954445E+02  0.11158229375E+03 -0.92898358727E+03  0.94002233275E+03  0.68351840335E+02 0.  0.
         25    2    1    2    0    0  0.43705723369E+02 -0.19827429412E+03 -0.47109973737E+03  0.52802017128E+03  0.12508977879E+03 0.  0.
         24    2    1    2    0    0  0.15530231076E+02  0.86692000376E+02  0.57299985309E+03  0.58536356247E+03  0.81024549528E+02 0.  0.
        -13    1    5    5    0    0 -0.19842157902E+02  0.55891382889E+02  0.44699360434E+03  0.45091112232E+03  0.00000000000E+00 0.  1.
         14    1    5    5    0    0  0.35372388977E+02  0.30800617487E+02  0.12600624875E+03  0.13445244015E+03  0.00000000000E+00 0. -1.
         11    1    3    3    0    0 -0.76700621524E+01  0.76931887815E+02 -0.40001306961E+03  0.40741600493E+03  0.00000000000E+00 0. -1.
        -12    1    3    3    0    0 -0.51565892293E+02  0.34650405931E+02 -0.52897051766E+03  0.53260632782E+03  0.00000000000E+00 0.  1.
          5    1    4    4  501    0 -0.13725919122E+02 -0.17392283380E+03 -0.31992049038E+03  0.36442303102E+03  0.41800000000E+01 0. -1.
         -5    1    4    4    0  501  0.57431642492E+02 -0.24351460323E+02 -0.15117924699E+03  0.16359714026E+03  0.41800000000E+01 0. -1.
</event>
<event>
11    1  0.8453735E-009  0.1303110E+03  0.7561462E-02  0.1118887E+00
         22   -1    0    0    0    0  0.00000000000E+00  0.00000000000E+00  0.99267480974E+03  0.99267480974E+03  0.00000000000E+00 0.  1.
         22   -1    0    0    0    0 -0.00000000000E+00 -0.00000000000E+00 -0.81129795778E+03  0.81129795778E+03  0.00000000000E+00 0.  1.
         24    2    1    2    0    0 -0.19462544837E+02 -0.35045439525E+02 -0.71411652048E+03  0.71869358086E+03  0.70363945702E+02 0.  0.
         25    2    1    2    0    0  0.51082218679E+02  0.51770532624E+02 -0.36395002737E+02  0.14920393845E+03  0.12509051887E+03 0.  0.
        -24    2    1    2    0    0 -0.31619673843E+02 -0.16725093099E+02  0.93188837518E+03  0.93607524821E+03  0.80878884737E+02 0.  0.
        -13    1    3    3    0    0  0.61190411055E+01 -0.28583218904E+01 -0.52996785510E+03  0.53001088678E+03  0.00000000000E+00 0.  1.
         14    1    3    3    0    0 -0.25581585942E+02 -0.32187117635E+02 -0.18414866538E+03  0.18868269407E+03  0.00000000000E+00 0. -1.
         13    1    5    5    0    0  0.18193689153E+02 -0.27422036592E+02  0.23029854642E+03  0.23263791372E+03  0.00000000000E+00 0. -1.
        -14    1    5    5    0    0 -0.49813362996E+02  0.10696943494E+02  0.70158982876E+03  0.70343733449E+03  0.00000000000E+00 0.  1.
          5    1    4    4  501    0  0.64332208103E+02 -0.22048679931E+02 -0.27842288247E+02  0.73603279145E+02  0.41800000000E+01 0. -1.
         -5    1    4    4    0  501 -0.13249989424E+02  0.73819212554E+02 -0.85527144898E+01  0.75600659303E+02  0.41800000000E+01 0. -1.
</event>
<event>
11    1  0.8453735E-009  0.1350416E+03  0.7561462E-02  0.1113225E+00
         22   -1    0    0    0    0  0.00000000000E+00  0.00000000000E+00  0.11612246942E+03  0.11612246942E+03  0.00000000000E+00 0.  1.
         22   -1    0    0    0    0 -0.00000000000E+00 -0.00000000000E+00 -0.13938472049E+04  0.13938472049E+04  0.00000000000E+00 0. -1.
         24    2    1    2    0    0  0.18952270642E+02 -0.46450284768E+02 -0.10717484972E+04  0.10760260439E+04  0.81672445041E+02 0.  0.
         25    2    1    2    0    0 -0.26020515406E+02  0.49753839486E+02 -0.28803520869E+03  0.31900715634E+03  0.12509505421E+03 0.  0.
        -24    2    1    2    0    0  0.70682447641E+01 -0.33035547176E+01  0.82058970383E+02  0.11493647415E+03  0.80098969480E+02 0.  0.
        -13    1    3    3    0    0  0.37242875301E+02 -0.96182961801E+00 -0.24409774284E+03  0.24692441138E+03  0.00000000000E+00 0.  1.
         14    1    3    3    0    0 -0.18290604659E+02 -0.45488455150E+02 -0.82765075436E+03  0.82910163247E+03  0.00000000000E+00 0. -1.
         11    1    5    5    0    0 -0.90949360766E+01 -0.59718806775E+01 -0.13864604195E+02  0.17624087794E+02  0.00000000000E+00 0. -1.
        -12    1    5    5    0    0  0.16163180841E+02  0.26683259599E+01  0.95923574578E+02  0.97312386356E+02  0.00000000000E+00 0.  1.
          5    1    4    4  501    0 -0.37752407382E+02  0.81608627957E+02 -0.13542998208E+03  0.16261600434E+03  0.41800000000E+01 0.  1.
         -5    1    4    4    0  501  0.11731891976E+02 -0.31854788471E+02 -0.15260522661E+03  0.15639115200E+03  0.41800000000E+01 0.  1.
</event>
<event>
11    1  0.8453735E-009  0.1349578E+03  0.7561462E-02  0.1113323E+00
         22   -1    0    0    0    0  0.00000000000E+00  0.00000000000E+00  0.62828173306E+03  0.62828173306E+03  0.00000000000E+00 0.  1.
         22   -1    0    0    0    0 -0.00000000000E+00 -0.00000000000E+00 -0.10735781635E+04  0.10735781635E+04  0.00000000000E+00 0.  1.
        -24    2    1    2    0    0  0.43184272270E+02 -0.21366593560E+02 -0.91569251567E+03  0.92045833367E+03  0.80183215674E+02 0.  0.
         25    2    1    2    0    0 -0.85206038370E+02  0.35152149530E+02 -0.11223554761E+03  0.19167615898E+03  0.12508872523E+03 0.  0.
         24    2    1    2    0    0  0.42021766101E+02 -0.13785555971E+02  0.58263163280E+03  0.58972540396E+03  0.79753132594E+02 0.  0.
        -11    1    5    5    0    0  0.26250999320E+02  0.15434524494E+02  0.49622436090E+03  0.49715787821E+03  0.00000000000E+00 0.  1.
         12    1    5    5    0    0  0.15770766780E+02 -0.29220080465E+02  0.86407271897E+02  0.92567525752E+02  0.00000000000E+00 0. -1.
         11    1    3    3    0    0  0.21949721345E+02 -0.44675613227E+02 -0.31225111036E+03  0.31619370108E+03  0.00000000000E+00 0. -1.
        -12    1    3    3    0    0  0.21234550924E+02  0.23309019667E+02 -0.60344140532E+03  0.60426463259E+03  0.00000000000E+00 0.  1.
          5    1    4    4  501    0  0.58159712997E+01 -0.26247558750E+02  0.84280438641E+01  0.28482699765E+02  0.41800000000E+01 0.  1.
         -5    1    4    4    0  501 -0.91022009670E+02  0.61399708281E+02 -0.12066359148E+03  0.16319345921E+03  0.41800000000E+01 0.  1.
</event>
<event>
11    1  0.8453735E-009  0.1998262E+03  0.7561462E-02  0.1054647E+00
         22   -1    0    0    0    0  0.00000000000E+00  0.00000000000E+00  0.26534903354E+03  0.26534903354E+03  0.00000000000E+00 0.  1.
         22   -1    0    0    0    0 -0.00000000000E+00 -0.00000000000E+00 -0.17397278781E+04  0.17397278781E+04  0.00000000000E+00 0.  1.
        -24    2    1    2    0    0  0.11667963690E+03  0.22927104183E+02 -0.15739901021E+04  0.15805533189E+04  0.81019520694E+02 0.  0.
         25    2    1    2    0    0 -0.14244923913E+03 -0.15847052466E+03  0.25727171503E+02  0.24842399334E+03  0.12509156725E+03 0.  0.
         24    2    1    2    0    0  0.25769602225E+02  0.13554342048E+03  0.73884086083E+02  0.17609959931E+03  0.80722484266E+02 0.  0.
        -13    1    5    5    0    0 -0.33142060249E+01  0.12799476083E+03  0.69648344022E+02  0.14575504995E+03  0.00000000000E+00 0.  1.
         14    1    5    5    0    0  0.29083808250E+02  0.75486596486E+01  0.42357420614E+01  0.30344549356E+02  0.00000000000E+00 0. -1.
         13    1    3    3    0    0  0.14740376969E+01 -0.16544659718E+02 -0.86080468000E+02  0.87668383830E+02  0.00000000000E+00 0. -1.
        -14    1    3    3    0    0  0.11520559921E+03  0.39471763900E+02 -0.14879096341E+04  0.14928849351E+04  0.00000000000E+00 0.  1.
          5    1    4    4  501    0 -0.76653995311E+01 -0.24974205179E+02  0.50551523945E+02  0.57056097373E+02  0.41800000000E+01 0. -1.
         -5    1    4    4    0  501 -0.13478383960E+03 -0.13349631948E+03 -0.24824352442E+02  0.19136789596E+03  0.41800000000E+01 0. -1.
</event>
<event>
11    1  0.8453735E-009  0.1697970E+03  0.7561462E-02  0.1078208E+00
         22   -1    0    0    0    0  0.00000000000E+00  0.00000000000E+00  0.17942217685E+04  0.17942217685E+04  0.00000000000E+00 0. -1.
         22   -1    0    0    0    0 -0.00000000000E+00 -0.00000000000E+00 -0.97395062709E+02  0.97395062709E+02  0.00000000000E+00 0. -1.
         24    2    1    2    0    0  0.45323744940E+02 -0.85956790794E+01 -0.17151000079E+02  0.95203367624E+02  0.81494765776E+02 0.  0.
         25    2    1    2    0    0 -0.89695891223E+00 -0.99331433207E+02  0.12947836207E+03  0.20561659481E+03  0.12508397043E+03 0.  0.
        -24    2    1    2    0    0 -0.44426786027E+02  0.10792711229E+03  0.15844993438E+04  0.15907968688E+04  0.79840505525E+02 0.  0.
        -13    1    3    3    0    0 -0.43643932319E+01  0.15866075094E+02  0.21931852846E+02  0.27418724194E+02  0.00000000000E+00 0.  1.
         14    1    3    3    0    0  0.49688138172E+02 -0.24461754173E+02 -0.39082852925E+02  0.67784643430E+02  0.00000000000E+00 0. -1.
         11    1    5    5    0    0 -0.59722105727E+02  0.93165475311E+02  0.14814730044E+04  0.14856004842E+04  0.00000000000E+00 0. -1.
        -12    1    5    5    0    0  0.15295319699E+02  0.14761636976E+02  0.10302633937E+03  0.10519638461E+03  0.00000000000E+00 0.  1.
          5    1    4    4  501    0 -0.59520586443E+02 -0.70286285505E+02  0.91292357000E+02  0.12974832942E+03  0.41800000000E+01 0.  1.
         -5    1    4    4    0  501  0.58623627531E+02 -0.29045147703E+02  0.38186005072E+02  0.75868265390E+02  0.41800000000E+01 0.  1.
</event>
<event>
11    1  0.8453735E-009  0.1384711E+03  0.7561462E-02  0.1109278E+00
         22   -1    0    0    0    0  0.00000000000E+00  0.00000000000E+00  0.24382362409E+04  0.24382362409E+04  0.00000000000E+00 0.  1.
         22   -1    0    0    0    0 -0.00000000000E+00 -0.00000000000E+00 -0.10794998290E+03  0.10794998290E+03  0.00000000000E+00 0.  1.
        -24    2    1    2    0    0  0.39195197920E+01  0.64728059776E+02 -0.55108938560E+02  0.11744984244E+03  0.80946809836E+02 0.  0.
         25    2    1    2    0    0  0.92651875902E+01 -0.25320437325E+02  0.17643333138E+03  0.21795208066E+03  0.12508965104E+03 0.  0.
         24    2    1    2    0    0 -0.13184707382E+02 -0.39407622451E+02  0.22089618652E+04  0.22107843007E+04  0.79548131155E+02 0.  0.
        -11    1    5    5    0    0 -0.33001147267E+01 -0.60643506602E+02  0.18843243187E+04  0.18853028043E+04  0.00000000000E+00 0.  1.
         12    1    5    5    0    0 -0.98845926555E+01  0.21235884151E+02  0.32463754649E+03  0.32548149647E+03  0.00000000000E+00 0. -1.
         13    1    3    3    0    0 -0.22724979721E+02  0.14329650327E+02 -0.54133408501E+02  0.60433347564E+02  0.00000000000E+00 0. -1.
        -14    1    3    3    0    0  0.26644499513E+02  0.50398409449E+02 -0.97553005831E+00  0.57016494878E+02  0.00000000000E+00 0.  1.
          5    1    4    4  501    0  0.27150346846E+02 -0.14052059653E+01 -0.98706120568E+01  0.29223574731E+02  0.41800000000E+01 0.  1.
         -5    1    4    4    0  501 -0.17885159256E+02 -0.23915231359E+02  0.18630394343E+03  0.18872850593E+03  0.41800000000E+01 0.  1.
</event>
<event>
11    1  0.8453735E-009  0.1435737E+03  0.7561462E-02  0.1103632E+00
         22   -1    0    0    0    0  0.00000000000E+00  0.00000000000E+00  0.46412800469E+03  0.46412800469E+03  0.00000000000E+00 0. -1.
         22   -1    0    0    0    0 -0.00000000000E+00 -0.00000000000E+00 -0.12786067250E+03  0.12786067250E+03  0.00000000000E+00 0. -1.
        -24    2    1    2    0    0 -0.55657992721E+02 -0.41972862054E+02 -0.56723095608E+02  0.11970824336E+03  0.79076043467E+02 0.  0.
         25    2    1    2    0    0  0.68325247251E+01 -0.40799870414E+02  0.16262378933E+03  0.20930175528E+03  0.12509762223E+03 0.  0.
         24    2    1    2    0    0  0.48825467996E+02  0.82772732468E+02  0.23036663847E+03  0.26297867854E+03  0.82787352186E+02 0.  0.
        -13    1    5    5    0    0  0.16278585773E+02 -0.47676515154E+01  0.30642434022E+01  0.17236949944E+02  0.00000000000E+00 0.  1.
         14    1    5    5    0    0  0.32546882224E+02  0.87540383984E+02  0.22730239507E+03  0.24574172860E+03  0.00000000000E+00 0. -1.
         11    1    3    3    0    0 -0.25059834001E+02 -0.45255032134E+02 -0.69287603256E+02  0.86468405667E+02  0.00000000000E+00 0. -1.
        -12    1    3    3    0    0 -0.30598158720E+02  0.32821700797E+01  0.12564507648E+02  0.33239837694E+02  0.00000000000E+00 0.  1.
          5    1    4    4  501    0 -0.46529056452E+02 -0.58942201787E+02  0.95182772750E+02  0.12131104185E+03  0.41800000000E+01 0.  1.
         -5    1    4    4    0  501  0.53361581177E+02  0.18142331373E+02  0.67441016582E+02  0.87990713436E+02  0.41800000000E+01 0.  1.
</event>
<event>
11    1  0.8453735E-009  0.1646333E+03  0.7561462E-02  0.1082799E+00
         22   -1    0    0    0    0  0.00000000000E+00  0.00000000000E+00  0.66120303580E+03  0.66120303580E+03  0.00000000000E+00 0.  1.
         22   -1    0    0    0    0 -0.00000000000E+00 -0.00000000000E+00 -0.37117571040E+03  0.37117571040E+03  0.00000000000E+00 0. -1.
        -24    2    1    2    0    0  0.14309262115E+02 -0.83574565708E+02 -0.23038000053E+03  0.25843160688E+03  0.80761920309E+02 0.  0.
         25    2    1    2    0    0 -0.35558605517E+02  0.18315571023E+03 -0.12917909247E+02  0.22499512860E+03  0.12508200071E+03 0.  0.
         24    2    1    2    0    0  0.21249343403E+02 -0.99581144518E+02  0.53332523517E+03  0.54895201072E+03  0.80898483730E+02 0.  0.
        -11    1    5    5    0    0 -0.20805006202E+02 -0.81592044262E+02  0.33493286962E+03  0.34535508846E+03  0.00000000000E+00 0.  1.
         12    1    5    5    0    0  0.42054349605E+02 -0.17989100256E+02  0.19839236555E+03  0.20359692227E+03  0.00000000000E+00 0. -1.
         13    1    3    3    0    0  0.22014292404E+02 -0.49810827584E+02 -0.21267455045E+03  0.21953635696E+03  0.00000000000E+00 0. -1.
        -14    1    3    3    0    0 -0.77050302893E+01 -0.33763738123E+02 -0.17705450076E+02  0.38895249919E+02  0.00000000000E+00 0.  1.
          5    1    4    4  501    0 -0.35447616511E+01  0.73919813170E+02  0.55069632450E+02  0.92340895233E+02  0.41800000000E+01 0. -1.
         -5    1    4    4    0  501 -0.32013843866E+02  0.10923589705E+03 -0.67987541697E+02  0.13265423337E+03  0.41800000000E+01 0. -1.
</event>
<event>
11    1  0.8453735E-009  0.1837508E+03  0.7561462E-02  0.1066649E+00
         22   -1    0    0    0    0  0.00000000000E+00  0.00000000000E+00  0.10311435914E+04  0.10311435914E+04  0.00000000000E+00 0.  1.
         22   -1    0    0    0    0 -0.00000000000E+00 -0.00000000000E+00 -0.87321010287E+03  0.87321010287E+03  0.00000000000E+00 0. -1.
         24    2    1    2    0    0 -0.10411797407E+03 -0.84548743530E+02 -0.77347487292E+03  0.78912057802E+03  0.80367064459E+02 0.  0.
         25    2    1    2    0    0  0.89851550454E+02  0.11221796053E+03  0.11176414401E+02  0.19088909690E+03  0.12509022061E+03 0.  0.
        -24    2    1    2    0    0  0.14266423614E+02 -0.27669217000E+02  0.92023194703E+03  0.92434401932E+03  0.81338264757E+02 0.  0.
        -11    1    3    3    0    0 -0.45755135396E+02  0.77600163894E+01 -0.26720787628E+03  0.27120803715E+03  0.00000000000E+00 0.  1.
         12    1    3    3    0    0 -0.58362838672E+02 -0.92308759919E+02 -0.50626699664E+03  0.51791254087E+03  0.00000000000E+00 0. -1.
         11    1    5    5    0    0  0.17968698775E+02  0.24035290089E+02  0.50467945030E+03  0.50557088213E+03  0.00000000000E+00 0. -1.
        -12    1    5    5    0    0 -0.37022751608E+01 -0.51704507089E+02  0.41555249673E+03  0.41877313719E+03  0.00000000000E+00 0.  1.
          5    1    4    4  501    0  0.96818138714E+02  0.98407751355E+02 -0.34606831698E+02  0.14238308436E+03  0.41800000000E+01 0. -1.
         -5    1    4    4    0  501 -0.69665882603E+01  0.13810209174E+02  0.45783246099E+02  0.48506012542E+02  0.41800000000E+01 0. -1.
</event>
<event>
11    1  0.8453735E-009  0.1668742E+03  0.7561462E-02  0.1080784E+00
         22   -1    0    0    0    0  0.00000000000E+00  0.00000000000E+00  0.14449023336E+04  0.14449023336E+04  0.00000000000E+00 0. -1.
         22   -1    0    0    0    0 -0.00000000000E+00 -0.00000000000E+00 -0.11826911535E+03  0.11826911535E+03  0.00000000000E+00 0. -1.
         24    2    1    2    0    0  0.24615035826E+02 -0.10784855816E+03 -0.48687498956E+02  0.14716256644E+03  0.83959138398E+02 0.  0.
         25    2    1    2    0    0 -0.77975246827E+02  0.92483186676E+02  0.40416077306E+03  0.44003084533E+03  0.12509170808E+03 0.  0.
        -24    2    1    2    0    0  0.53360211001E+02  0.15365371480E+02  0.97115994415E+03  0.97597803719E+03  0.79360476304E+02 0.  0.
        -11    1    3    3    0    0 -0.13199137064E+02  0.44189206393E+01  0.77606113930E+01  0.15936472886E+02  0.00000000000E+00 0.  1.
         12    1    3    3    0    0  0.37814172891E+02 -0.11226747879E+03 -0.56448110349E+02  0.13122609355E+03  0.00000000000E+00 0. -1.
         11    1    5    5    0    0  0.45493987262E+02  0.11720554187E+02  0.96276327139E+03  0.96390880844E+03  0.00000000000E+00 0. -1.
        -12    1    5    5    0    0  0.78662237387E+01  0.36448172932E+01  0.83966727614E+01  0.12069228744E+02  0.00000000000E+00 0.  1.
          5    1    4    4  501    0  0.23908193373E+02  0.49448878542E+02  0.20402461525E+03  0.21132985905E+03  0.41800000000E+01 0. -1.
         -5    1    4    4    0  501 -0.10188344020E+03  0.43034308133E+02  0.20013615781E+03  0.22870098628E+03  0.41800000000E+01 0. -1.
</event>
<event>
11    1  0.8453735E-009  0.3192079E+03  0.7561462E-02  0.9923745E-01
         22   -1    0    0    0    0  0.00000000000E+00  0.00000000000E+00  0.59078571667E+03  0.59078571667E+03  0.00000000000E+00 0. -1.
         22   -1    0    0    0    0 -0.00000000000E+00 -0.00000000000E+00 -0.58926696698E+03  0.58926696698E+03  0.00000000000E+00 0. -1.
         24    2    1    2    0    0 -0.74855031880E+02 -0.81902885040E+02 -0.53696244440E+03  0.55406891076E+03  0.79701523196E+02 0.  0.
         25    2    1    2    0    0  0.94582148679E+01  0.10898372120E+02  0.77831501130E+02  0.14803025089E+03  0.12508789017E+03 0.  0.
        -24    2    1    2    0    0  0.65396817012E+02  0.71004512920E+02  0.46064969296E+03  0.47795352201E+03  0.83204837859E+02 0.  0.
        -11    1    3    3    0    0 -0.13748795866E+02 -0.73660760904E+02 -0.29958263890E+03  0.30881174624E+03  0.00000000000E+00 0.  1.
         12    1    3    3    0    0 -0.61106236014E+02 -0.82421241359E+01 -0.23737980550E+03  0.24525716452E+03  0.00000000000E+00 0. -1.
         11    1    5    5    0    0  0.39731424531E+02  0.80973265890E+01  0.31064034894E+03  0.31327556429E+03  0.00000000000E+00 0. -1.
        -12    1    5    5    0    0  0.25665392481E+02  0.62907186331E+02  0.15000934402E+03  0.16467795771E+03  0.00000000000E+00 0.  1.
          5    1    4    4  501    0  0.11550338030E+01  0.11601595735E+02  0.11196428169E+03  0.11264725430E+03  0.41800000000E+01 0.  1.
         -5    1    4    4    0  501  0.83031810649E+01 -0.70322361536E+00 -0.34132780558E+02  0.35382996592E+02  0.41800000000E+01 0.  1.
</event>
<event>
11    1  0.8453735E-009  0.4205201E+03  0.7561462E-02  0.9591080E-01
         22   -1    0    0    0    0  0.00000000000E+00  0.00000000000E+00  0.16961045532E+04  0.16961045532E+04  0.00000000000E+00 0. -1.
         22   -1    0    0    0    0 -0.00000000000E+00 -0.00000000000E+00 -0.65043186471E+03  0.65043186471E+03  0.00000000000E+00 0. -1.
         24    2    1    2    0    0  0.47065894502E+02  0.37730977953E+02 -0.44597948246E+03  0.46118601713E+03  0.10077707329E+03 0.  0.
         25    2    1    2    0    0 -0.33281962354E+03  0.24261050452E+03  0.10954410768E+03  0.44415696693E+03  0.12508693389E+03 0.  0.
        -24    2    1    2    0    0  0.28575372903E+03 -0.28034148247E+03  0.13821080633E+04  0.14411934339E+04  0.81051062810E+02 0.  0.
        -11    1    3    3    0    0 -0.25038484235E+02  0.37265631541E+02 -0.15192004090E+03  0.15841512495E+03  0.00000000000E+00 0.  1.
         12    1    3    3    0    0  0.72104378736E+02  0.46534641223E+00 -0.29405944155E+03  0.30277089217E+03  0.00000000000E+00 0. -1.
         13    1    5    5    0    0  0.19470437622E+03 -0.23680433523E+03  0.99607479443E+03  0.10421857240E+04  0.00000000000E+00 0. -1.
        -14    1    5    5    0    0  0.91049352814E+02 -0.43537147240E+02  0.38603326884E+03  0.39900770981E+03  0.00000000000E+00 0.  1.
          5    1    4    4  501    0 -0.41778236828E+02  0.42397510266E+02  0.64743175372E+02  0.88046130559E+02  0.41800000000E+01 0.  1.
         -5    1    4    4    0  501 -0.29104138671E+03  0.20021299425E+03  0.44800932311E+02  0.35611083637E+03  0.41800000000E+01 0.  1.
</event>
<event>
11    1  0.8453735E-009  0.6708877E+03  0.7561462E-02  0.9076341E-01
         22   -1    0    0    0    0  0.00000000000E+00  0.00000000000E+00  0.85637803529E+02  0.85637803529E+02  0.00000000000E+00 0. -1.
         22   -1    0    0    0    0 -0.00000000000E+00 -0.00000000000E+00 -0.13139356899E+04  0.13139356899E+04  0.00000000000E+00 0. -1.
         24    2    1    2    0    0  0.27947522623E+02  0.10861718067E+03 -0.17571786295E+03  0.22093258240E+03  0.73182529703E+02 0.  0.
         25    2    1    2    0    0 -0.10078584973E+02 -0.29396460072E+03 -0.73976835512E+03  0.80586731593E+03  0.12509255491E+03 0.  0.
        -24    2    1    2    0    0 -0.17868937650E+02  0.18534742006E+03 -0.31281166831E+03  0.37277359510E+03  0.80224985630E+02 0.  0.
        -13    1    3    3    0    0  0.82980815638E+01  0.44024713377E+02 -0.16068960254E+02  0.47594590336E+02  0.00000000000E+00 0.  1.
         14    1    3    3    0    0  0.19649441059E+02  0.64592467288E+02 -0.15964890269E+03  0.17333799207E+03  0.00000000000E+00 0. -1.
         13    1    5    5    0    0 -0.37896767245E+02  0.13621229516E+03 -0.17421653980E+03  0.22436879699E+03  0.00000000000E+00 0. -1.
        -14    1    5    5    0    0  0.20027829595E+02  0.49135124891E+02 -0.13859512851E+03  0.14840479811E+03  0.00000000000E+00 0.  1.
          5    1    4    4  501    0  0.52678339630E+02 -0.17264077450E+03 -0.46938188252E+03  0.50290821083E+03  0.41800000000E+01 0.  1.
         -5    1    4    4    0  501 -0.62756924603E+02 -0.12132382623E+03 -0.27038647260E+03  0.30295910510E+03  0.41800000000E+01 0.  1.
</event>
<event>
11    1  0.8453735E-009  0.1366908E+03  0.7561462E-02  0.1111311E+00
         22   -1    0    0    0    0  0.00000000000E+00  0.00000000000E+00  0.34143484387E+03  0.34143484387E+03  0.00000000000E+00 0.  1.
         22   -1    0    0    0    0 -0.00000000000E+00 -0.00000000000E+00 -0.44343303691E+03  0.44343303691E+03  0.00000000000E+00 0. -1.
        -24    2    1    2    0    0  0.15939914901E+02  0.23661961846E+02 -0.30013198590E+03  0.31195014752E+03  0.80123131803E+02 0.  0.
         25    2    1    2    0    0 -0.58197968018E+02 -0.56471501049E+02 -0.86445295969E+02  0.17233498228E+03  0.12510205039E+03 0.  0.
         24    2    1    2    0    0  0.42258053117E+02  0.32809539203E+02  0.28457908883E+03  0.30058275098E+03  0.80638225859E+02 0.  0.
        -11    1    5    5    0    0  0.46056067057E+02  0.30661723938E+02  0.28907223410E+03  0.29431965472E+03  0.00000000000E+00 0.  1.
         12    1    5    5    0    0 -0.37980139405E+01  0.21478152648E+01 -0.44931452694E+01  0.62630962563E+01  0.00000000000E+00 0. -1.
         11    1    3    3    0    0  0.21569408376E+02  0.51580658621E+02 -0.17970525017E+03  0.18820143639E+03  0.00000000000E+00 0. -1.
        -12    1    3    3    0    0 -0.56294934744E+01 -0.27918696775E+02 -0.12042673574E+03  0.12374871113E+03  0.00000000000E+00 0.  1.
          5    1    4    4  501    0  0.10157807011E+02 -0.14788782695E+02  0.27446445737E+02  0.33055542961E+02  0.41800000000E+01 0.  1.
         -5    1    4    4    0  501 -0.68355775030E+02 -0.41682718354E+02 -0.11389174171E+03  0.13927943932E+03  0.41800000000E+01 0.  1.
</event>
