<event>
11    1  0.1704459E-009  0.1858752E+03  0.7561462E-02  0.1064987E+00
         22   -1    0    0    0    0  0.00000000000E+00  0.00000000000E+00  0.36798847522E+03  0.36798847522E+03  0.00000000000E+00 0.  1.
         22   -1    0    0    0    0 -0.00000000000E+00 -0.00000000000E+00 -0.21371495374E+03  0.21371495374E+03  0.00000000000E+00 0.  1.
         25    2    1    2    0    0  0.43759687272E+02  0.11478036509E+02 -0.17176968448E+02  0.13412367326E+03  0.12508979148E+03 0.  0.
        -24    2    1    2    0    0 -0.27897382660E+02 -0.17595062416E+03 -0.18869697723E+01  0.19528752004E+03  0.79979802002E+02 0.  0.
         24    2    1    2    0    0 -0.15862304612E+02  0.16447258765E+03  0.17333745970E+03  0.25229223565E+03  0.79389246361E+02 0.  0.
        -11    1    5    5    0    0 -0.66366423338E+01  0.86861930505E+02  0.35974498343E+02  0.94250753438E+02  0.00000000000E+00 0.  1.
         12    1    5    5    0    0 -0.92256622781E+01  0.77610657146E+02  0.13736296136E+03  0.15804148221E+03  0.00000000000E+00 0. -1.
         13    1    4    4    0    0 -0.25086889681E+02 -0.25776119252E+02  0.23487593235E+02  0.42958437978E+02  0.00000000000E+00 0. -1.
        -14    1    4    4    0    0 -0.28104929795E+01 -0.15017450491E+03 -0.25374563007E+02  0.15232908207E+03  0.00000000000E+00 0.  1.
          5    1    3    3  501    0  0.72443681372E+02  0.77939961428E+01 -0.51293797780E+02  0.89204032629E+02  0.41800000000E+01 0. -1.
         -5    1    3    3    0  501 -0.28683994099E+02  0.36840403657E+01  0.34116829332E+02  0.44919640633E+02  0.41800000000E+01 0. -1.
</event>
<event>
11    1  0.1704459E-009  0.2004985E+03  0.7561462E-02  0.1054172E+00
         22   -1    0    0    0    0  0.00000000000E+00  0.00000000000E+00  0.21371559177E+03  0.21371559177E+03  0.00000000000E+00 0. -1.
         22   -1    0    0    0    0 -0.00000000000E+00 -0.00000000000E+00 -0.35958128714E+03  0.35958128714E+03  0.00000000000E+00 0.  1.
         25    2    1    2    0    0  0.16355451224E+03  0.27804448267E+02 -0.18758589527E+03  0.27992464637E+03  0.12508466623E+03 0.  0.
         24    2    1    2    0    0 -0.11442184034E+03 -0.92311502929E+02  0.60644693536E+02  0.17820466936E+03  0.80407426326E+02 0.  0.
        -24    2    1    2    0    0 -0.49132671904E+02  0.64507054661E+02 -0.18924493643E+02  0.11516756318E+03  0.79562878275E+02 0.  0.
        -11    1    4    4    0    0 -0.11643819008E+02  0.25602492166E+01 -0.15022192235E+02  0.19178103573E+02  0.00000000000E+00 0.  1.
         12    1    4    4    0    0 -0.10277802133E+03 -0.94871752145E+02  0.75666885770E+02  0.15902656578E+03  0.00000000000E+00 0. -1.
         13    1    5    5    0    0 -0.45986910940E+02  0.76704905591E+02  0.34392184487E+01  0.89500093536E+02  0.00000000000E+00 0. -1.
        -14    1    5    5    0    0 -0.31457609648E+01 -0.12197850929E+02 -0.22363712091E+02  0.25667469643E+02  0.00000000000E+00 0.  1.
          5    1    3    3  501    0  0.15931619167E+03  0.25895192921E+02 -0.20527366950E+03  0.26116462573E+03  0.41800000000E+01 0. -1.
         -5    1    3    3    0  501  0.42383205707E+01  0.19092553460E+01  0.17687774230E+02  0.18760020640E+02  0.41800000000E+01 0. -1.
</event>
<event>
11    1  0.1704459E-009  0.7968906E+03  0.7561462E-02  0.8900562E-01
         22   -1    0    0    0    0  0.00000000000E+00  0.00000000000E+00  0.10400339849E+03  0.10400339849E+03  0.00000000000E+00 0.  1.
         22   -1    0    0    0    0 -0.00000000000E+00 -0.00000000000E+00 -0.15264758389E+04  0.15264758389E+04  0.00000000000E+00 0.  1.
         25    2    1    2    0    0  0.15479695481E+03  0.25840040302E+03 -0.11133487788E+04  0.11601404468E+04  0.12508991794E+03 0.  0.
        -24    2    1    2    0    0 -0.85746824580E+02 -0.95250079997E+02 -0.17746912212E+03  0.23323042874E+03  0.80473895863E+02 0.  0.
         24    2    1    2    0    0 -0.69050130229E+02 -0.16315032302E+03 -0.13165453953E+03  0.23710836189E+03  0.86611252799E+02 0.  0.
        -11    1    5    5    0    0 -0.37193476071E+02 -0.11392151822E+02 -0.10406166105E+02  0.40266910465E+02  0.00000000000E+00 0.  1.
         12    1    5    5    0    0 -0.31856654158E+02 -0.15175817120E+03 -0.12124837343E+03  0.19684145142E+03  0.00000000000E+00 0. -1.
         11    1    4    4    0    0 -0.65136954382E+02 -0.16162021656E+02 -0.59336578596E+02  0.89581601513E+02  0.00000000000E+00 0. -1.
        -12    1    4    4    0    0 -0.20609870198E+02 -0.79088058341E+02 -0.11813254353E+03  0.14364882722E+03  0.00000000000E+00 0.  1.
          5    1    3    3  501    0  0.86262246218E+02  0.45163841199E+02 -0.25351373803E+03  0.27160197983E+03  0.41800000000E+01 0.  1.
         -5    1    3    3    0  501  0.68534708591E+02  0.21323656182E+03 -0.85983504072E+03  0.88853846694E+03  0.41800000000E+01 0.  1.
</event>
<event>
11    1  0.1704459E-009  0.3471386E+03  0.7561462E-02  0.9820050E-01
         22   -1    0    0    0    0  0.00000000000E+00  0.00000000000E+00  0.53271328075E+03  0.53271328075E+03  0.00000000000E+00 0. -1.
         22   -1    0    0    0    0 -0.00000000000E+00 -0.00000000000E+00 -0.43337264591E+03  0.43337264591E+03  0.00000000000E+00 0.  1.
         25    2    1    2    0    0  0.25751592026E+03 -0.33366026114E+02 -0.31065833086E+02  0.28989572793E+03  0.12508679467E+03 0.  0.
         24    2    1    2    0    0 -0.41912664383E+03  0.53616510579E+02 -0.33377226484E+02  0.43170105496E+03  0.81913904985E+02 0.  0.
        -24    2    1    2    0    0  0.16161072358E+03 -0.20250484465E+02  0.16378369441E+03  0.24448914378E+03  0.80135727208E+02 0.  0.
        -11    1    4    4    0    0 -0.41453781693E+03  0.62535143585E+02 -0.27621796668E+02  0.42013713178E+03  0.00000000000E+00 0.  1.
         12    1    4    4    0    0 -0.45888269051E+01 -0.89186330060E+01 -0.57554298157E+01  0.11563923185E+02  0.00000000000E+00 0. -1.
         13    1    5    5    0    0  0.16243236572E+03 -0.33606489427E+02  0.16027611916E+03  0.23065581271E+03  0.00000000000E+00 0. -1.
        -14    1    5    5    0    0 -0.82164213886E+00  0.13356004963E+02  0.35075752517E+01  0.13833331071E+02  0.00000000000E+00 0.  1.
          5    1    3    3  501    0  0.29252893504E+02  0.81523007153E+01  0.37023279646E+02  0.48066489586E+02  0.41800000000E+01 0.  1.
         -5    1    3    3    0  501  0.22826302675E+03 -0.41518326829E+02 -0.68089112732E+02  0.24182923834E+03  0.41800000000E+01 0.  1.
</event>
<event>
11    1  0.1704459E-009  0.2950234E+03  0.7561462E-02  0.1002320E+00
         22   -1    0    0    0    0  0.00000000000E+00  0.00000000000E+00  0.11635574403E+04  0.11635574403E+04  0.00000000000E+00 0. -1.
         22   -1    0    0    0    0 -0.00000000000E+00 -0.00000000000E+00 -0.20629674433E+03  0.20629674433E+03  0.00000000000E+00 0. -1.
         25    2    1    2    0    0 -0.10636478453E+03 -0.27959936900E+03  0.25947343980E+02  0.32528534698E+03  0.12509203718E+03 0.  0.
         24    2    1    2    0    0  0.75079824026E+02  0.20317067834E+03  0.22706520556E+03  0.32904615124E+03  0.98982107242E+02 0.  0.
        -24    2    1    2    0    0  0.31284960507E+02  0.76428690658E+02  0.70424814641E+03  0.71552268640E+03  0.95849723651E+02 0.  0.
        -11    1    4    4    0    0 -0.10563763222E+00 -0.24293942213E+01  0.42895805481E+02  0.42964674367E+02  0.00000000000E+00 0.  1.
         12    1    4    4    0    0  0.75185461659E+02  0.20560007256E+03  0.18416940008E+03  0.28608147687E+03  0.00000000000E+00 0. -1.
         11    1    5    5    0    0  0.58353309619E+02  0.40882590862E+02  0.55997816379E+03  0.56449272705E+03  0.00000000000E+00 0. -1.
        -12    1    5    5    0    0 -0.27068349112E+02  0.35546099796E+02  0.14426998262E+03  0.15102995934E+03  0.00000000000E+00 0.  1.
          5    1    3    3  501    0 -0.11176024416E+03 -0.28665601642E+03  0.11623129684E+02  0.30791978415E+03  0.41800000000E+01 0. -1.
         -5    1    3    3    0  501  0.53954596221E+01  0.70566474212E+01  0.14324214296E+02  0.17365562834E+02  0.41800000000E+01 0. -1.
</event>
<event>
11    1  0.1704459E-009  0.1837171E+03  0.7561462E-02  0.1066675E+00
         22   -1    0    0    0    0  0.00000000000E+00  0.00000000000E+00  0.90883345447E+02  0.90883345447E+02  0.00000000000E+00 0. -1.
         22   -1    0    0    0    0 -0.00000000000E+00 -0.00000000000E+00 -0.85096227381E+03  0.85096227381E+03  0.00000000000E+00 0.  1.
         25    2    1    2    0    0 -0.34520716753E+02 -0.12728509266E+03 -0.55372412739E+03  0.58279553645E+03  0.12508818229E+03 0.  0.
        -24    2    1    2    0    0  0.67284250272E+02 -0.27421816979E+02 -0.12094174174E+03  0.16258496183E+03  0.80795040303E+02 0.  0.
         24    2    1    2    0    0 -0.32763533519E+02  0.15470690963E+03 -0.85413059235E+02  0.19646512098E+03  0.79344036058E+02 0.  0.
        -13    1    5    5    0    0 -0.31688949768E+02  0.26648841958E+02 -0.47277127512E+02  0.62844865350E+02  0.00000000000E+00 0.  1.
         14    1    5    5    0    0 -0.10745837504E+01  0.12805806768E+03 -0.38135931723E+02  0.13362025563E+03  0.00000000000E+00 0. -1.
         13    1    4    4    0    0  0.41346441800E+02 -0.29349309903E+00 -0.61367164640E+01  0.41800402829E+02  0.00000000000E+00 0. -1.
        -14    1    4    4    0    0  0.25937808472E+02 -0.27128323880E+02 -0.11480502527E+03  0.12078455900E+03  0.00000000000E+00 0.  1.
          5    1    3    3  501    0 -0.77630690970E+02 -0.51054487241E+02 -0.31672105291E+03  0.33009511145E+03  0.41800000000E+01 0.  1.
         -5    1    3    3    0  501  0.43109974217E+02 -0.76230605414E+02 -0.23700307449E+03  0.25270042500E+03  0.41800000000E+01 0.  1.
</event>
<event>
11    1  0.1704459E-009  0.2105262E+03  0.7561462E-02  0.1047320E+00
         22   -1    0    0    0    0  0.00000000000E+00  0.00000000000E+00  0.41928694479E+03  0.41928694479E+03  0.00000000000E+00 0.  1.
         22   -1    0    0    0    0 -0.00000000000E+00 -0.00000000000E+00 -0.10619019042E+04  0.10619019042E+04  0.00000000000E+00 0. -1.
         25    2    1    2    0    0 -0.15240303501E+03 -0.10589834337E+03 -0.68707931594E+03  0.72261054108E+03  0.12508742334E+03 0.  0.
        -24    2    1    2    0    0  0.95857601787E+02  0.11994149318E+03 -0.32912460218E+03  0.37198140864E+03  0.80451991926E+02 0.  0.
         24    2    1    2    0    0  0.56545433218E+02 -0.14043149808E+02  0.37358895875E+03  0.38659689923E+03  0.80584466967E+02 0.  0.
        -11    1    5    5    0    0  0.39653175470E+02  0.12450897079E+01  0.35495133318E+03  0.35716155098E+03  0.00000000000E+00 0.  1.
         12    1    5    5    0    0  0.16892257748E+02 -0.15288239516E+02  0.18637625570E+02  0.29435348243E+02  0.00000000000E+00 0. -1.
         13    1    4    4    0    0  0.10518612555E+03  0.79720258530E+02 -0.24613717099E+03  0.27929007783E+03  0.00000000000E+00 0. -1.
        -14    1    4    4    0    0 -0.93285237616E+01  0.40221234650E+02 -0.82987431186E+02  0.92691330810E+02  0.00000000000E+00 0.  1.
          5    1    3    3  501    0 -0.40698419305E+02 -0.89521692326E+02 -0.44078884221E+03  0.45164451790E+03  0.41800000000E+01 0.  1.
         -5    1    3    3    0  501 -0.11170461570E+03 -0.16376651047E+02 -0.24629047373E+03  0.27096602318E+03  0.41800000000E+01 0.  1.
</event>
<event>
11    1  0.1704459E-009  0.7568972E+03  0.7561462E-02  0.8952418E-01
         22   -1    0    0    0    0  0.00000000000E+00  0.00000000000E+00  0.23779410431E+04  0.23779410431E+04  0.00000000000E+00 0. -1.
         22   -1    0    0    0    0 -0.00000000000E+00 -0.00000000000E+00 -0.14376164349E+04  0.14376164349E+04  0.00000000000E+00 0. -1.
         25    2    1    2    0    0  0.71829180928E+03  0.23181093715E+03 -0.11164500866E+04  0.13534355922E+04  0.12509065669E+03 0.  0.
         24    2    1    2    0    0 -0.72308192174E+03 -0.22513856389E+02  0.48335842857E+03  0.87379144424E+03  0.80757527686E+02 0.  0.
        -24    2    1    2    0    0  0.47901124548E+01 -0.20929708077E+03  0.15734162662E+04  0.15883304417E+04  0.57676961835E+02 0.  0.
        -13    1    4    4    0    0 -0.45449132853E+02 -0.20125750711E+02  0.42209989569E+02  0.65210066234E+02  0.00000000000E+00 0.  1.
         14    1    4    4    0    0 -0.67763278888E+03 -0.23881056777E+01  0.44114843900E+03  0.80858137800E+03  0.00000000000E+00 0. -1.
         13    1    5    5    0    0 -0.29102413834E+01 -0.20905866760E+03  0.15323308473E+04  0.15465289592E+04  0.00000000000E+00 0. -1.
        -14    1    5    5    0    0  0.77003538383E+01 -0.23841316547E+00  0.41085418934E+02  0.41801482499E+02  0.00000000000E+00 0.  1.
          5    1    3    3  501    0  0.17137626916E+03  0.11112128993E+03 -0.27350080887E+03  0.34137652462E+03  0.41800000000E+01 0.  1.
         -5    1    3    3    0  501  0.54691554012E+03  0.12068964723E+03 -0.84294927772E+03  0.10120590675E+04  0.41800000000E+01 0.  1.
</event>
<event>
11    1  0.1704459E-009  0.1362233E+03  0.7561462E-02  0.1111850E+00
         22   -1    0    0    0    0  0.00000000000E+00  0.00000000000E+00  0.10126928150E+03  0.10126928150E+03  0.00000000000E+00 0.  1.
         22   -1    0    0    0    0 -0.00000000000E+00 -0.00000000000E+00 -0.61784435420E+03  0.61784435420E+03  0.00000000000E+00 0.  1.
         25    2    1    2    0    0  0.17430930763E+02 -0.17888257436E+02 -0.33822314189E+03  0.36147776922E+03  0.12508979509E+03 0.  0.
         24    2    1    2    0    0 -0.55931142517E+02  0.83373342122E+02 -0.20620280852E+03  0.24312995799E+03  0.80704221419E+02 0.  0.
        -24    2    1    2    0    0  0.38500211754E+02 -0.65485084686E+02  0.27850877705E+02  0.11450590849E+03  0.81026965065E+02 0.  0.
        -11    1    4    4    0    0 -0.44385825665E+02  0.97187252839E+02 -0.15034564995E+03  0.18444315681E+03  0.00000000000E+00 0.  1.
         12    1    4    4    0    0 -0.11545316852E+02 -0.13813910717E+02 -0.55857158566E+02  0.58686801187E+02  0.00000000000E+00 0. -1.
         11    1    5    5    0    0  0.37551194783E+02 -0.62501972333E+02 -0.12547283372E+02  0.73986641329E+02  0.00000000000E+00 0. -1.
        -12    1    5    5    0    0  0.94901697135E+00 -0.29831123527E+01  0.40398161077E+02  0.40519267156E+02  0.00000000000E+00 0.  1.
          5    1    3    3  501    0 -0.65382090766E+01  0.77435278548E+00 -0.32950661273E+03  0.32959888961E+03  0.41800000000E+01 0.  1.
         -5    1    3    3    0  501  0.23969139839E+02 -0.18662610221E+02 -0.87165291567E+01  0.31878879614E+02  0.41800000000E+01 0.  1.
</event>
<event>
11    1  0.1704459E-009  0.3051472E+03  0.7561462E-02  0.9980361E-01
         22   -1    0    0    0    0  0.00000000000E+00  0.00000000000E+00  0.49711717882E+03  0.49711717882E+03  0.00000000000E+00 0. -1.
         22   -1    0    0    0    0 -0.00000000000E+00 -0.00000000000E+00 -0.77883907627E+03  0.77883907627E+03  0.00000000000E+00 0. -1.
         25    2    1    2    0    0 -0.30734661104E-01 -0.46391149994E+02 -0.57491781084E+03  0.59019518956E+03  0.12509089821E+03 0.  0.
        -24    2    1    2    0    0  0.25538665111E+03 -0.11692179088E+03  0.69150003618E+02  0.29949848537E+03  0.77618122839E+02 0.  0.
         24    2    1    2    0    0 -0.25535591645E+03  0.16331294087E+03  0.22404590978E+03  0.38626258016E+03  0.84406459624E+02 0.  0.
        -11    1    5    5    0    0 -0.96155805684E+02  0.97448024434E+02  0.13523039117E+03  0.19243002658E+03  0.00000000000E+00 0.  1.
         12    1    5    5    0    0 -0.15920011076E+03  0.65864916441E+02  0.88815518607E+02  0.19383255359E+03  0.00000000000E+00 0. -1.
         11    1    4    4    0    0  0.15760387470E+03 -0.48802760405E+02  0.72655387629E+02  0.18027616618E+03  0.00000000000E+00 0. -1.
        -12    1    4    4    0    0  0.97782776413E+02 -0.68119030475E+02 -0.35053840104E+01  0.11922231919E+03  0.00000000000E+00 0.  1.
          5    1    3    3  501    0 -0.31126136473E+02 -0.68444649164E+02 -0.20679033282E+03  0.22007548823E+03  0.41800000000E+01 0. -1.
         -5    1    3    3    0  501  0.31095401811E+02  0.22053499170E+02 -0.36812747802E+03  0.37011970133E+03  0.41800000000E+01 0. -1.
</event>
<event>
11    1  0.1704459E-009  0.4934636E+03  0.7561462E-02  0.9408247E-01
         22   -1    0    0    0    0  0.00000000000E+00  0.00000000000E+00  0.62434183123E+03  0.62434183123E+03  0.00000000000E+00 0. -1.
         22   -1    0    0    0    0 -0.00000000000E+00 -0.00000000000E+00 -0.50905906237E+03  0.50905906237E+03  0.00000000000E+00 0. -1.
         25    2    1    2    0    0  0.21199282292E+03 -0.43605012759E+03 -0.11605118292E+03  0.51399992973E+03  0.12508948782E+03 0.  0.
         24    2    1    2    0    0 -0.14957105026E+03  0.44164204778E+03  0.20163008109E+03  0.51263673731E+03  0.68720720297E+02 0.  0.
        -24    2    1    2    0    0 -0.62421772661E+02 -0.55919201894E+01  0.29703870693E+02  0.10676422656E+03  0.81169778032E+02 0.  0.
        -13    1    4    4    0    0 -0.36947865747E+02  0.21149755316E+03  0.10239214104E+03  0.23786658093E+03  0.00000000000E+00 0.  1.
         14    1    4    4    0    0 -0.11262318451E+03  0.23014449462E+03  0.99237940049E+02  0.27477015638E+03  0.00000000000E+00 0. -1.
         11    1    5    5    0    0 -0.63710293464E+02  0.78833124618E+01 -0.98597198666E+01  0.64948919810E+02  0.00000000000E+00 0. -1.
        -12    1    5    5    0    0  0.12885208027E+01 -0.13475232651E+02  0.39563590560E+02  0.41815306753E+02  0.00000000000E+00 0.  1.
          5    1    3    3  501    0  0.19925127439E+03 -0.35266856946E+03 -0.52852134209E+02  0.40851806658E+03  0.41800000000E+01 0.  1.
         -5    1    3    3    0  501  0.12741548524E+02 -0.83381558130E+02 -0.63199048707E+02  0.10548186314E+03  0.41800000000E+01 0.  1.
</event>
<event>
11    1  0.1704459E-009  0.1963305E+03  0.7561462E-02  0.1057149E+00
         22   -1    0    0    0    0  0.00000000000E+00  0.00000000000E+00  0.13543443087E+04  0.13543443087E+04  0.00000000000E+00 0.  1.
         22   -1    0    0    0    0 -0.00000000000E+00 -0.00000000000E+00 -0.82107145306E+02  0.82107145306E+02  0.00000000000E+00 0.  1.
         25    2    1    2    0    0  0.92336149265E+02  0.41172050299E+02  0.16144246323E+03  0.22788604341E+03  0.12508907890E+03 0.  0.
        -24    2    1    2    0    0 -0.12599113975E+03 -0.19921266554E+03  0.37848009275E+03  0.45433303876E+03  0.87246066393E+02 0.  0.
         24    2    1    2    0    0  0.33654990483E+02  0.15804061524E+03  0.73231460746E+03  0.75423237187E+03  0.80450556450E+02 0.  0.
        -11    1    5    5    0    0  0.58114216812E+02  0.11674591895E+03  0.58241287931E+03  0.59683467877E+03  0.00000000000E+00 0.  1.
         12    1    5    5    0    0 -0.24459226330E+02  0.41294696293E+02  0.14990172814E+03  0.15739769310E+03  0.00000000000E+00 0. -1.
         11    1    4    4    0    0 -0.16729402912E+02 -0.77142906221E+02  0.18288345481E+03  0.19919151324E+03  0.00000000000E+00 0. -1.
        -12    1    4    4    0    0 -0.10926173684E+03 -0.12206975932E+03  0.19559663793E+03  0.25514152553E+03  0.00000000000E+00 0.  1.
          5    1    3    3  501    0  0.11418795811E+02 -0.40989435254E+02  0.63383682056E+02  0.76455779711E+02  0.41800000000E+01 0.  1.
         -5    1    3    3    0  501  0.80917353454E+02  0.82161485553E+02  0.98058781177E+02  0.15143026370E+03  0.41800000000E+01 0.  1.
</event>
<event>
11    1  0.1704459E-009  0.4181159E+03  0.7561462E-02  0.9597768E-01
         22   -1    0    0    0    0  0.00000000000E+00  0.00000000000E+00  0.19587411847E+04  0.19587411847E+04  0.00000000000E+00 0.  1.
         22   -1    0    0    0    0 -0.00000000000E+00 -0.00000000000E+00 -0.21265387008E+03  0.21265387008E+03  0.00000000000E+00 0.  1.
         25    2    1    2    0    0  0.41441926370E+03 -0.16012412542E+01  0.11976671674E+03  0.44915199387E+03  0.12509019568E+03 0.  0.
        -24    2    1    2    0    0 -0.35610196210E+03  0.55469519303E+02  0.72215880051E+03  0.81116260608E+03  0.81153960880E+02 0.  0.
         24    2    1    2    0    0 -0.58317301604E+02 -0.53868278048E+02  0.90416179737E+03  0.91108045483E+03  0.79097030970E+02 0.  0.
        -13    1    5    5    0    0  0.19563869701E+02 -0.11546694359E+02  0.22932342546E+03  0.23044588218E+03  0.00000000000E+00 0.  1.
         14    1    5    5    0    0 -0.77881171305E+02 -0.42321583689E+02  0.67483837190E+03  0.68063457265E+03  0.00000000000E+00 0. -1.
         11    1    4    4    0    0  0.24653510768E+01 -0.33077609547E+01  0.21195332441E+01  0.46380663685E+01  0.00000000000E+00 0. -1.
        -12    1    4    4    0    0 -0.35856731318E+03  0.58777280257E+02  0.72003926726E+03  0.80652453971E+03  0.00000000000E+00 0.  1.
          5    1    3    3  501    0  0.24620609307E+03 -0.49959104486E+02  0.31936025326E+02  0.25327995282E+03  0.41800000000E+01 0.  1.
         -5    1    3    3    0  501  0.16821317063E+03  0.48357863232E+02  0.87830691411E+02  0.19587204105E+03  0.41800000000E+01 0.  1.
</event>
<event>
11    1  0.1704459E-009  0.9036868E+03  0.7561462E-02  0.8776437E-01
         22   -1    0    0    0    0  0.00000000000E+00  0.00000000000E+00  0.26528809453E+03  0.26528809453E+03  0.00000000000E+00 0.  1.
         22   -1    0    0    0    0 -0.00000000000E+00 -0.00000000000E+00 -0.76958778264E+03  0.76958778264E+03  0.00000000000E+00 0.  1.
         25    2    1    2    0    0 -0.35201872083E+03 -0.17021437578E+03 -0.42082576216E+03  0.58790492549E+03  0.12509102998E+03 0.  0.
        -24    2    1    2    0    0  0.26508917865E+03  0.10554533730E+03 -0.97915703553E+02  0.31238608313E+03  0.81151026291E+02 0.  0.
         24    2    1    2    0    0  0.86929542184E+02  0.64669038479E+02  0.14441777606E+02  0.13458486855E+03  0.78521920885E+02 0.  0.
        -11    1    5    5    0    0  0.33505021382E+02 -0.15227573313E+02 -0.29119702253E+01  0.36918085235E+02  0.00000000000E+00 0.  1.
         12    1    5    5    0    0  0.53424520801E+02  0.79896611793E+02  0.17353747831E+02  0.97666783312E+02  0.00000000000E+00 0. -1.
         13    1    4    4    0    0  0.19910986249E+03  0.91626456416E+02 -0.10776251180E+03  0.24423943950E+03  0.00000000000E+00 0. -1.
        -14    1    4    4    0    0  0.65979316155E+02  0.13918880887E+02  0.98468082473E+01  0.68146643630E+02  0.00000000000E+00 0.  1.
          5    1    3    3  501    0 -0.73845663388E+02  0.64096474304E+01 -0.40125156720E+02  0.84390557429E+02  0.41800000000E+01 0. -1.
         -5    1    3    3    0  501 -0.27817305744E+03 -0.17662402321E+03 -0.38070060544E+03  0.50351436807E+03  0.41800000000E+01 0. -1.
</event>
<event>
11    1  0.1704459E-009  0.2990671E+04  0.7561462E-02  0.7750295E-01
         22   -1    0    0    0    0  0.00000000000E+00  0.00000000000E+00  0.25732912398E+04  0.25732912398E+04  0.00000000000E+00 0. -1.
         22   -1    0    0    0    0 -0.00000000000E+00 -0.00000000000E+00 -0.86893712438E+03  0.86893712438E+03  0.00000000000E+00 0. -1.
         25    2    1    2    0    0  0.10074175900E+04  0.30982221299E+03 -0.34228364236E+03  0.11152065557E+04  0.12509023003E+03 0.  0.
        -24    2    1    2    0    0 -0.54501348446E+03 -0.25342634688E+03  0.88483898286E+03  0.10727272444E+04  0.80864724428E+02 0.  0.
         24    2    1    2    0    0 -0.46240410555E+03 -0.56395866109E+02  0.11617987749E+04  0.12542945641E+04  0.80500991992E+02 0.  0.
        -11    1    5    5    0    0 -0.34374373045E+03 -0.19390076724E+02  0.92223062750E+03  0.98440086225E+03  0.00000000000E+00 0.  1.
         12    1    5    5    0    0 -0.11866037510E+03 -0.37005789385E+02  0.23956814737E+03  0.26989370185E+03  0.00000000000E+00 0. -1.
         11    1    4    4    0    0 -0.15257682050E+03 -0.11113419687E+03  0.26082811991E+03  0.32196553232E+03  0.00000000000E+00 0. -1.
        -12    1    4    4    0    0 -0.39243666396E+03 -0.14229215001E+03  0.62401086295E+03  0.75076171203E+03  0.00000000000E+00 0.  1.
          5    1    3    3  501    0  0.70411448729E+03  0.21090750848E+03 -0.17772365859E+03  0.75621581547E+03  0.41800000000E+01 0.  1.
         -5    1    3    3    0  501  0.30330310272E+03  0.98914704512E+02 -0.16455998377E+03  0.35899074019E+03  0.41800000000E+01 0.  1.
</event>
<event>
11    1  0.1704459E-009  0.3613966E+03  0.7561462E-02  0.9771070E-01
         22   -1    0    0    0    0  0.00000000000E+00  0.00000000000E+00  0.25180712442E+03  0.25180712442E+03  0.00000000000E+00 0.  1.
         22   -1    0    0    0    0 -0.00000000000E+00 -0.00000000000E+00 -0.86518324274E+03  0.86518324274E+03  0.00000000000E+00 0.  1.
         25    2    1    2    0    0 -0.27507288735E+03 -0.20869085555E+03 -0.59424691828E+03  0.69856893666E+03  0.12510872404E+03 0.  0.
         24    2    1    2    0    0  0.24745205575E+03  0.20382018384E+03 -0.19112028783E+02  0.33171171531E+03  0.83019306150E+02 0.  0.
        -24    2    1    2    0    0  0.27620831598E+02  0.48706717078E+01 -0.17171254689E-01  0.86709715197E+02  0.82048404211E+02 0.  0.
        -13    1    4    4    0    0  0.15812100825E+03  0.13319472001E+03 -0.51995085308E+02  0.21318202454E+03  0.00000000000E+00 0.  1.
         14    1    4    4    0    0  0.89331047494E+02  0.70625463831E+02  0.32883056525E+02  0.11852969077E+03  0.00000000000E+00 0. -1.
         11    1    5    5    0    0  0.16405105909E+02  0.15046096648E+02 -0.38990647094E+02  0.44897473037E+02  0.00000000000E+00 0. -1.
        -12    1    5    5    0    0  0.11215725689E+02 -0.10175424940E+02  0.38973475840E+02  0.41812242160E+02  0.00000000000E+00 0.  1.
          5    1    3    3  501    0 -0.16654795529E+03 -0.48988139908E+02 -0.26393968891E+03  0.31594254390E+03  0.41800000000E+01 0.  1.
         -5    1    3    3    0  501 -0.10852493206E+03 -0.15970271564E+03 -0.33030722937E+03  0.38262639276E+03  0.41800000000E+01 0.  1.
</event>
<event>
11    1  0.1704459E-009  0.1600721E+03  0.7561462E-02  0.1087009E+00
         22   -1    0    0    0    0  0.00000000000E+00  0.00000000000E+00  0.64244078651E+03  0.64244078651E+03  0.00000000000E+00 0.  1.
         22   -1    0    0    0    0 -0.00000000000E+00 -0.00000000000E+00 -0.73483379651E+02  0.73483379651E+02  0.00000000000E+00 0. -1.
         25    2    1    2    0    0 -0.56289268162E+02 -0.36639989977E+02  0.14437646370E+03  0.20249578483E+03  0.12509599925E+03 0.  0.
         24    2    1    2    0    0 -0.86711938679E+02 -0.18583192904E+02  0.17451885268E+03  0.21140696128E+03  0.79823417418E+02 0.  0.
        -24    2    1    2    0    0  0.14300120684E+03  0.55223182881E+02  0.25006209047E+03  0.30202142005E+03  0.72020441468E+02 0.  0.
        -11    1    4    4    0    0 -0.22487292066E+02  0.16843875301E+02  0.11061039835E+03  0.11412298044E+03  0.00000000000E+00 0.  1.
         12    1    4    4    0    0 -0.64224646613E+02 -0.35427068205E+02  0.63908454325E+02  0.97283980842E+02  0.00000000000E+00 0. -1.
         11    1    5    5    0    0  0.12755853648E+03  0.28781156114E+02  0.15852669796E+03  0.20549999791E+03  0.00000000000E+00 0. -1.
        -12    1    5    5    0    0  0.15442670357E+02  0.26442026767E+02  0.91535392519E+02  0.96521422135E+02  0.00000000000E+00 0.  1.
          5    1    3    3  501    0 -0.94510871553E+02 -0.35723093034E+02  0.12014969163E+03  0.15704096605E+03  0.41800000000E+01 0.  1.
         -5    1    3    3    0  501  0.38221603391E+02 -0.91689694353E+00  0.24226772067E+02  0.45454818783E+02  0.41800000000E+01 0.  1.
</event>
<event>
11    1  0.1704459E-009  0.1447123E+03  0.7561462E-02  0.1102408E+00
         22   -1    0    0    0    0  0.00000000000E+00  0.00000000000E+00  0.21074648654E+04  0.21074648654E+04  0.00000000000E+00 0.  1.
         22   -1    0    0    0    0 -0.00000000000E+00 -0.00000000000E+00 -0.17650026613E+02  0.17650026613E+02  0.00000000000E+00 0. -1.
         25    2    1    2    0    0  0.36438338111E+02  0.52971759351E+02  0.50115488363E+03  0.52051603288E+03  0.12508782246E+03 0.  0.
        -24    2    1    2    0    0 -0.51938615161E+02  0.25608059463E+02  0.47245620276E+03  0.48259772354E+03  0.79575792686E+02 0.  0.
         24    2    1    2    0    0  0.15500277051E+02 -0.78579818814E+02  0.11162037524E+04  0.11220011356E+04  0.80998054906E+02 0.  0.
        -13    1    5    5    0    0  0.14184690446E+02 -0.23203073772E+02  0.83229307887E+03  0.83273726782E+03  0.00000000000E+00 0.  1.
         14    1    5    5    0    0  0.13155866051E+01 -0.55376745042E+02  0.28391067349E+03  0.28926386774E+03  0.00000000000E+00 0. -1.
         11    1    4    4    0    0  0.11908482247E+02  0.29187901235E+02  0.10541488730E+03  0.11002746926E+03  0.00000000000E+00 0. -1.
        -12    1    4    4    0    0 -0.63847097408E+02 -0.35798417718E+01  0.36704131547E+03  0.37257025428E+03  0.00000000000E+00 0.  1.
          5    1    3    3  501    0  0.28440290972E+02  0.16308476974E+01  0.43657192276E+03  0.43752031490E+03  0.41800000000E+01 0. -1.
         -5    1    3    3    0  501  0.79980471390E+01  0.51340911653E+02  0.64582960874E+02  0.82995717978E+02  0.41800000000E+01 0. -1.
</event>
<event>
11    1  0.1704459E-009  0.2496165E+03  0.7561462E-02  0.1024104E+00
         22   -1    0    0    0    0  0.00000000000E+00  0.00000000000E+00  0.37875695583E+03  0.37875695583E+03  0.00000000000E+00 0. -1.
         22   -1    0    0    0    0 -0.00000000000E+00 -0.00000000000E+00 -0.11324937289E+04  0.11324937289E+04  0.00000000000E+00 0. -1.
         25    2    1    2    0    0  0.22810087733E+03  0.21504571945E+02 -0.90268695029E+03  0.93967216255E+03  0.12509031137E+03 0.  0.
         24    2    1    2    0    0 -0.17828776811E+03 -0.38600293861E+02 -0.15493234509E+03  0.25257611940E+03  0.80710306624E+02 0.  0.
        -24    2    1    2    0    0 -0.49813109224E+02  0.17095721917E+02  0.30388252230E+03  0.31900240278E+03  0.81512796913E+02 0.  0.
        -13    1    4    4    0    0 -0.13558303735E+03  0.75099581823E+01 -0.94916341118E+02  0.16567519820E+03  0.00000000000E+00 0.  1.
         14    1    4    4    0    0 -0.42704730757E+02 -0.46110252044E+02 -0.60016003970E+02  0.86900921199E+02  0.00000000000E+00 0. -1.
         13    1    5    5    0    0 -0.52427099663E+02  0.42365994606E+02  0.25684611922E+03  0.26554360703E+03  0.00000000000E+00 0. -1.
        -14    1    5    5    0    0  0.26139904391E+01 -0.25270272690E+02  0.47036403085E+02  0.53458795749E+02  0.00000000000E+00 0.  1.
          5    1    3    3  501    0  0.30277110932E+02  0.11482960505E+02 -0.36824131224E+03  0.36968594545E+03  0.41800000000E+01 0.  1.
         -5    1    3    3    0  501  0.19782376640E+03  0.10021611439E+02 -0.53444563805E+03  0.56998621710E+03  0.41800000000E+01 0.  1.
</event>
<event>
11    1  0.1704459E-009  0.1719224E+03  0.7561462E-02  0.1076371E+00
         22   -1    0    0    0    0  0.00000000000E+00  0.00000000000E+00  0.10185359353E+04  0.10185359353E+04  0.00000000000E+00 0. -1.
         22   -1    0    0    0    0 -0.00000000000E+00 -0.00000000000E+00 -0.27214009201E+03  0.27214009201E+03  0.00000000000E+00 0. -1.
         25    2    1    2    0    0 -0.12704117539E+02 -0.79741719440E+02 -0.14323305483E+03  0.20659154459E+03  0.12507686387E+03 0.  0.
         24    2    1    2    0    0  0.29039807979E+02 -0.38317318052E+02 -0.69202783785E+02  0.11466293958E+03  0.77762697474E+02 0.  0.
        -24    2    1    2    0    0 -0.16335690440E+02  0.11805903749E+03  0.95883168190E+03  0.96942154314E+03  0.78836178020E+02 0.  0.
        -11    1    4    4    0    0 -0.19313835550E+02 -0.38494779537E+02 -0.32138295032E+02  0.53737717692E+02  0.00000000000E+00 0.  1.
         12    1    4    4    0    0  0.48353643529E+02  0.17746148410E+00 -0.37064488753E+02  0.60925221884E+02  0.00000000000E+00 0. -1.
         11    1    5    5    0    0 -0.40857946786E+01  0.36504686630E+02  0.60467507974E+03  0.60578976380E+03  0.00000000000E+00 0. -1.
        -12    1    5    5    0    0 -0.12249895761E+02  0.81554350863E+02  0.35415660217E+03  0.36363177934E+03  0.00000000000E+00 0.  1.
          5    1    3    3  501    0 -0.48492910541E+02 -0.90706925260E+02 -0.70756804866E+02  0.12491319585E+03  0.41800000000E+01 0. -1.
         -5    1    3    3    0  501  0.35788793001E+02  0.10965205819E+02 -0.72476249967E+02  0.81678348737E+02  0.41800000000E+01 0. -1.
</event>
<event>
11    1  0.1704459E-009  0.1402646E+03  0.7561462E-02  0.1107263E+00
         22   -1    0    0    0    0  0.00000000000E+00  0.00000000000E+00  0.41937783691E+03  0.41937783691E+03  0.00000000000E+00 0. -1.
         22   -1    0    0    0    0 -0.00000000000E+00 -0.00000000000E+00 -0.31700779982E+03  0.31700779982E+03  0.00000000000E+00 0. -1.
         25    2    1    2    0    0 -0.34836900553E+02 -0.46032579892E+02 -0.15447148635E+03  0.20698062643E+03  0.12508769551E+03 0.  0.
        -24    2    1    2    0    0  0.10599850235E+02  0.71244013122E+02 -0.10843408617E+03  0.15349098998E+03  0.81323223814E+02 0.  0.
         24    2    1    2    0    0  0.24237050317E+02 -0.25211433230E+02  0.36527560960E+03  0.37591402032E+03  0.81621251705E+02 0.  0.
        -13    1    5    5    0    0  0.49353599997E+01 -0.50339897724E+02  0.14951434662E+03  0.15783853436E+03  0.00000000000E+00 0.  1.
         14    1    5    5    0    0  0.19301690317E+02  0.25128464494E+02  0.21576126298E+03  0.21807548597E+03  0.00000000000E+00 0. -1.
         13    1    4    4    0    0  0.20299590025E+02  0.20350938714E+02 -0.95999565103E+02  0.10021053119E+03  0.00000000000E+00 0. -1.
        -14    1    4    4    0    0 -0.96997397892E+01  0.50893074408E+02 -0.12434521065E+02  0.53280458789E+02  0.00000000000E+00 0.  1.
          5    1    3    3  501    0  0.28420358162E+02  0.11665920880E+02 -0.10169360611E+03  0.10631496786E+03  0.41800000000E+01 0.  1.
         -5    1    3    3    0  501 -0.63257258714E+02 -0.57698500772E+02 -0.52777880239E+02  0.10066565856E+03  0.41800000000E+01 0.  1.
</event>
<event>
11    1  0.1704459E-009  0.1782782E+03  0.7561462E-02  0.1071044E+00
         22   -1    0    0    0    0  0.00000000000E+00  0.00000000000E+00  0.80540767305E+03  0.80540767305E+03  0.00000000000E+00 0. -1.
         22   -1    0    0    0    0 -0.00000000000E+00 -0.00000000000E+00 -0.94278021461E+02  0.94278021461E+02  0.00000000000E+00 0. -1.
         25    2    1    2    0    0  0.74308091532E+01 -0.10110928301E+03  0.98688637753E+02  0.18885077971E+03  0.12508743239E+03 0.  0.
         24    2    1    2    0    0 -0.73966528584E+02 -0.89573830027E+02  0.27771123445E+03  0.31151685984E+03  0.80154262823E+02 0.  0.
        -24    2    1    2    0    0  0.66535719431E+02  0.19068311303E+03  0.33472977939E+03  0.39931805496E+03  0.81386929241E+02 0.  0.
        -13    1    4    4    0    0 -0.38644886927E+02  0.14888248986E+01  0.11932489335E+03  0.12543553746E+03  0.00000000000E+00 0.  1.
         14    1    4    4    0    0 -0.35321641657E+02 -0.91062654925E+02  0.15838634110E+03  0.18608132238E+03  0.00000000000E+00 0. -1.
         11    1    5    5    0    0  0.66943617706E+02  0.13621516713E+03  0.18094459997E+03  0.23617148000E+03  0.00000000000E+00 0. -1.
        -12    1    5    5    0    0 -0.40789827468E+00  0.54467945907E+02  0.15378517942E+03  0.16314657496E+03  0.00000000000E+00 0.  1.
          5    1    3    3  501    0  0.11770331513E+02 -0.59556910479E+02 -0.19118391100E+02  0.63785198659E+02  0.41800000000E+01 0. -1.
         -5    1    3    3    0  501 -0.43395223599E+01 -0.41552372529E+02  0.11780702885E+03  0.12506558105E+03  0.41800000000E+01 0. -1.
</event>
<event>
11    1  0.1704459E-009  0.2822570E+03  0.7561462E-02  0.1007993E+00
         22   -1    0    0    0    0  0.00000000000E+00  0.00000000000E+00  0.16459817011E+03  0.16459817011E+03  0.00000000000E+00 0.  1.
         22   -1    0    0    0    0 -0.00000000000E+00 -0.00000000000E+00 -0.33127369394E+03  0.33127369394E+03  0.00000000000E+00 0. -1.
         25    2    1    2    0    0 -0.28841292891E+02 -0.47002717032E+02 -0.73540958189E+02  0.15523185736E+03  0.12509029308E+03 0.  0.
        -24    2    1    2    0    0  0.14933233481E+03  0.50456059572E+02 -0.20788124705E+02  0.17814219358E+03  0.80352565845E+02 0.  0.
         24    2    1    2    0    0 -0.12049104192E+03 -0.34533425402E+01 -0.72346440931E+02  0.16249781311E+03  0.81495490633E+02 0.  0.
        -11    1    5    5    0    0  0.70125486680E+01 -0.11063986312E+02  0.39917945281E+01  0.13693869267E+02  0.00000000000E+00 0.  1.
         12    1    5    5    0    0 -0.12750359058E+03  0.76106437722E+01 -0.76338235459E+02  0.14880394384E+03  0.00000000000E+00 0. -1.
         11    1    4    4    0    0  0.68847595611E+02 -0.15701489029E+02 -0.21956725828E+02  0.73950158812E+02  0.00000000000E+00 0. -1.
        -12    1    4    4    0    0  0.80484739195E+02  0.66157548601E+02  0.11686011235E+01  0.10419203477E+03  0.00000000000E+00 0.  1.
          5    1    3    3  501    0  0.14463651219E+02  0.32789185041E+02  0.32835522449E+01  0.36229573246E+02  0.41800000000E+01 0.  1.
         -5    1    3    3    0  501 -0.43304944110E+02 -0.79791902073E+02 -0.76824510434E+02  0.11900228411E+03  0.41800000000E+01 0.  1.
</event>
<event>
11    1  0.1704459E-009  0.2863342E+03  0.7561462E-02  0.1006147E+00
         22   -1    0    0    0    0  0.00000000000E+00  0.00000000000E+00  0.44327309421E+03  0.44327309421E+03  0.00000000000E+00 0.  1.
         22   -1    0    0    0    0 -0.00000000000E+00 -0.00000000000E+00 -0.25270682002E+03  0.25270682002E+03  0.00000000000E+00 0. -1.
         25    2    1    2    0    0 -0.16300654378E+03 -0.19142874053E+03  0.34608326155E+01  0.28084699148E+03  0.12508780613E+03 0.  0.
         24    2    1    2    0    0  0.20109979474E+03  0.17823612614E+03  0.13314960959E+03  0.31077894025E+03  0.81519856847E+02 0.  0.
        -24    2    1    2    0    0 -0.38093250958E+02  0.13192614390E+02  0.53955831985E+02  0.10435398250E+03  0.79708098814E+02 0.  0.
        -11    1    4    4    0    0  0.70862724050E+02  0.11724171631E+03  0.65902772805E+02  0.15202079189E+03  0.00000000000E+00 0.  1.
         12    1    4    4    0    0  0.13023707069E+03  0.60994409833E+02  0.67246836790E+02  0.15875814836E+03  0.00000000000E+00 0. -1.
         13    1    5    5    0    0  0.75700771575E+01 -0.69602068591E+01 -0.15635328881E+02  0.18714006971E+02  0.00000000000E+00 0. -1.
        -14    1    5    5    0    0 -0.45663328115E+02  0.20152821249E+02  0.69591160865E+02  0.85639975534E+02  0.00000000000E+00 0.  1.
          5    1    3    3  501    0 -0.47617696747E+02 -0.31578796516E+02 -0.50539575242E+02  0.76396246626E+02  0.41800000000E+01 0.  1.
         -5    1    3    3    0  501 -0.11538884703E+03 -0.15984994402E+03  0.54000407857E+02  0.20445074485E+03  0.41800000000E+01 0.  1.
</event>
<event>
11    1  0.2129810E-009  0.2630633E+04  0.7561462E-02  0.7848482E-01
         22   -1    0    0    0    0  0.00000000000E+00  0.00000000000E+00  0.16463311403E+04  0.16463311403E+04  0.00000000000E+00 0.  1.
         22   -1    0    0    0    0 -0.00000000000E+00 -0.00000000000E+00 -0.10508564626E+04  0.10508564626E+04  0.00000000000E+00 0.  1.
         25    2    1    2    0    0 -0.87201864031E+03  0.75216370335E+03 -0.30789040895E+03  0.11985863027E+04  0.12508347397E+03 0.  0.
         24    2    1    2    0    0  0.83550095383E+03 -0.65547371718E+03  0.79068632143E+03  0.13264352274E+04  0.80857379204E+02 0.  0.
        -24    2    1    2    0    0  0.36517686480E+02 -0.96689986171E+02  0.11267876525E+03  0.17216607284E+03  0.79133795851E+02 0.  0.
        -11    1    4    4    0    0  0.52611644617E+03 -0.36717906750E+03  0.45565687315E+03  0.78691941683E+03  0.00000000000E+00 0.  1.
         12    1    4    4    0    0  0.30938450766E+03 -0.28829464968E+03  0.33502944827E+03  0.53951581054E+03  0.00000000000E+00 0. -1.
         13    1    5    5    0    0  0.24740051099E+02 -0.81514556117E+02  0.12356726370E+03  0.15008518130E+03  0.00000000000E+00 0. -1.
        -14    1    5    5    0    0  0.11777635380E+02 -0.15175430054E+02 -0.10888498451E+02  0.22080891535E+02  0.00000000000E+00 0.  1.
          5    1    3    3  501    0 -0.63971252111E+03  0.62093685940E+03 -0.23581043064E+03  0.92218150308E+03  0.41800000000E+01 0.  1.
         -5    1    3    3    0  501 -0.23230611920E+03  0.13122684396E+03 -0.72079978312E+02  0.27640479964E+03  0.41800000000E+01 0.  1.
</event>
<event>
11    1  0.1704459E-009  0.1921463E+03  0.7561462E-02  0.1060221E+00
         22   -1    0    0    0    0  0.00000000000E+00  0.00000000000E+00  0.15270527634E+04  0.15270527634E+04  0.00000000000E+00 0. -1.
         22   -1    0    0    0    0 -0.00000000000E+00 -0.00000000000E+00 -0.71625253695E+02  0.71625253695E+02  0.00000000000E+00 0. -1.
         25    2    1    2    0    0 -0.72252882096E+02  0.35989397634E+02  0.42466040238E+03  0.45000473181E+03  0.12510829544E+03 0.  0.
         24    2    1    2    0    0 -0.64953065292E+02 -0.16424635493E+03  0.14176670052E+03  0.23678071276E+03  0.69076354554E+02 0.  0.
        -24    2    1    2    0    0  0.13720594739E+03  0.12825695730E+03  0.88900040684E+03  0.91189257256E+03  0.77142863812E+02 0.  0.
        -11    1    4    4    0    0 -0.45824174053E+01  0.61520306743E+01  0.12031810806E+02  0.14269215184E+02  0.00000000000E+00 0.  1.
         12    1    4    4    0    0 -0.60370647887E+02 -0.17039838561E+03  0.12973488972E+03  0.22251149758E+03  0.00000000000E+00 0. -1.
         11    1    5    5    0    0  0.10643377191E+03  0.12237419399E+03  0.61196967236E+03  0.63309594142E+03  0.00000000000E+00 0. -1.
        -12    1    5    5    0    0  0.30772175477E+02  0.58827633096E+01  0.27703073448E+03  0.27879663113E+03  0.00000000000E+00 0.  1.
          5    1    3    3  501    0 -0.13487705486E+02 -0.43369703194E+02  0.87746851918E+02  0.98893031988E+02  0.41800000000E+01 0. -1.
         -5    1    3    3    0  501 -0.58765176610E+02  0.79359100828E+02  0.33691355046E+03  0.35111169982E+03  0.41800000000E+01 0. -1.
</event>
<event>
11    1  0.1704459E-009  0.2046006E+03  0.7561462E-02  0.1051317E+00
         22   -1    0    0    0    0  0.00000000000E+00  0.00000000000E+00  0.22568886978E+03  0.22568886978E+03  0.00000000000E+00 0.  1.
         22   -1    0    0    0    0 -0.00000000000E+00 -0.00000000000E+00 -0.40212513250E+03  0.40212513250E+03  0.00000000000E+00 0.  1.
         25    2    1    2    0    0  0.20061460762E+02  0.73232282440E+01 -0.70591176390E+02  0.14520413490E+03  0.12508011324E+03 0.  0.
         24    2    1    2    0    0 -0.17387334673E+03  0.87135589201E+02 -0.17103097671E+03  0.27416109574E+03  0.89934197154E+02 0.  0.
        -24    2    1    2    0    0  0.15381188597E+03 -0.94458817445E+02  0.65185890367E+02  0.20844877163E+03  0.81370299465E+02 0.  0.
        -13    1    4    4    0    0 -0.14522723258E+03  0.80250545873E+02 -0.91793621720E+02  0.18962375427E+03  0.00000000000E+00 0.  1.
         14    1    4    4    0    0 -0.28646114145E+02  0.68850433275E+01 -0.79237354986E+02  0.84537341467E+02  0.00000000000E+00 0. -1.
         11    1    5    5    0    0  0.20540194915E+02  0.83974322137E+00 -0.15570582374E+02  0.25788520921E+02  0.00000000000E+00 0. -1.
        -12    1    5    5    0    0  0.13327169105E+03 -0.95298560666E+02  0.80756472741E+02  0.18266025071E+03  0.00000000000E+00 0.  1.
          5    1    3    3  501    0 -0.36010313302E+02 -0.39410839997E+02 -0.34164236507E+02  0.63518693543E+02  0.41800000000E+01 0.  1.
         -5    1    3    3    0  501  0.56071774064E+02  0.46734068241E+02 -0.36426939883E+02  0.81685441360E+02  0.41800000000E+01 0.  1.
</event>
<event>
11    1  0.1704459E-009  0.2408704E+03  0.7561462E-02  0.1028878E+00
         22   -1    0    0    0    0  0.00000000000E+00  0.00000000000E+00  0.87991871372E+03  0.87991871372E+03  0.00000000000E+00 0. -1.
         22   -1    0    0    0    0 -0.00000000000E+00 -0.00000000000E+00 -0.86681730434E+03  0.86681730434E+03  0.00000000000E+00 0.  1.
         25    2    1    2    0    0 -0.20897577668E+03  0.15621002540E+02 -0.81465752106E+03  0.85042867276E+03  0.12508860807E+03 0.  0.
        -24    2    1    2    0    0  0.99215514636E+02 -0.11008716470E+03  0.34933417593E+03  0.38756537477E+03  0.78801339307E+02 0.  0.
         24    2    1    2    0    0  0.10976026204E+03  0.94466162156E+02  0.47842475451E+03  0.50874197053E+03  0.94641301451E+02 0.  0.
        -11    1    5    5    0    0  0.71493986558E+02  0.61016610714E+02  0.15442646884E+03  0.18078150120E+03  0.00000000000E+00 0.  1.
         12    1    5    5    0    0  0.38266275482E+02  0.33449551443E+02  0.32399828567E+03  0.32796046933E+03  0.00000000000E+00 0. -1.
         13    1    4    4    0    0  0.10792288404E+03 -0.10497262283E+03  0.34529377223E+03  0.37668871709E+03  0.00000000000E+00 0. -1.
        -14    1    4    4    0    0 -0.87073693998E+01 -0.51145418630E+01  0.40404037018E+01  0.10876657685E+02  0.00000000000E+00 0.  1.
          5    1    3    3  501    0 -0.13510942178E+03  0.49313143632E+01 -0.28440162797E+03  0.31492956689E+03  0.41800000000E+01 0. -1.
         -5    1    3    3    0  501 -0.73866354901E+02  0.10689688177E+02 -0.53025589310E+03  0.53549910587E+03  0.41800000000E+01 0. -1.
</event>
<event>
11    1  0.1991421E-009  0.6212400E+03  0.7561462E-02  0.9157165E-01
         22   -1    0    0    0    0  0.00000000000E+00  0.00000000000E+00  0.94399093250E+03  0.94399093250E+03  0.00000000000E+00 0.  1.
         22   -1    0    0    0    0 -0.00000000000E+00 -0.00000000000E+00 -0.92420418791E+03  0.92420418791E+03  0.00000000000E+00 0.  1.
         25    2    1    2    0    0 -0.21987549032E+03 -0.57751390564E+03 -0.65067609277E+03  0.90603175489E+03  0.12508645299E+03 0.  0.
        -24    2    1    2    0    0  0.25888019995E+03  0.50072736575E+03  0.52264678068E+03  0.77326386067E+03  0.83848006109E+02 0.  0.
         24    2    1    2    0    0 -0.39004709629E+02  0.76786539895E+02  0.14781605668E+03  0.18889950484E+03  0.80099289861E+02 0.  0.
        -11    1    5    5    0    0 -0.48415356327E+02  0.86852579388E+02  0.14325783671E+03  0.17438527763E+03  0.00000000000E+00 0.  1.
         12    1    5    5    0    0  0.94106466981E+01 -0.10066039493E+02  0.45582199647E+01  0.14514227213E+02  0.00000000000E+00 0. -1.
         11    1    4    4    0    0  0.63156294705E+02  0.17954189519E+03  0.21676471917E+03  0.28846308805E+03  0.00000000000E+00 0. -1.
        -12    1    4    4    0    0  0.19572390525E+03  0.32118547056E+03  0.30588206151E+03  0.48480077262E+03  0.00000000000E+00 0.  1.
          5    1    3    3  501    0 -0.19368122287E+03 -0.34129346117E+03 -0.41955431424E+03  0.57448841392E+03  0.41800000000E+01 0. -1.
         -5    1    3    3    0  501 -0.26194267452E+02 -0.23622044448E+03 -0.23112177853E+03  0.33154334098E+03  0.41800000000E+01 0. -1.
</event>
<event>
11    1  0.1704459E-009  0.1401441E+03  0.7561462E-02  0.1107398E+00
         22   -1    0    0    0    0  0.00000000000E+00  0.00000000000E+00  0.88064134710E+03  0.88064134710E+03  0.00000000000E+00 0. -1.
         22   -1    0    0    0    0 -0.00000000000E+00 -0.00000000000E+00 -0.40050082236E+02  0.40050082236E+02  0.00000000000E+00 0.  1.
         25    2    1    2    0    0  0.28213291523E+02 -0.60931074696E+02  0.16828938398E+03  0.22016792572E+03  0.12507602917E+03 0.  0.
        -24    2    1    2    0    0  0.10398993255E+02  0.61942753737E+02  0.39327660457E+03  0.40750739310E+03  0.86317691836E+02 0.  0.
         24    2    1    2    0    0 -0.38612284778E+02 -0.10116790410E+01  0.27902527632E+03  0.29301611053E+03  0.80693272175E+02 0.  0.
        -13    1    5    5    0    0 -0.42571939749E+02  0.18284614397E+01  0.58171105412E+02  0.72108188370E+02  0.00000000000E+00 0.  1.
         14    1    5    5    0    0  0.39596549702E+01 -0.28401404808E+01  0.22085417090E+03  0.22090792216E+03  0.00000000000E+00 0. -1.
         13    1    4    4    0    0 -0.63861803704E+01  0.51855526984E+01 -0.14627766761E+01  0.83554157356E+01  0.00000000000E+00 0. -1.
        -14    1    4    4    0    0  0.16785173625E+02  0.56757201038E+02  0.39473938125E+03  0.39915197736E+03  0.00000000000E+00 0.  1.
          5    1    3    3  501    0 -0.24722129282E+02 -0.59352961632E+02  0.15121183352E+03  0.16436681151E+03  0.41800000000E+01 0. -1.
         -5    1    3    3    0  501  0.52935420805E+02 -0.15781130630E+01  0.17077550461E+02  0.55801114204E+02  0.41800000000E+01 0. -1.
</event>
<event>
11    1  0.1704459E-009  0.4490626E+03  0.7561462E-02  0.9515149E-01
         22   -1    0    0    0    0  0.00000000000E+00  0.00000000000E+00  0.10825887704E+04  0.10825887704E+04  0.00000000000E+00 0. -1.
         22   -1    0    0    0    0 -0.00000000000E+00 -0.00000000000E+00 -0.82003262097E+03  0.82003262097E+03  0.00000000000E+00 0. -1.
         25    2    1    2    0    0 -0.13356617956E+03 -0.25971662508E+03 -0.54735540872E+03  0.63288093543E+03  0.12509070834E+03 0.  0.
        -24    2    1    2    0    0  0.43896217951E+03  0.42969010173E+03  0.50966449397E+03  0.80216594541E+03  0.79943286080E+02 0.  0.
         24    2    1    2    0    0 -0.30539599995E+03 -0.16997347665E+03  0.30024706418E+03  0.46757451053E+03  0.79497948408E+02 0.  0.
        -11    1    5    5    0    0 -0.17538413690E+03 -0.70006204024E+02  0.11931209893E+03  0.22337376979E+03  0.00000000000E+00 0.  1.
         12    1    5    5    0    0 -0.13001186304E+03 -0.99967272630E+02  0.18093496525E+03  0.24420074074E+03  0.00000000000E+00 0. -1.
         13    1    4    4    0    0  0.15842814511E+03  0.19826261155E+03  0.17819041326E+03  0.31009573309E+03  0.00000000000E+00 0. -1.
        -14    1    4    4    0    0  0.28053403439E+03  0.23142749018E+03  0.33147408072E+03  0.49207021232E+03  0.00000000000E+00 0.  1.
          5    1    3    3  501    0 -0.12614848008E+03 -0.12414650000E+03 -0.36315366425E+03  0.40400971368E+03  0.41800000000E+01 0.  1.
         -5    1    3    3    0  501 -0.74176994777E+01 -0.13557012508E+03 -0.18420174446E+03  0.22887122175E+03  0.41800000000E+01 0.  1.
</event>
<event>
11    1  0.1704459E-009  0.2703800E+03  0.7561462E-02  0.1013570E+00
         22   -1    0    0    0    0  0.00000000000E+00  0.00000000000E+00  0.12824140020E+04  0.12824140020E+04  0.00000000000E+00 0.  1.
         22   -1    0    0    0    0 -0.00000000000E+00 -0.00000000000E+00 -0.11027294111E+03  0.11027294111E+03  0.00000000000E+00 0.  1.
         25    2    1    2    0    0 -0.18768874569E+03 -0.12036499929E+03  0.44532683292E+03  0.51349514533E+03  0.12508588190E+03 0.  0.
        -24    2    1    2    0    0  0.26585528927E+03 -0.13310494167E+01  0.24767339946E+03  0.37227922885E+03  0.81048781028E+02 0.  0.
         24    2    1    2    0    0 -0.78166543577E+02  0.12169604871E+03  0.47914082850E+03  0.50691256892E+03  0.80402003615E+02 0.  0.
        -11    1    5    5    0    0 -0.94557901546E+02  0.99738482669E+02  0.41493963990E+03  0.43710852935E+03  0.00000000000E+00 0.  1.
         12    1    5    5    0    0  0.16391357968E+02  0.21957566037E+02  0.64201188598E+02  0.69804039566E+02  0.00000000000E+00 0. -1.
         13    1    4    4    0    0  0.45498278506E+01  0.35331177805E+01  0.34605712577E+02  0.35081892732E+02  0.00000000000E+00 0. -1.
        -14    1    4    4    0    0  0.26130546142E+03 -0.48641671972E+01  0.21306768689E+03  0.33719733611E+03  0.00000000000E+00 0.  1.
          5    1    3    3  501    0 -0.74179210628E+02 -0.12269219460E+02  0.56195874115E+02  0.93960298547E+02  0.41800000000E+01 0. -1.
         -5    1    3    3    0  501 -0.11350953506E+03 -0.10809577983E+03  0.38913095881E+03  0.41953484679E+03  0.41800000000E+01 0. -1.
</event>
<event>
11    1  0.1704459E-009  0.2128468E+03  0.7561462E-02  0.1045793E+00
         22   -1    0    0    0    0  0.00000000000E+00  0.00000000000E+00  0.83137853228E+03  0.83137853228E+03  0.00000000000E+00 0. -1.
         22   -1    0    0    0    0 -0.00000000000E+00 -0.00000000000E+00 -0.37798762386E+03  0.37798762386E+03  0.00000000000E+00 0. -1.
         25    2    1    2    0    0 -0.44038993212E+02  0.16608706769E+03 -0.32073967667E+03  0.38476689494E+03  0.12508907336E+03 0.  0.
         24    2    1    2    0    0  0.18519676163E+02 -0.18039020301E+03  0.56871350446E+03  0.60194240172E+03  0.77562884731E+02 0.  0.
        -24    2    1    2    0    0  0.25519317049E+02  0.14303135318E+02  0.20541708062E+03  0.22265685947E+03  0.80771807186E+02 0.  0.
        -11    1    4    4    0    0 -0.14303323084E+02 -0.69538611388E+01  0.96790070741E+02  0.98088016751E+02  0.00000000000E+00 0.  1.
         12    1    4    4    0    0  0.32822999247E+02 -0.17343634187E+03  0.47192343372E+03  0.50385438497E+03  0.00000000000E+00 0. -1.
         13    1    5    5    0    0  0.19373025450E+02 -0.31627259098E+02  0.65578155437E+02  0.75339844064E+02  0.00000000000E+00 0. -1.
        -14    1    5    5    0    0  0.61462915985E+01  0.45930394416E+02  0.13983892519E+03  0.14731701541E+03  0.00000000000E+00 0.  1.
          5    1    3    3  501    0 -0.11976948704E+02 -0.11981202056E+02 -0.89190100651E+02  0.90880927356E+02  0.41800000000E+01 0. -1.
         -5    1    3    3    0  501 -0.32062044508E+02  0.17806826975E+03 -0.23154957602E+03  0.29388596759E+03  0.41800000000E+01 0. -1.
</event>
<event>
11    1  0.2715113E-009  0.2638709E+03  0.7561462E-02  0.1016759E+00
         22   -1    0    0    0    0  0.00000000000E+00  0.00000000000E+00  0.42862558530E+03  0.42862558530E+03  0.00000000000E+00 0.  1.
         22   -1    0    0    0    0 -0.00000000000E+00 -0.00000000000E+00 -0.22868222333E+04  0.22868222333E+04  0.00000000000E+00 0.  1.
         25    2    1    2    0    0  0.18815513147E+03  0.13706044187E+03 -0.21971448666E+04  0.22129801996E+04  0.12509148999E+03 0.  0.
         24    2    1    2    0    0 -0.32895725125E+02  0.79201331491E+01 -0.68391064215E+01  0.88533736829E+02  0.81526633315E+02 0.  0.
        -24    2    1    2    0    0 -0.15525940635E+03 -0.14498057502E+03  0.34578732502E+03  0.41393388215E+03  0.81532412300E+02 0.  0.
        -13    1    4    4    0    0  0.18335306426E+02  0.23992355492E+02  0.10719718352E+02  0.32042611400E+02  0.00000000000E+00 0.  1.
         14    1    4    4    0    0 -0.51231031551E+02 -0.16072222343E+02 -0.17558824773E+02  0.56491125429E+02  0.00000000000E+00 0. -1.
         13    1    5    5    0    0 -0.96529431402E+01  0.96542354615E+01  0.11368676271E+02  0.17765989243E+02  0.00000000000E+00 0. -1.
        -14    1    5    5    0    0 -0.14560646321E+03 -0.15463481048E+03  0.33441864875E+03  0.39616789291E+03  0.00000000000E+00 0.  1.
          5    1    3    3  501    0  0.56682556809E+02 -0.45920830353E+01 -0.25811733378E+03  0.26434074576E+03  0.41800000000E+01 0.  1.
         -5    1    3    3    0  501  0.13147257466E+03  0.14165252490E+03 -0.19390275328E+04  0.19486394539E+04  0.41800000000E+01 0.  1.
</event>
<event>
11    1  0.2417803E-009  0.2000007E+04  0.7561462E-02  0.8066978E-01
         22   -1    0    0    0    0  0.00000000000E+00  0.00000000000E+00  0.11791241438E+04  0.11791241438E+04  0.00000000000E+00 0. -1.
         22   -1    0    0    0    0 -0.00000000000E+00 -0.00000000000E+00 -0.84809294135E+03  0.84809294135E+03  0.00000000000E+00 0. -1.
         25    2    1    2    0    0 -0.42618384088E+03  0.60352196723E+03 -0.46766160428E+03  0.88331083061E+03  0.12513678996E+03 0.  0.
         24    2    1    2    0    0  0.23883706996E+03 -0.13153263432E+03  0.16841818754E+03  0.33070320737E+03  0.81583978757E+02 0.  0.
        -24    2    1    2    0    0  0.18734677092E+03 -0.47198933291E+03  0.63027461915E+03  0.81320304713E+03  0.78615248941E+02 0.  0.
        -11    1    4    4    0    0  0.91487824905E+02 -0.22467286811E+02  0.93297463780E+02  0.13258664273E+03  0.00000000000E+00 0.  1.
         12    1    4    4    0    0  0.14734924506E+03 -0.10906534751E+03  0.75120723762E+02  0.19811656464E+03  0.00000000000E+00 0. -1.
         13    1    5    5    0    0  0.34166606894E+02 -0.12802303728E+03  0.21580314916E+03  0.25323557074E+03  0.00000000000E+00 0. -1.
        -14    1    5    5    0    0  0.15318016403E+03 -0.34396629563E+03  0.41447146999E+03  0.55996747639E+03  0.00000000000E+00 0.  1.
          5    1    3    3  501    0 -0.31021884131E+03  0.48875655146E+03 -0.31134772467E+03  0.65732303638E+03  0.41800000000E+01 0.  1.
         -5    1    3    3    0  501 -0.11596499958E+03  0.11476541576E+03 -0.15631387961E+03  0.22598779423E+03  0.41800000000E+01 0.  1.
</event>
<event>
11    1  0.1704459E-009  0.1349869E+03  0.7561462E-02  0.1113289E+00
         22   -1    0    0    0    0  0.00000000000E+00  0.00000000000E+00  0.25577750163E+04  0.25577750163E+04  0.00000000000E+00 0.  1.
         22   -1    0    0    0    0 -0.00000000000E+00 -0.00000000000E+00 -0.23745809932E+02  0.23745809932E+02  0.00000000000E+00 0. -1.
         25    2    1    2    0    0 -0.30112599048E+02  0.23252301842E+02  0.25975492509E+03  0.29080478899E+03  0.12508943212E+03 0.  0.
         24    2    1    2    0    0  0.11658679588E+03 -0.45017993026E+02  0.15358544770E+04  0.15426352620E+04  0.72494663635E+02 0.  0.
        -24    2    1    2    0    0 -0.86474196836E+02  0.21765691184E+02  0.73841980425E+03  0.74808077525E+03  0.80059396460E+02 0.  0.
        -13    1    4    4    0    0  0.65463196740E+02  0.11005134242E+02  0.85388097698E+03  0.85645739296E+03  0.00000000000E+00 0.  1.
         14    1    4    4    0    0  0.51123599144E+02 -0.56023127268E+02  0.68197350004E+03  0.68617786902E+03  0.00000000000E+00 0. -1.
         13    1    5    5    0    0  0.16988743579E+01  0.10540670151E+02  0.11291483662E+02  0.15539932581E+02  0.00000000000E+00 0. -1.
        -14    1    5    5    0    0 -0.88173071193E+02  0.11225021033E+02  0.72712832058E+03  0.73254084267E+03  0.00000000000E+00 0.  1.
          5    1    3    3  501    0 -0.43200459281E+02 -0.34207055691E+01  0.25701502530E+03  0.26067638278E+03  0.41800000000E+01 0.  1.
         -5    1    3    3    0  501  0.13087860233E+02  0.26673007411E+02  0.27398997869E+01  0.30128406208E+02  0.41800000000E+01 0.  1.
</event>
<event>
11    1  0.1704459E-009  0.1025018E+04  0.7561462E-02  0.8655576E-01
         22   -1    0    0    0    0  0.00000000000E+00  0.00000000000E+00  0.12962218035E+04  0.12962218035E+04  0.00000000000E+00 0.  1.
         22   -1    0    0    0    0 -0.00000000000E+00 -0.00000000000E+00 -0.20263931123E+03  0.20263931123E+03  0.00000000000E+00 0.  1.
         25    2    1    2    0    0 -0.15978182665E+03  0.15429283555E+03 -0.10029697774E+03  0.27393892569E+03  0.12508613045E+03 0.  0.
         24    2    1    2    0    0  0.77482584318E+02 -0.81585962455E+02  0.63181006029E+03  0.64684190330E+03  0.80997996501E+02 0.  0.
        -24    2    1    2    0    0  0.82299242336E+02 -0.72706873096E+02  0.56206940974E+03  0.57808028576E+03  0.78710486777E+02 0.  0.
        -13    1    4    4    0    0  0.30423004195E+02 -0.55314087404E+02  0.16063523397E+03  0.17259457072E+03  0.00000000000E+00 0.  1.
         14    1    4    4    0    0  0.47059580123E+02 -0.26271875051E+02  0.47117482632E+03  0.47424733257E+03  0.00000000000E+00 0. -1.
         13    1    5    5    0    0 -0.47191255720E+00 -0.45637793961E+02  0.14488671251E+03  0.15190520202E+03  0.00000000000E+00 0. -1.
        -14    1    5    5    0    0  0.82771154893E+02 -0.27069079135E+02  0.41718269723E+03  0.42617508373E+03  0.00000000000E+00 0.  1.
          5    1    3    3  501    0 -0.78214328889E+02  0.15337774078E+03 -0.79321278145E+02  0.18960894013E+03  0.41800000000E+01 0.  1.
         -5    1    3    3    0  501 -0.81567497765E+02  0.91509476580E+00 -0.20975699595E+02  0.84329985555E+02  0.41800000000E+01 0.  1.
</event>
<event>
11    1  0.1704459E-009  0.7827790E+03  0.7561462E-02  0.8918487E-01
         22   -1    0    0    0    0  0.00000000000E+00  0.00000000000E+00  0.24395079130E+04  0.24395079130E+04  0.00000000000E+00 0.  1.
         22   -1    0    0    0    0 -0.00000000000E+00 -0.00000000000E+00 -0.24864813318E+03  0.24864813318E+03  0.00000000000E+00 0.  1.
         25    2    1    2    0    0  0.67595413647E+02 -0.35745558959E+03  0.49481227723E+03  0.62676284418E+03  0.12509530233E+03 0.  0.
        -24    2    1    2    0    0 -0.63448315668E+02  0.68182121448E+03  0.59366675458E+03  0.90945749078E+03  0.75939810095E+02 0.  0.
         24    2    1    2    0    0 -0.41470979796E+01 -0.32436562489E+03  0.11023807480E+04  0.11519357112E+04  0.80512807500E+02 0.  0.
        -11    1    5    5    0    0  0.26175219674E+02 -0.27523217750E+03  0.90672782213E+03  0.94794157894E+03  0.00000000000E+00 0.  1.
         12    1    5    5    0    0 -0.30322317654E+02 -0.49133447394E+02  0.19565292583E+03  0.20399413223E+03  0.00000000000E+00 0. -1.
         11    1    4    4    0    0 -0.50250426905E+02  0.65378723178E+03  0.58063831838E+03  0.87584456761E+03  0.00000000000E+00 0. -1.
        -12    1    4    4    0    0 -0.13197888763E+02  0.28033982706E+02  0.13028436202E+02  0.33612923169E+02  0.00000000000E+00 0.  1.
          5    1    3    3  501    0  0.88629518456E+02 -0.33883050654E+03  0.42085041763E+03  0.54753433693E+03  0.41800000000E+01 0. -1.
         -5    1    3    3    0  501 -0.21034104809E+02 -0.18625083050E+02  0.73961859607E+02  0.79228507245E+02  0.41800000000E+01 0. -1.
</event>
<event>
11    1  0.1704459E-009  0.1274225E+03  0.7561462E-02  0.1122477E+00
         22   -1    0    0    0    0  0.00000000000E+00  0.00000000000E+00  0.28303233022E+02  0.28303233022E+02  0.00000000000E+00 0.  1.
         22   -1    0    0    0    0 -0.00000000000E+00 -0.00000000000E+00 -0.98931118496E+03  0.98931118496E+03  0.00000000000E+00 0. -1.
         25    2    1    2    0    0 -0.11591412065E+02  0.19206505573E+02 -0.67228624825E+03  0.68419349183E+03  0.12509470010E+03 0.  0.
        -24    2    1    2    0    0  0.13898179167E+02  0.13753383786E+02 -0.18354847774E+03  0.19646016305E+03  0.67262448922E+02 0.  0.
         24    2    1    2    0    0 -0.23067671024E+01 -0.32959889359E+02 -0.10517322595E+03  0.13696076310E+03  0.81272182764E+02 0.  0.
        -11    1    5    5    0    0 -0.21946466474E+02 -0.20144028273E+02 -0.60582412755E+00  0.29795910602E+02  0.00000000000E+00 0.  1.
         12    1    5    5    0    0  0.19639699372E+02 -0.12815861086E+02 -0.10456740183E+03  0.10716485250E+03  0.00000000000E+00 0. -1.
         13    1    4    4    0    0 -0.23617582137E+02  0.17631785164E+01 -0.11490443607E+03  0.11731976991E+03  0.00000000000E+00 0. -1.
        -14    1    4    4    0    0  0.37515761304E+02  0.11990205269E+02 -0.68644041670E+02  0.79140393134E+02  0.00000000000E+00 0.  1.
          5    1    3    3  501    0  0.34581109444E+02  0.48056880675E+02 -0.19606413415E+03  0.20485100442E+03  0.41800000000E+01 0.  1.
         -5    1    3    3    0  501 -0.46172521509E+02 -0.28850375102E+02 -0.47622211410E+03  0.47934248741E+03  0.41800000000E+01 0.  1.
</event>
<event>
11    1  0.1704459E-009  0.1757235E+03  0.7561462E-02  0.1073156E+00
         22   -1    0    0    0    0  0.00000000000E+00  0.00000000000E+00  0.26174110787E+04  0.26174110787E+04  0.00000000000E+00 0. -1.
         22   -1    0    0    0    0 -0.00000000000E+00 -0.00000000000E+00 -0.93052048481E+02  0.93052048481E+02  0.00000000000E+00 0. -1.
         25    2    1    2    0    0 -0.12205432516E+03 -0.30959933912E+02  0.28874100672E+01  0.17751481119E+03  0.12508954895E+03 0.  0.
         24    2    1    2    0    0  0.77252290088E+02 -0.14344851540E+02  0.18660987369E+04  0.18695783161E+04  0.82612911579E+02 0.  0.
        -24    2    1    2    0    0  0.44802035071E+02  0.45304785451E+02  0.65537288326E+03  0.66336999988E+03  0.80538156782E+02 0.  0.
        -11    1    4    4    0    0  0.21925366059E+02  0.32843947095E+02  0.82385968826E+03  0.82480557253E+03  0.00000000000E+00 0.  1.
         12    1    4    4    0    0  0.55326924029E+02 -0.47188798634E+02  0.10422390487E+04  0.10447727436E+04  0.00000000000E+00 0. -1.
         11    1    5    5    0    0  0.53929240124E+02  0.47239366087E+02  0.64660275312E+03  0.65056517044E+03  0.00000000000E+00 0. -1.
        -12    1    5    5    0    0 -0.91272050537E+01 -0.19345806354E+01  0.87701301432E+01  0.12804829443E+02  0.00000000000E+00 0.  1.
          5    1    3    3  501    0 -0.31168344286E+00 -0.13001312731E+02  0.45275909113E+02  0.47291771222E+02  0.41800000000E+01 0.  1.
         -5    1    3    3    0  501 -0.12174264172E+03 -0.17958621180E+02 -0.42388499046E+02  0.13022303997E+03  0.41800000000E+01 0.  1.
</event>
<event>
11    1  0.1704459E-009  0.4036351E+03  0.7561462E-02  0.9639093E-01
         22   -1    0    0    0    0  0.00000000000E+00  0.00000000000E+00  0.49606128873E+03  0.49606128873E+03  0.00000000000E+00 0. -1.
         22   -1    0    0    0    0 -0.00000000000E+00 -0.00000000000E+00 -0.65420303622E+03  0.65420303622E+03  0.00000000000E+00 0. -1.
         25    2    1    2    0    0  0.27534888636E+03  0.20853398926E+03 -0.27466864209E+03  0.45868404495E+03  0.12507900002E+03 0.  0.
         24    2    1    2    0    0 -0.38404799275E+03 -0.30495606188E+03  0.13988871911E+02  0.49708683011E+03  0.80053530368E+02 0.  0.
        -24    2    1    2    0    0  0.10869910638E+03  0.96422072620E+02  0.10253802269E+03  0.19449344989E+03  0.78746073781E+02 0.  0.
        -13    1    4    4    0    0 -0.32364385213E+02 -0.42109207869E+01 -0.87434129804E+01  0.33788053430E+02  0.00000000000E+00 0.  1.
         14    1    4    4    0    0 -0.35168360753E+03 -0.30074514109E+03  0.22732284892E+02  0.46329877668E+03  0.00000000000E+00 0. -1.
         13    1    5    5    0    0  0.99771479621E+01  0.49165638606E+02  0.57042539755E+02  0.75964826352E+02  0.00000000000E+00 0. -1.
        -14    1    5    5    0    0  0.98721958420E+02  0.47256434014E+02  0.45495482934E+02  0.11852862354E+03  0.00000000000E+00 0.  1.
          5    1    3    3  501    0  0.47240051785E+02 -0.71433790066E+00 -0.79960727916E+02  0.92969474453E+02  0.41800000000E+01 0.  1.
         -5    1    3    3    0  501  0.22810883458E+03  0.20924832716E+03 -0.19470791418E+03  0.36571457050E+03  0.41800000000E+01 0.  1.
</event>
<event>
11    1  0.1704459E-009  0.2027104E+03  0.7561462E-02  0.1052623E+00
         22   -1    0    0    0    0  0.00000000000E+00  0.00000000000E+00  0.56176068648E+03  0.56176068648E+03  0.00000000000E+00 0. -1.
         22   -1    0    0    0    0 -0.00000000000E+00 -0.00000000000E+00 -0.72913057324E+03  0.72913057324E+03  0.00000000000E+00 0. -1.
         25    2    1    2    0    0  0.55250303506E+02 -0.24368316458E+03 -0.52185380509E+03  0.59195627420E+03  0.12508699349E+03 0.  0.
         24    2    1    2    0    0  0.44900173858E+02  0.12193065429E+03 -0.12098661579E+03  0.19147659376E+03  0.71710631650E+02 0.  0.
        -24    2    1    2    0    0 -0.10015047736E+03  0.12175251029E+03  0.47547053412E+03  0.50745839177E+03  0.81166487434E+02 0.  0.
        -11    1    4    4    0    0  0.40355094505E+02  0.61922349828E+02 -0.10640220192E+03  0.12955438871E+03  0.00000000000E+00 0.  1.
         12    1    4    4    0    0  0.45450793529E+01  0.60008304459E+02 -0.14584413865E+02  0.61922205049E+02  0.00000000000E+00 0. -1.
         13    1    5    5    0    0 -0.58281999196E+02  0.76242763303E+02  0.39200208989E+03  0.40357823140E+03  0.00000000000E+00 0. -1.
        -14    1    5    5    0    0 -0.41868478168E+02  0.45509746989E+02  0.83468444230E+02  0.10388016036E+03  0.00000000000E+00 0.  1.
          5    1    3    3  501    0  0.14225209862E+02  0.76081752749E+01 -0.82251838645E+02  0.83923049796E+02  0.41800000000E+01 0. -1.
         -5    1    3    3    0  501  0.41025093645E+02 -0.25129133985E+03 -0.43960196644E+03  0.50803322440E+03  0.41800000000E+01 0. -1.
</event>
<event>
11    1  0.1704459E-009  0.1537235E+03  0.7561462E-02  0.1093134E+00
         22   -1    0    0    0    0  0.00000000000E+00  0.00000000000E+00  0.17817433242E+03  0.17817433242E+03  0.00000000000E+00 0.  1.
         22   -1    0    0    0    0 -0.00000000000E+00 -0.00000000000E+00 -0.24760849096E+03  0.24760849096E+03  0.00000000000E+00 0. -1.
         25    2    1    2    0    0 -0.33454383335E+02  0.24623072213E+02 -0.17333943135E+02  0.13294417041E+03  0.12509274724E+03 0.  0.
         24    2    1    2    0    0 -0.87480492870E+02  0.39419829336E+02  0.15540971537E+01  0.12514566911E+03  0.80325983977E+02 0.  0.
        -24    2    1    2    0    0  0.12093487620E+03 -0.64042901548E+02 -0.53654312555E+02  0.16769298386E+03  0.80718114806E+02 0.  0.
        -13    1    4    4    0    0 -0.36560335649E+02  0.38750260100E+02  0.35431992695E+02  0.63981770114E+02  0.00000000000E+00 0.  1.
         14    1    4    4    0    0 -0.50920157221E+02  0.66956923534E+00 -0.33877895541E+02  0.61163898998E+02  0.00000000000E+00 0. -1.
         13    1    5    5    0    0  0.16589159182E+02 -0.42617713694E+02 -0.39123160410E+02  0.60183813466E+02  0.00000000000E+00 0. -1.
        -14    1    5    5    0    0  0.10434571702E+03 -0.21425187854E+02 -0.14531152145E+02  0.10750917039E+03  0.00000000000E+00 0.  1.
          5    1    3    3  501    0  0.49124358788E+01  0.31461836427E+02 -0.64238192217E+02  0.71819196020E+02  0.41800000000E+01 0.  1.
         -5    1    3    3    0  501 -0.38366819214E+02 -0.68387642148E+01  0.46904249082E+02  0.61124974393E+02  0.41800000000E+01 0.  1.
</event>
<event>
11    1  0.1704459E-009  0.1268980E+03  0.7561462E-02  0.1123140E+00
         22   -1    0    0    0    0  0.00000000000E+00  0.00000000000E+00  0.15626031884E+04  0.15626031884E+04  0.00000000000E+00 0. -1.
         22   -1    0    0    0    0 -0.00000000000E+00 -0.00000000000E+00 -0.24578190175E+03  0.24578190175E+03  0.00000000000E+00 0.  1.
         25    2    1    2    0    0  0.11587284755E+02 -0.11276336231E+02 -0.12064107562E+03  0.17453274074E+03  0.12508392198E+03 0.  0.
        -24    2    1    2    0    0 -0.22989274628E+02  0.10953059357E+02 -0.78144404527E+02  0.11604799474E+03  0.81927485422E+02 0.  0.
         24    2    1    2    0    0  0.11401989873E+02  0.32327687346E+00  0.15156067668E+04  0.15178043547E+04  0.80846011754E+02 0.  0.
        -13    1    5    5    0    0  0.40788757073E+02  0.10944009060E+02  0.52169770240E+03  0.52340422880E+03  0.00000000000E+00 0.  1.
         14    1    5    5    0    0 -0.29386767200E+02 -0.10620732186E+02  0.99390906443E+03  0.99440012590E+03  0.00000000000E+00 0. -1.
         13    1    4    4    0    0 -0.43924560933E+02  0.21129092608E+02 -0.18696042641E+02  0.52204862016E+02  0.00000000000E+00 0. -1.
        -14    1    4    4    0    0  0.20935286305E+02 -0.10176033251E+02 -0.59448361886E+02  0.63843132726E+02  0.00000000000E+00 0.  1.
          5    1    3    3  501    0  0.13612838745E+02  0.85446174088E+01 -0.14319211345E+03  0.14415191160E+03  0.41800000000E+01 0.  1.
         -5    1    3    3    0  501 -0.20255539899E+01 -0.19820953640E+02  0.22551037826E+02  0.30380829139E+02  0.41800000000E+01 0.  1.
</event>
<event>
11    1  0.1704459E-009  0.1574779E+03  0.7561462E-02  0.1089474E+00
         22   -1    0    0    0    0  0.00000000000E+00  0.00000000000E+00  0.37182348839E+02  0.37182348839E+02  0.00000000000E+00 0. -1.
         22   -1    0    0    0    0 -0.00000000000E+00 -0.00000000000E+00 -0.17591093758E+04  0.17591093758E+04  0.00000000000E+00 0. -1.
         25    2    1    2    0    0 -0.40486538089E+02  0.10533633389E+03 -0.94763797097E+03  0.96249730689E+03  0.12509371983E+03 0.  0.
         24    2    1    2    0    0  0.72563994015E+02 -0.53491349912E+02 -0.69812024214E+03  0.70881493576E+03  0.83185833691E+02 0.  0.
        -24    2    1    2    0    0 -0.32077455925E+02 -0.51844983978E+02 -0.76168813899E+02  0.12497948204E+03  0.78110928669E+02 0.  0.
        -11    1    4    4    0    0 -0.86893797019E+01 -0.23320920229E+02 -0.61864133621E+02  0.66682393993E+02  0.00000000000E+00 0.  1.
         12    1    4    4    0    0  0.81253373717E+02 -0.30170429683E+02 -0.63625610852E+03  0.64213254176E+03  0.00000000000E+00 0. -1.
         13    1    5    5    0    0 -0.87398099071E+01 -0.65031190803E+02 -0.31265889631E+02  0.72684220495E+02  0.00000000000E+00 0. -1.
        -14    1    5    5    0    0 -0.23337646018E+02  0.13186206825E+02 -0.44902924268E+02  0.52295261544E+02  0.00000000000E+00 0.  1.
          5    1    3    3  501    0 -0.87497380754E+01  0.15020455482E+02 -0.64071667649E+03  0.64096607082E+03  0.41800000000E+01 0.  1.
         -5    1    3    3    0  501 -0.31736800014E+02  0.90315878408E+02 -0.30692129447E+03  0.32153123607E+03  0.41800000000E+01 0.  1.
</event>
<event>
11    1  0.1704459E-009  0.1837727E+03  0.7561462E-02  0.1066631E+00
         22   -1    0    0    0    0  0.00000000000E+00  0.00000000000E+00  0.85425473669E+02  0.85425473669E+02  0.00000000000E+00 0. -1.
         22   -1    0    0    0    0 -0.00000000000E+00 -0.00000000000E+00 -0.61237275653E+03  0.61237275653E+03  0.00000000000E+00 0. -1.
         25    2    1    2    0    0 -0.67459032340E+02 -0.12566483463E+03 -0.38709419532E+03  0.43108250508E+03  0.12509132038E+03 0.  0.
        -24    2    1    2    0    0  0.68883029185E+02  0.10015082147E+03 -0.97686683457E+02  0.17226769823E+03  0.73201181532E+02 0.  0.
         24    2    1    2    0    0 -0.14239968448E+01  0.25514013160E+02 -0.42166404082E+02  0.94448026883E+02  0.80557007853E+02 0.  0.
        -11    1    5    5    0    0 -0.17201185915E+02  0.26659873523E+01 -0.59312956297E+02  0.61814359741E+02  0.00000000000E+00 0.  1.
         12    1    5    5    0    0  0.15777189070E+02  0.22848025808E+02  0.17146552215E+02  0.32633667142E+02  0.00000000000E+00 0. -1.
         13    1    4    4    0    0 -0.14266469284E+02  0.41708639484E+01 -0.89944940973E+01  0.17373231592E+02  0.00000000000E+00 0. -1.
        -14    1    4    4    0    0  0.83149498469E+02  0.95979957519E+02 -0.88692189360E+02  0.15489446664E+03  0.00000000000E+00 0.  1.
          5    1    3    3  501    0  0.32355561357E+02 -0.82014477783E+01 -0.48451372859E+02  0.58984354097E+02  0.41800000000E+01 0.  1.
         -5    1    3    3    0  501 -0.99814593697E+02 -0.11746338685E+03 -0.33864282246E+03  0.37209815099E+03  0.41800000000E+01 0.  1.
</event>
<event>
11    1  0.1704459E-009  0.2561255E+03  0.7561462E-02  0.1020686E+00
         22   -1    0    0    0    0  0.00000000000E+00  0.00000000000E+00  0.37573989555E+03  0.37573989555E+03  0.00000000000E+00 0. -1.
         22   -1    0    0    0    0 -0.00000000000E+00 -0.00000000000E+00 -0.30047209345E+03  0.30047209345E+03  0.00000000000E+00 0.  1.
         25    2    1    2    0    0 -0.22054849165E+03 -0.86722699840E+02 -0.87946283181E+02  0.28203756331E+03  0.12509266387E+03 0.  0.
        -24    2    1    2    0    0  0.14551435298E+03  0.14857978410E+03  0.14398967156E+03  0.26604574785E+03  0.82443527745E+02 0.  0.
         24    2    1    2    0    0  0.75034138671E+02 -0.61857084258E+02  0.19224413722E+02  0.12812867784E+03  0.81184722472E+02 0.  0.
        -13    1    5    5    0    0  0.56813410616E+02 -0.67221114848E+02 -0.14715350683E+02  0.89235550388E+02  0.00000000000E+00 0.  1.
         14    1    5    5    0    0  0.18220728055E+02  0.53640305901E+01  0.33939764406E+02  0.38893127451E+02  0.00000000000E+00 0. -1.
         13    1    4    4    0    0  0.74510096170E+02  0.11521427615E+03  0.12434765926E+03  0.18517133748E+03  0.00000000000E+00 0. -1.
        -14    1    4    4    0    0  0.71004256812E+02  0.33365507948E+02  0.19642012302E+02  0.80874410374E+02  0.00000000000E+00 0.  1.
          5    1    3    3  501    0 -0.10964183496E+03 -0.33398386454E+02 -0.10769941776E+03  0.15733220006E+03  0.41800000000E+01 0. -1.
         -5    1    3    3    0  501 -0.11090665670E+03 -0.53324313386E+02  0.19753134575E+02  0.12470536325E+03  0.41800000000E+01 0. -1.
</event>
<event>
11    1  0.1704459E-009  0.1570192E+03  0.7561462E-02  0.1089915E+00
         22   -1    0    0    0    0  0.00000000000E+00  0.00000000000E+00  0.82239404961E+03  0.82239404961E+03  0.00000000000E+00 0. -1.
         22   -1    0    0    0    0 -0.00000000000E+00 -0.00000000000E+00 -0.87591436479E+02  0.87591436479E+02  0.00000000000E+00 0. -1.
         25    2    1    2    0    0 -0.58303510540E+02 -0.55840794174E+02  0.97955493655E+02  0.17821436183E+03  0.12509031293E+03 0.  0.
        -24    2    1    2    0    0  0.77763843734E+02  0.70577332822E+02  0.53946497386E+02  0.14271394658E+03  0.80178991435E+02 0.  0.
         24    2    1    2    0    0 -0.19460333195E+02 -0.14736538648E+02  0.58290062209E+03  0.58905717768E+03  0.81359407593E+02 0.  0.
        -11    1    5    5    0    0  0.58023934472E+01 -0.16103228441E+02  0.23437853892E+02  0.29022658923E+02  0.00000000000E+00 0.  1.
         12    1    5    5    0    0 -0.25262726642E+02  0.13666897933E+01  0.55946276820E+03  0.56003451876E+03  0.00000000000E+00 0. -1.
         11    1    4    4    0    0  0.33246952576E+02  0.33320491392E+02 -0.17889003723E+02  0.50355053931E+02  0.00000000000E+00 0. -1.
        -12    1    4    4    0    0  0.44516891158E+02  0.37256841430E+02  0.71835501109E+02  0.92358892649E+02  0.00000000000E+00 0.  1.
          5    1    3    3  501    0 -0.83677431153E+02 -0.68112922104E+02  0.10306161372E+03  0.14926637687E+03  0.41800000000E+01 0. -1.
         -5    1    3    3    0  501  0.25373920613E+02  0.12272127930E+02 -0.51061200600E+01  0.28947984961E+02  0.41800000000E+01 0. -1.
</event>
<event>
11    1  0.1704459E-009  0.7555841E+03  0.7561462E-02  0.8954177E-01
         22   -1    0    0    0    0  0.00000000000E+00  0.00000000000E+00  0.41144761720E+03  0.41144761720E+03  0.00000000000E+00 0.  1.
         22   -1    0    0    0    0 -0.00000000000E+00 -0.00000000000E+00 -0.34688946785E+03  0.34688946785E+03  0.00000000000E+00 0.  1.
         25    2    1    2    0    0  0.13299451302E+03  0.19104857402E+03 -0.22400363209E+03  0.34642921777E+03  0.12509387517E+03 0.  0.
        -24    2    1    2    0    0 -0.11352669474E+03 -0.12058407208E+03  0.13730403614E+03  0.22687668011E+03  0.72054151710E+02 0.  0.
         24    2    1    2    0    0 -0.19467818284E+02 -0.70464501945E+02  0.15125774530E+03  0.18503118717E+03  0.77546068445E+02 0.  0.
        -13    1    5    5    0    0  0.58037619169E+01 -0.79132979477E+02  0.10493922352E+03  0.13155969264E+03  0.00000000000E+00 0.  1.
         14    1    5    5    0    0 -0.25271580201E+02  0.86684775319E+01  0.46318521773E+02  0.53471494535E+02  0.00000000000E+00 0. -1.
         13    1    4    4    0    0 -0.24079460495E+02 -0.65337451636E+02  0.83662507086E+02  0.10884952042E+03  0.00000000000E+00 0. -1.
        -14    1    4    4    0    0 -0.89447234245E+02 -0.55246620442E+02  0.53641529056E+02  0.11802715969E+03  0.00000000000E+00 0.  1.
          5    1    3    3  501    0  0.10771634275E+02  0.21583471417E+02 -0.10101869949E+03  0.10394289004E+03  0.41800000000E+01 0.  1.
         -5    1    3    3    0  501  0.12222287875E+03  0.16946510261E+03 -0.12298493260E+03  0.24248632774E+03  0.41800000000E+01 0.  1.
</event>
<event>
11    1  0.1704459E-009  0.1591014E+03  0.7561462E-02  0.1087926E+00
         22   -1    0    0    0    0  0.00000000000E+00  0.00000000000E+00  0.11798154011E+04  0.11798154011E+04  0.00000000000E+00 0.  1.
         22   -1    0    0    0    0 -0.00000000000E+00 -0.00000000000E+00 -0.11299319774E+03  0.11299319774E+03  0.00000000000E+00 0. -1.
         25    2    1    2    0    0  0.12379335282E+03  0.11287768582E+02  0.46692786822E+02  0.18240915830E+03  0.12506269136E+03 0.  0.
         24    2    1    2    0    0 -0.80889466361E+02  0.16514028248E+02  0.34649836793E+02  0.12040909541E+03  0.80510373067E+02 0.  0.
        -24    2    1    2    0    0 -0.42903886457E+02 -0.27801796830E+02  0.98547957970E+03  0.98999034508E+03  0.79354886182E+02 0.  0.
        -13    1    4    4    0    0 -0.15149102787E+02  0.36324585526E+02  0.33587251795E+02  0.51740451409E+02  0.00000000000E+00 0.  1.
         14    1    4    4    0    0 -0.65740363574E+02 -0.19810557278E+02  0.10625849987E+01  0.68668644004E+02  0.00000000000E+00 0. -1.
         11    1    5    5    0    0 -0.44703699955E+02 -0.23912493649E+02  0.28347909773E+03  0.28797678204E+03  0.00000000000E+00 0. -1.
        -12    1    5    5    0    0  0.17998134975E+01 -0.38893031812E+01  0.70200048197E+03  0.70201356304E+03  0.00000000000E+00 0.  1.
          5    1    3    3  501    0  0.25060978215E+02 -0.13070020737E+02 -0.39696833626E+02  0.48910009927E+02  0.41800000000E+01 0. -1.
         -5    1    3    3    0  501  0.98732374604E+02  0.24357789318E+02  0.86389620449E+02  0.13349914837E+03  0.41800000000E+01 0. -1.
</event>
<event>
11    1  0.1704459E-009  0.3647437E+03  0.7561462E-02  0.9759923E-01
         22   -1    0    0    0    0  0.00000000000E+00  0.00000000000E+00  0.55150860274E+03  0.55150860274E+03  0.00000000000E+00 0.  1.
         22   -1    0    0    0    0 -0.00000000000E+00 -0.00000000000E+00 -0.60306379035E+02  0.60306379035E+02  0.00000000000E+00 0.  1.
         25    2    1    2    0    0  0.10346464532E+03  0.24245153805E+01  0.19567597612E+03  0.25425766290E+03  0.12508821050E+03 0.  0.
         24    2    1    2    0    0 -0.82942926466E+02 -0.14829871099E+02  0.16431111260E+03  0.20024035643E+03  0.77450658438E+02 0.  0.
        -24    2    1    2    0    0 -0.20521718850E+02  0.12405355718E+02  0.13121513497E+03  0.15731696243E+03  0.83403724309E+02 0.  0.
        -13    1    4    4    0    0 -0.67889468554E+02 -0.36753134642E+02  0.77267068627E+02  0.10922441458E+03  0.00000000000E+00 0.  1.
         14    1    4    4    0    0 -0.15053457912E+02  0.21923263543E+02  0.87044043977E+02  0.91015941853E+02  0.00000000000E+00 0. -1.
         13    1    5    5    0    0 -0.44396629569E+02 -0.15446921890E+02  0.52475460220E+02  0.70450990329E+02  0.00000000000E+00 0. -1.
        -14    1    5    5    0    0  0.23874910719E+02  0.27852277608E+02  0.78739674753E+02  0.86865972106E+02  0.00000000000E+00 0.  1.
          5    1    3    3  501    0 -0.62806931356E+01  0.16042783670E+02 -0.10250624917E+02  0.20478420968E+02  0.41800000000E+01 0. -1.
         -5    1    3    3    0  501  0.10974533845E+03 -0.13618268290E+02  0.20592660104E+03  0.23377924193E+03  0.41800000000E+01 0. -1.
</event>
<event>
11    1  0.1704459E-009  0.1613447E+03  0.7561462E-02  0.1085819E+00
         22   -1    0    0    0    0  0.00000000000E+00  0.00000000000E+00  0.18338315669E+04  0.18338315669E+04  0.00000000000E+00 0. -1.
         22   -1    0    0    0    0 -0.00000000000E+00 -0.00000000000E+00 -0.14313862022E+03  0.14313862022E+03  0.00000000000E+00 0. -1.
         25    2    1    2    0    0 -0.53026010027E+01  0.91491804373E+02  0.50170773128E+02  0.16298188244E+03  0.12508844744E+03 0.  0.
         24    2    1    2    0    0  0.96162713134E+02 -0.73835422599E+02 -0.22327934906E+02  0.14662747030E+03  0.79386027362E+02 0.  0.
        -24    2    1    2    0    0 -0.90860112131E+02 -0.17656381774E+02  0.16628501085E+04  0.16673608344E+04  0.80339038074E+02 0.  0.
        -13    1    4    4    0    0  0.53055837611E+02  0.42416407067E+01 -0.21591743921E+02  0.57437938909E+02  0.00000000000E+00 0.  1.
         14    1    4    4    0    0  0.43106875523E+02 -0.78077063306E+02 -0.73619098506E+00  0.89189531387E+02  0.00000000000E+00 0. -1.
         11    1    5    5    0    0 -0.87721183080E+02  0.12345326839E+02  0.13967581298E+04  0.13995644630E+04  0.00000000000E+00 0. -1.
        -12    1    5    5    0    0 -0.31389290509E+01 -0.30001708614E+02  0.26609197870E+03  0.26779637138E+03  0.00000000000E+00 0.  1.
          5    1    3    3  501    0  0.30260024089E+02  0.78754985933E+02  0.78706298346E+02  0.11545635828E+03  0.41800000000E+01 0. -1.
         -5    1    3    3    0  501 -0.35562625092E+02  0.12736818441E+02 -0.28535525218E+02  0.47525524162E+02  0.41800000000E+01 0. -1.
</event>
<event>
11    1  0.1704459E-009  0.1278147E+03  0.7561462E-02  0.1121984E+00
         22   -1    0    0    0    0  0.00000000000E+00  0.00000000000E+00  0.55893263535E+02  0.55893263535E+02  0.00000000000E+00 0.  1.
         22   -1    0    0    0    0 -0.00000000000E+00 -0.00000000000E+00 -0.69323083382E+03  0.69323083382E+03  0.00000000000E+00 0. -1.
         25    2    1    2    0    0 -0.14461174507E+02 -0.21891863807E+02 -0.44992159242E+03  0.46772430774E+03  0.12509280338E+03 0.  0.
        -24    2    1    2    0    0  0.46704598904E+02 -0.26885251777E+02 -0.13812733653E+03  0.17091391267E+03  0.85019222090E+02 0.  0.
         24    2    1    2    0    0 -0.32243424398E+02  0.48777115584E+02 -0.49288641336E+02  0.11048587695E+03  0.79742795401E+02 0.  0.
        -11    1    5    5    0    0 -0.45240487203E+02  0.55400407909E+02 -0.14802198854E+02  0.73041166268E+02  0.00000000000E+00 0.  1.
         12    1    5    5    0    0  0.12997062805E+02 -0.66232923252E+01 -0.34486442482E+02  0.37444710679E+02  0.00000000000E+00 0. -1.
         13    1    4    4    0    0  0.26850305597E+02 -0.33135467310E+02 -0.14326173506E+03  0.14947515792E+03  0.00000000000E+00 0. -1.
        -14    1    4    4    0    0  0.19854293308E+02  0.62502155334E+01  0.51343985237E+01  0.21438754748E+02  0.00000000000E+00 0.  1.
          5    1    3    3  501    0  0.27119019574E+02 -0.55592749408E+02 -0.33744109645E+03  0.34308885290E+03  0.41800000000E+01 0.  1.
         -5    1    3    3    0  501 -0.41580194081E+02  0.33700885601E+02 -0.11248049596E+03  0.12463545484E+03  0.41800000000E+01 0.  1.
</event>
<event>
11    1  0.1704459E-009  0.1414659E+04  0.7561462E-02  0.8361354E-01
         22   -1    0    0    0    0  0.00000000000E+00  0.00000000000E+00  0.29865953823E+04  0.29865953823E+04  0.00000000000E+00 0. -1.
         22   -1    0    0    0    0 -0.00000000000E+00 -0.00000000000E+00 -0.21819583350E+04  0.21819583350E+04  0.00000000000E+00 0. -1.
         25    2    1    2    0    0  0.56013466470E+03 -0.56877702601E+03 -0.11130253102E+04  0.13754017625E+04  0.12508604689E+03 0.  0.
        -24    2    1    2    0    0 -0.15211973333E+04  0.12811956647E+04  0.77237506553E+03  0.21350775340E+04  0.80555423699E+02 0.  0.
         24    2    1    2    0    0  0.96106266858E+03 -0.71241863865E+03  0.11452872920E+04  0.16580744209E+04  0.79662002048E+02 0.  0.
        -11    1    5    5    0    0  0.29892923787E+03 -0.18053927257E+03  0.31328571568E+03  0.46914929163E+03  0.00000000000E+00 0.  1.
         12    1    5    5    0    0  0.66213343071E+03 -0.53187936608E+03  0.83200157628E+03  0.11889251293E+04  0.00000000000E+00 0. -1.
         13    1    4    4    0    0 -0.52642461559E+03  0.47795003582E+03  0.30628212294E+03  0.77418851158E+03  0.00000000000E+00 0. -1.
        -14    1    4    4    0    0 -0.99477271769E+03  0.80324562885E+03  0.46609294259E+03  0.13608890224E+04  0.00000000000E+00 0.  1.
          5    1    3    3  501    0  0.15758511268E+03 -0.88976878032E+02 -0.27381733662E+03  0.32824283510E+03  0.41800000000E+01 0. -1.
         -5    1    3    3    0  501  0.40254955202E+03 -0.47980014798E+03 -0.83920797358E+03  0.10471589274E+04  0.41800000000E+01 0. -1.
</event>
<event>
11    1  0.1704459E-009  0.1370386E+04  0.7561462E-02  0.8389484E-01
         22   -1    0    0    0    0  0.00000000000E+00  0.00000000000E+00  0.11962271687E+04  0.11962271687E+04  0.00000000000E+00 0.  1.
         22   -1    0    0    0    0 -0.00000000000E+00 -0.00000000000E+00 -0.39247535292E+03  0.39247535292E+03  0.00000000000E+00 0.  1.
         25    2    1    2    0    0  0.36746316006E+03  0.39595545819E+03 -0.35201879565E+02  0.55560436628E+03  0.12508853119E+03 0.  0.
        -24    2    1    2    0    0 -0.26633011649E+03 -0.23387661194E+03  0.68278032558E+03  0.77305723717E+03  0.76148003108E+02 0.  0.
         24    2    1    2    0    0 -0.10113304356E+03 -0.16207884625E+03  0.15617336976E+03  0.26004091817E+03  0.82059202993E+02 0.  0.
        -11    1    5    5    0    0 -0.50817898991E+02 -0.19146537166E+02  0.58179274406E+02  0.79585656457E+02  0.00000000000E+00 0.  1.
         12    1    5    5    0    0 -0.50315144571E+02 -0.14293230909E+03  0.97994095352E+02  0.18045526171E+03  0.00000000000E+00 0. -1.
         13    1    4    4    0    0 -0.20097543468E+03 -0.17611171537E+03  0.57758107091E+03  0.63640109610E+03  0.00000000000E+00 0. -1.
        -14    1    4    4    0    0 -0.65354681814E+02 -0.57764896568E+02  0.10519925467E+03  0.13665614107E+03  0.00000000000E+00 0.  1.
          5    1    3    3  501    0  0.15415064581E+03  0.11970321984E+03  0.38210575551E+02  0.19891908638E+03  0.41800000000E+01 0.  1.
         -5    1    3    3    0  501  0.21331251424E+03  0.27625223835E+03 -0.73412455116E+02  0.35668527990E+03  0.41800000000E+01 0.  1.
</event>
<event>
11    1  0.1704459E-009  0.4390121E+03  0.7561462E-02  0.9541183E-01
         22   -1    0    0    0    0  0.00000000000E+00  0.00000000000E+00  0.52896707473E+03  0.52896707473E+03  0.00000000000E+00 0.  1.
         22   -1    0    0    0    0 -0.00000000000E+00 -0.00000000000E+00 -0.31462012582E+03  0.31462012582E+03  0.00000000000E+00 0. -1.
         25    2    1    2    0    0 -0.13895633375E+03 -0.46556953253E+02 -0.18394959936E+02  0.19355260910E+03  0.12509126809E+03 0.  0.
         24    2    1    2    0    0 -0.21322380888E+03  0.75825436825E+02  0.56375639399E+02  0.24709937442E+03  0.81645566793E+02 0.  0.
        -24    2    1    2    0    0  0.35218014263E+03 -0.29268483572E+02  0.17636626945E+03  0.40293521704E+03  0.79776131348E+02 0.  0.
        -13    1    4    4    0    0 -0.58681888095E+02 -0.15824692191E+02  0.17790696578E+02  0.63328459306E+02  0.00000000000E+00 0.  1.
         14    1    4    4    0    0 -0.15454192078E+03  0.91650129016E+02  0.38584942821E+02  0.18377091511E+03  0.00000000000E+00 0. -1.
         11    1    5    5    0    0  0.98747229406E+01 -0.17120915182E+02  0.93681072672E+01  0.21872295800E+02  0.00000000000E+00 0. -1.
        -12    1    5    5    0    0  0.34230541969E+03 -0.12147568390E+02  0.16699816218E+03  0.38106292124E+03  0.00000000000E+00 0.  1.
          5    1    3    3  501    0 -0.88816586613E+02  0.92167186238E+01 -0.60023955703E+02  0.10767395980E+03  0.41800000000E+01 0. -1.
         -5    1    3    3    0  501 -0.50139747139E+02 -0.55773671877E+02  0.41628995767E+02  0.85878649305E+02  0.41800000000E+01 0. -1.
</event>
<event>
11    1  0.1704459E-009  0.5796268E+03  0.7561462E-02  0.9231318E-01
         22   -1    0    0    0    0  0.00000000000E+00  0.00000000000E+00  0.21566152887E+04  0.21566152887E+04  0.00000000000E+00 0.  1.
         22   -1    0    0    0    0 -0.00000000000E+00 -0.00000000000E+00 -0.11609768132E+04  0.11609768132E+04  0.00000000000E+00 0. -1.
         25    2    1    2    0    0  0.21688870344E+03  0.22815348723E+02 -0.82593022798E+03  0.86334794004E+03  0.12509066414E+03 0.  0.
        -24    2    1    2    0    0  0.37301022296E+03  0.11458131434E+03 -0.12205147645E+03  0.41672433098E+03  0.80604597271E+02 0.  0.
         24    2    1    2    0    0 -0.58989892640E+03 -0.13739666306E+03  0.19436201799E+04  0.20375198309E+04  0.83480964283E+02 0.  0.
        -13    1    5    5    0    0 -0.52921179979E+03 -0.14791620615E+03  0.17669895518E+04  0.18504584322E+04  0.00000000000E+00 0.  1.
         14    1    5    5    0    0 -0.60687126608E+02  0.10519543089E+02  0.17663062805E+03  0.18706139871E+03  0.00000000000E+00 0. -1.
         13    1    4    4    0    0  0.45985107502E+02 -0.49500190943E+01 -0.34497899304E+02  0.57699548156E+02  0.00000000000E+00 0. -1.
        -14    1    4    4    0    0  0.32702511545E+03  0.11953133343E+03 -0.87553577141E+02  0.35902478282E+03  0.00000000000E+00 0.  1.
          5    1    3    3  501    0  0.20252935759E+03  0.39519720828E+01 -0.80882746165E+03  0.83381838183E+03  0.41800000000E+01 0. -1.
         -5    1    3    3    0  501  0.14359345846E+02  0.18863376641E+02 -0.17102766337E+02  0.29529558205E+02  0.41800000000E+01 0. -1.
</event>
<event>
11    1  0.1704459E-009  0.2976715E+03  0.7561462E-02  0.1001182E+00
         22   -1    0    0    0    0  0.00000000000E+00  0.00000000000E+00  0.39500860532E+03  0.39500860532E+03  0.00000000000E+00 0.  1.
         22   -1    0    0    0    0 -0.00000000000E+00 -0.00000000000E+00 -0.71587456406E+03  0.71587456406E+03  0.00000000000E+00 0.  1.
         25    2    1    2    0    0  0.26911880565E+03 -0.86346060297E+02 -0.55617634266E+03  0.63628702063E+03  0.12509386397E+03 0.  0.
         24    2    1    2    0    0 -0.14647402606E+02 -0.37177635164E+00 -0.29555487664E+02  0.88432061560E+02  0.82048875921E+02 0.  0.
        -24    2    1    2    0    0 -0.25447140304E+03  0.86717836648E+02  0.26486587159E+03  0.38616408719E+03  0.81811332600E+02 0.  0.
        -11    1    4    4    0    0  0.22815315760E+01  0.34410931443E+02  0.70213671234E+01  0.35193993599E+02  0.00000000000E+00 0.  1.
         12    1    4    4    0    0 -0.16928934182E+02 -0.34782707795E+02 -0.36576854787E+02  0.53238067961E+02  0.00000000000E+00 0. -1.
         11    1    5    5    0    0 -0.32096215805E+02  0.16976473213E+02  0.42733145774E+01  0.36559936122E+02  0.00000000000E+00 0. -1.
        -12    1    5    5    0    0 -0.22237518724E+03  0.69741363435E+02  0.26059255701E+03  0.34960415107E+03  0.00000000000E+00 0.  1.
          5    1    3    3  501    0  0.20671915502E+03 -0.76379642661E+02 -0.29921265409E+03  0.37163469110E+03  0.41800000000E+01 0. -1.
         -5    1    3    3    0  501  0.62399650633E+02 -0.99664176351E+01 -0.25696368857E+03  0.26465232953E+03  0.41800000000E+01 0. -1.
</event>
<event>
11    1  0.1704459E-009  0.1454992E+04  0.7561462E-02  0.8336643E-01
         22   -1    0    0    0    0  0.00000000000E+00  0.00000000000E+00  0.31138238871E+04  0.31138238871E+04  0.00000000000E+00 0.  1.
         22   -1    0    0    0    0 -0.00000000000E+00 -0.00000000000E+00 -0.16996798639E+03  0.16996798639E+03  0.00000000000E+00 0.  1.
         25    2    1    2    0    0 -0.57139848958E+02  0.31337483578E+03  0.25039204458E+02  0.34313747573E+03  0.12509042912E+03 0.  0.
        -24    2    1    2    0    0  0.34709539735E+02 -0.17719094351E+03  0.14925999612E+04  0.15055634200E+04  0.79152922080E+02 0.  0.
         24    2    1    2    0    0  0.22430309224E+02 -0.13618389226E+03  0.14262167350E+04  0.14350909777E+04  0.79641494308E+02 0.  0.
        -11    1    5    5    0    0 -0.29041938227E+02 -0.64674345445E+02  0.68315096228E+03  0.68681980344E+03  0.00000000000E+00 0.  1.
         12    1    5    5    0    0  0.51472247451E+02 -0.71509546819E+02  0.74306577276E+03  0.74827117424E+03  0.00000000000E+00 0. -1.
         11    1    4    4    0    0 -0.21059542309E+02 -0.16384468422E+02  0.17717322835E+03  0.17917116948E+03  0.00000000000E+00 0. -1.
        -12    1    4    4    0    0  0.55769082044E+02 -0.16080647509E+03  0.13154267328E+04  0.13263922506E+04  0.00000000000E+00 0.  1.
          5    1    3    3  501    0 -0.61744552079E+02  0.83567324675E+02 -0.26987566947E+02  0.10743225137E+03  0.41800000000E+01 0.  1.
         -5    1    3    3    0  501  0.46047031211E+01  0.22980751110E+03  0.52026771405E+02  0.23570522436E+03  0.41800000000E+01 0.  1.
</event>
<event>
11    1  0.1704459E-009  0.7312691E+03  0.7561462E-02  0.8987453E-01
         22   -1    0    0    0    0  0.00000000000E+00  0.00000000000E+00  0.23943940308E+04  0.23943940308E+04  0.00000000000E+00 0. -1.
         22   -1    0    0    0    0 -0.00000000000E+00 -0.00000000000E+00 -0.25758394799E+03  0.25758394799E+03  0.00000000000E+00 0. -1.
         25    2    1    2    0    0  0.68215206392E+03  0.23918137778E+03  0.81978159767E+03  0.11001036682E+04  0.12508814140E+03 0.  0.
         24    2    1    2    0    0 -0.68022589507E+03 -0.22861766461E+03  0.10631644862E+04  0.12852671043E+04  0.81360307481E+02 0.  0.
        -24    2    1    2    0    0 -0.19261688512E+01 -0.10563713177E+02  0.25386399889E+03  0.26660720630E+03  0.80728993285E+02 0.  0.
        -13    1    4    4    0    0 -0.75413721381E+02 -0.67232836980E+01  0.14583168368E+03  0.16431467336E+03  0.00000000000E+00 0.  1.
         14    1    4    4    0    0 -0.60481217369E+03 -0.22189438091E+03  0.91733280256E+03  0.11209524309E+04  0.00000000000E+00 0. -1.
         11    1    5    5    0    0 -0.23640151594E+02  0.80573412480E+01  0.22919994797E+02  0.33898431776E+02  0.00000000000E+00 0. -1.
        -12    1    5    5    0    0  0.21713982743E+02 -0.18621054425E+02  0.23094400409E+03  0.23270877453E+03  0.00000000000E+00 0.  1.
          5    1    3    3  501    0  0.50897811365E+03  0.11892480578E+03  0.57940560732E+03  0.78033977202E+03  0.41800000000E+01 0. -1.
         -5    1    3    3    0  501  0.17317395027E+03  0.12025657200E+03  0.24037599035E+03  0.31976389617E+03  0.41800000000E+01 0. -1.
</event>
<event>
11    1  0.1704459E-009  0.2146481E+03  0.7561462E-02  0.1044623E+00
         22   -1    0    0    0    0  0.00000000000E+00  0.00000000000E+00  0.29909380844E+04  0.29909380844E+04  0.00000000000E+00 0. -1.
         22   -1    0    0    0    0 -0.00000000000E+00 -0.00000000000E+00 -0.35558867705E+02  0.35558867705E+02  0.00000000000E+00 0. -1.
         25    2    1    2    0    0 -0.50759456229E+02  0.14305178646E+03  0.58883167791E+03  0.62081489082E+03  0.12509215700E+03 0.  0.
         24    2    1    2    0    0  0.19369160691E+03 -0.16332041511E+03  0.15282807439E+04  0.15511786589E+04  0.79518569975E+02 0.  0.
        -24    2    1    2    0    0 -0.14293215068E+03  0.20268628650E+02  0.83826679493E+03  0.85450340246E+03  0.81513362937E+02 0.  0.
        -11    1    4    4    0    0  0.48070525456E+02 -0.39131921888E+02  0.61155440279E+03  0.61468762010E+03  0.00000000000E+00 0.  1.
         12    1    4    4    0    0  0.14562108146E+03 -0.12418849322E+03  0.91672634110E+03  0.93649103876E+03  0.00000000000E+00 0. -1.
         11    1    5    5    0    0 -0.13754166576E+03  0.40868685572E+02  0.75795284775E+03  0.77141459585E+03  0.00000000000E+00 0. -1.
        -12    1    5    5    0    0 -0.53904849195E+01 -0.20600056922E+02  0.80313947177E+02  0.83088806611E+02  0.00000000000E+00 0.  1.
          5    1    3    3  501    0 -0.78347337529E+02  0.49993763446E+02  0.36763319815E+03  0.37922199628E+03  0.41800000000E+01 0. -1.
         -5    1    3    3    0  501  0.27587881300E+02  0.93058023015E+02  0.22119847976E+03  0.24159289454E+03  0.41800000000E+01 0. -1.
</event>
<event>
11    1  0.1704459E-009  0.1405575E+03  0.7561462E-02  0.1106937E+00
         22   -1    0    0    0    0  0.00000000000E+00  0.00000000000E+00  0.21400526364E+03  0.21400526364E+03  0.00000000000E+00 0. -1.
         22   -1    0    0    0    0 -0.00000000000E+00 -0.00000000000E+00 -0.30480854951E+03  0.30480854951E+03  0.00000000000E+00 0. -1.
         25    2    1    2    0    0  0.64673643784E+02  0.18025900723E+02 -0.10876467333E+03  0.17884390517E+03  0.12509106664E+03 0.  0.
        -24    2    1    2    0    0 -0.35933569681E+02  0.41629732872E+02 -0.12642756199E+03  0.16106770258E+03  0.83274367573E+02 0.  0.
         24    2    1    2    0    0 -0.28740074103E+02 -0.59655633595E+02  0.14438894945E+03  0.17890220541E+03  0.82298504818E+02 0.  0.
        -13    1    5    5    0    0 -0.16620135599E+02 -0.20805932991E+02 -0.22468575846E+01  0.26723849348E+02  0.00000000000E+00 0.  1.
         14    1    5    5    0    0 -0.12119938503E+02 -0.38849700604E+02  0.14663580704E+03  0.15217835606E+03  0.00000000000E+00 0. -1.
         13    1    4    4    0    0 -0.59704594714E+02  0.10909604851E+02 -0.82664475048E+02  0.10255278418E+03  0.00000000000E+00 0. -1.
        -14    1    4    4    0    0  0.23771025033E+02  0.30720128021E+02 -0.43763086940E+02  0.58514918399E+02  0.00000000000E+00 0.  1.
          5    1    3    3  501    0  0.68030344180E+02  0.64757395927E+02 -0.62696254771E+02  0.11300416284E+03  0.41800000000E+01 0. -1.
         -5    1    3    3    0  501 -0.33567003968E+01 -0.46731495203E+02 -0.46068418563E+02  0.65839742332E+02  0.41800000000E+01 0. -1.
</event>
<event>
11    1  0.1704459E-009  0.1882700E+03  0.7561462E-02  0.1063143E+00
         22   -1    0    0    0    0  0.00000000000E+00  0.00000000000E+00  0.11073091920E+03  0.11073091920E+03  0.00000000000E+00 0. -1.
         22   -1    0    0    0    0 -0.00000000000E+00 -0.00000000000E+00 -0.86965195854E+03  0.86965195854E+03  0.00000000000E+00 0.  1.
         25    2    1    2    0    0  0.39562939594E+01 -0.81194020290E+01 -0.23611871642E+03  0.26735826645E+03  0.12508723934E+03 0.  0.
        -24    2    1    2    0    0  0.72540926404E+02  0.15862526479E+03 -0.48579287287E+03  0.52204478839E+03  0.78178546381E+02 0.  0.
         24    2    1    2    0    0 -0.76497220364E+02 -0.15050586276E+03 -0.37009450050E+02  0.19097982290E+03  0.81238869459E+02 0.  0.
        -13    1    5    5    0    0 -0.14394700087E+02 -0.19722132438E+02  0.23662750734E+02  0.34001406894E+02  0.00000000000E+00 0.  1.
         14    1    5    5    0    0 -0.62102520277E+02 -0.13078373032E+03 -0.60672200784E+02  0.15697841600E+03  0.00000000000E+00 0. -1.
         13    1    4    4    0    0  0.61380853201E+02  0.61247937648E+02 -0.16206362347E+03  0.18380298436E+03  0.00000000000E+00 0. -1.
        -14    1    4    4    0    0  0.11160073203E+02  0.97377327142E+02 -0.32372924940E+03  0.33824180403E+03  0.00000000000E+00 0.  1.
          5    1    3    3  501    0 -0.14136929340E+02 -0.17985674700E+02  0.62488207347E+01  0.24080228947E+02  0.41800000000E+01 0.  1.
         -5    1    3    3    0  501  0.18093223299E+02  0.98662726712E+01 -0.24236753716E+03  0.24327803751E+03  0.41800000000E+01 0.  1.
</event>
<event>
11    1  0.1704459E-009  0.1621427E+03  0.7561462E-02  0.1085079E+00
         22   -1    0    0    0    0  0.00000000000E+00  0.00000000000E+00  0.15540034263E+03  0.15540034263E+03  0.00000000000E+00 0. -1.
         22   -1    0    0    0    0 -0.00000000000E+00 -0.00000000000E+00 -0.35185561269E+03  0.35185561269E+03  0.00000000000E+00 0. -1.
         25    2    1    2    0    0 -0.21811391210E+02 -0.29036664333E+02 -0.11484913295E+03  0.17365678911E+03  0.12508993725E+03 0.  0.
         24    2    1    2    0    0 -0.24185918632E+02 -0.12193375453E+03 -0.57122963162E+02  0.15805846990E+03  0.79162161626E+02 0.  0.
        -24    2    1    2    0    0  0.45997309842E+02  0.15097041886E+03 -0.24483173951E+02  0.17554069631E+03  0.72851152157E+02 0.  0.
        -11    1    4    4    0    0 -0.51226973583E+01  0.67122978848E+01  0.88492485918E+01  0.12231360176E+02  0.00000000000E+00 0.  1.
         12    1    4    4    0    0 -0.19063221273E+02 -0.12864605241E+03 -0.65972211753E+02  0.14582710972E+03  0.00000000000E+00 0. -1.
         13    1    5    5    0    0  0.25956792530E+01  0.11363697509E+03 -0.10237681871E+01  0.11367122662E+03  0.00000000000E+00 0. -1.
        -14    1    5    5    0    0  0.43401630589E+02  0.37333443765E+02 -0.23459405763E+02  0.61869469691E+02  0.00000000000E+00 0.  1.
          5    1    3    3  501    0  0.32860626217E+02 -0.49231698182E+02 -0.20693363718E+02  0.62843206182E+02  0.41800000000E+01 0.  1.
         -5    1    3    3    0  501 -0.54672017427E+02  0.20195033849E+02 -0.94155769228E+02  0.11081358292E+03  0.41800000000E+01 0.  1.
</event>
<event>
11    1  0.1704459E-009  0.2433452E+03  0.7561462E-02  0.1027505E+00
         22   -1    0    0    0    0  0.00000000000E+00  0.00000000000E+00  0.41971160697E+03  0.41971160697E+03  0.00000000000E+00 0. -1.
         22   -1    0    0    0    0 -0.00000000000E+00 -0.00000000000E+00 -0.49584771996E+03  0.49584771996E+03  0.00000000000E+00 0.  1.
         25    2    1    2    0    0  0.17455441855E+03 -0.14423051742E+03 -0.30214331440E+03  0.39775652832E+03  0.12509191098E+03 0.  0.
         24    2    1    2    0    0 -0.11097004255E+03  0.14769728679E+03 -0.63096599623E+02  0.21083198793E+03  0.79624791252E+02 0.  0.
        -24    2    1    2    0    0 -0.63584375997E+02 -0.34667693734E+01  0.28910380104E+03  0.30697081068E+03  0.81210094632E+02 0.  0.
        -11    1    4    4    0    0 -0.39467822935E+02  0.45530647823E+02  0.17017968978E+02  0.62612779898E+02  0.00000000000E+00 0.  1.
         12    1    4    4    0    0 -0.71502219617E+02  0.10216663897E+03 -0.80114568601E+02  0.14821920803E+03  0.00000000000E+00 0. -1.
         13    1    5    5    0    0 -0.35088239750E+02  0.50224465522E+01  0.26842038567E+03  0.27075064724E+03  0.00000000000E+00 0. -1.
        -14    1    5    5    0    0 -0.28496136247E+02 -0.84892159256E+01  0.20683415376E+02  0.36220163440E+02  0.00000000000E+00 0.  1.
          5    1    3    3  501    0  0.19177608898E+03 -0.13471527623E+03 -0.29412475083E+03  0.37610253310E+03  0.41800000000E+01 0.  1.
         -5    1    3    3    0  501 -0.17221670429E+02 -0.95152411908E+01 -0.80185635735E+01  0.21653995222E+02  0.41800000000E+01 0.  1.
</event>
<event>
11    1  0.1704459E-009  0.1875532E+03  0.7561462E-02  0.1063692E+00
         22   -1    0    0    0    0  0.00000000000E+00  0.00000000000E+00  0.16619414402E+03  0.16619414402E+03  0.00000000000E+00 0. -1.
         22   -1    0    0    0    0 -0.00000000000E+00 -0.00000000000E+00 -0.49554776363E+03  0.49554776363E+03  0.00000000000E+00 0. -1.
         25    2    1    2    0    0 -0.37458556274E+02 -0.13472549940E+02 -0.20980777828E+03  0.24749435061E+03  0.12509794848E+03 0.  0.
        -24    2    1    2    0    0 -0.11987819152E+03 -0.69743354641E+02 -0.14247559678E+03  0.21376512629E+03  0.78494058491E+02 0.  0.
         24    2    1    2    0    0  0.15733674779E+03  0.83215904582E+02  0.22929755462E+02  0.20048243076E+03  0.89373890908E+02 0.  0.
        -11    1    5    5    0    0  0.63541905368E+01  0.26994939193E+02 -0.19471750298E+02  0.33885860460E+02  0.00000000000E+00 0.  1.
         12    1    5    5    0    0  0.15098255726E+03  0.56220965388E+02  0.42401505760E+02  0.16659657030E+03  0.00000000000E+00 0. -1.
         13    1    4    4    0    0 -0.12322832717E+03 -0.76123485812E+02 -0.11381210481E+03  0.18420966563E+03  0.00000000000E+00 0. -1.
        -14    1    4    4    0    0  0.33501356508E+01  0.63801311710E+01 -0.28663491970E+02  0.29555460656E+02  0.00000000000E+00 0.  1.
          5    1    3    3  501    0 -0.47881873843E+02 -0.15341856429E+02 -0.22382232081E+03  0.22943833615E+03  0.41800000000E+01 0.  1.
         -5    1    3    3    0  501  0.10423317569E+02  0.18693064884E+01  0.14014542528E+02  0.18056014460E+02  0.41800000000E+01 0.  1.
</event>
<event>
11    1  0.1704459E-009  0.2005895E+03  0.7561462E-02  0.1054108E+00
         22   -1    0    0    0    0  0.00000000000E+00  0.00000000000E+00  0.27014184469E+02  0.27014184469E+02  0.00000000000E+00 0. -1.
         22   -1    0    0    0    0 -0.00000000000E+00 -0.00000000000E+00 -0.31676106442E+04  0.31676106442E+04  0.00000000000E+00 0. -1.
         25    2    1    2    0    0 -0.83278266088E+02 -0.65196173467E+02 -0.18216938283E+04  0.18290440024E+04  0.12509095877E+03 0.  0.
        -24    2    1    2    0    0  0.16677742007E+02 -0.94678356169E+02 -0.86165139544E+03  0.87073035257E+03  0.80536211827E+02 0.  0.
         24    2    1    2    0    0  0.66600524080E+02  0.15987452964E+03 -0.45725123592E+03  0.49485047364E+03  0.76176134573E+02 0.  0.
        -13    1    5    5    0    0  0.53576709308E+02  0.65617353195E+02 -0.13997136518E+03  0.16360954706E+03  0.00000000000E+00 0.  1.
         14    1    5    5    0    0  0.13023814772E+02  0.94257176442E+02 -0.31727987074E+03  0.33124092658E+03  0.00000000000E+00 0. -1.
         13    1    4    4    0    0  0.20814235586E+02 -0.10539898980E+03 -0.83237426995E+03  0.83927891951E+03  0.00000000000E+00 0. -1.
        -14    1    4    4    0    0 -0.41364935782E+01  0.10720633635E+02 -0.29277125487E+02  0.31451433059E+02  0.00000000000E+00 0.  1.
          5    1    3    3  501    0 -0.55583475452E+02  0.29114891687E+02 -0.55988971985E+03  0.56341030382E+03  0.41800000000E+01 0.  1.
         -5    1    3    3    0  501 -0.27694790635E+02 -0.94311065154E+02 -0.12618041085E+04  0.12656336986E+04  0.41800000000E+01 0.  1.
</event>
<event>
11    1  0.1704459E-009  0.1776097E+03  0.7561462E-02  0.1071593E+00
         22   -1    0    0    0    0  0.00000000000E+00  0.00000000000E+00  0.68383438159E+02  0.68383438159E+02  0.00000000000E+00 0.  1.
         22   -1    0    0    0    0 -0.00000000000E+00 -0.00000000000E+00 -0.12015560169E+04  0.12015560169E+04  0.00000000000E+00 0.  1.
         25    2    1    2    0    0  0.11656922119E+03 -0.31354437104E+02 -0.90397516477E+03  0.92053849587E+03  0.12509412372E+03 0.  0.
         24    2    1    2    0    0 -0.13618161936E+03  0.57733648458E+02 -0.19004663991E+03  0.25408463120E+03  0.81010288567E+02 0.  0.
        -24    2    1    2    0    0  0.19612398166E+02 -0.26379211354E+02 -0.39150774030E+02  0.95316327969E+02  0.80448184050E+02 0.  0.
        -13    1    4    4    0    0 -0.10362727129E+03  0.14740064026E+01 -0.11557558541E+03  0.15523691569E+03  0.00000000000E+00 0.  1.
         14    1    4    4    0    0 -0.32554348065E+02  0.56259642055E+02 -0.74471054502E+02  0.98847715506E+02  0.00000000000E+00 0. -1.
         11    1    5    5    0    0 -0.30739047741E+02 -0.43938624235E+01 -0.20868393859E+02  0.37412363535E+02  0.00000000000E+00 0. -1.
        -12    1    5    5    0    0  0.50351445907E+02 -0.21985348930E+02 -0.18282380171E+02  0.57903964434E+02  0.00000000000E+00 0.  1.
          5    1    3    3  501    0  0.88709875090E+01  0.13711483243E+02 -0.49284326673E+03  0.49313148060E+03  0.41800000000E+01 0.  1.
         -5    1    3    3    0  501  0.10769823368E+03 -0.45065920347E+02 -0.41113189804E+03  0.42740701527E+03  0.41800000000E+01 0.  1.
</event>
<event>
11    1  0.1704459E-009  0.5491383E+03  0.7561462E-02  0.9289962E-01
         22   -1    0    0    0    0  0.00000000000E+00  0.00000000000E+00  0.50249009833E+03  0.50249009833E+03  0.00000000000E+00 0.  1.
         22   -1    0    0    0    0 -0.00000000000E+00 -0.00000000000E+00 -0.90206547866E+03  0.90206547866E+03  0.00000000000E+00 0. -1.
         25    2    1    2    0    0 -0.26836527026E+03  0.39978654146E+03 -0.26282162974E+03  0.56264748787E+03  0.12509112492E+03 0.  0.
        -24    2    1    2    0    0  0.41578946779E+03 -0.45962951394E+03 -0.19475133823E+03  0.65462484472E+03  0.80407909843E+02 0.  0.
         24    2    1    2    0    0 -0.14742419753E+03  0.59842972481E+02  0.57997587646E+02  0.18728324440E+03  0.79976359556E+02 0.  0.
        -11    1    5    5    0    0 -0.46976929620E+02  0.56178717707E+02  0.44948084797E+02  0.85925610656E+02  0.00000000000E+00 0.  1.
         12    1    5    5    0    0 -0.10044726791E+03  0.36642547745E+01  0.13049502849E+02  0.10135763375E+03  0.00000000000E+00 0. -1.
         11    1    4    4    0    0  0.31865772933E+03 -0.29788000333E+03 -0.14147190867E+03  0.45857338103E+03  0.00000000000E+00 0. -1.
        -12    1    4    4    0    0  0.97131738459E+02 -0.16174951061E+03 -0.53279429559E+02  0.19605146369E+03  0.00000000000E+00 0.  1.
          5    1    3    3  501    0 -0.16722000726E+03  0.19931732993E+03 -0.77570930847E+02  0.27152283615E+03  0.41800000000E+01 0. -1.
         -5    1    3    3    0  501 -0.10114526300E+03  0.20046921153E+03 -0.18525069889E+03  0.29112465172E+03  0.41800000000E+01 0. -1.
</event>
<event>
11    1  0.1704459E-009  0.1501528E+03  0.7561462E-02  0.1096723E+00
         22   -1    0    0    0    0  0.00000000000E+00  0.00000000000E+00  0.12283392288E+03  0.12283392288E+03  0.00000000000E+00 0. -1.
         22   -1    0    0    0    0 -0.00000000000E+00 -0.00000000000E+00 -0.21947908632E+04  0.21947908632E+04  0.00000000000E+00 0. -1.
         25    2    1    2    0    0  0.79792891902E+02 -0.26224340564E+02 -0.20832901686E+04  0.20887317513E+04  0.12509108859E+03 0.  0.
         24    2    1    2    0    0 -0.30240719683E+02  0.19231977040E+02 -0.63846874037E+02  0.10788557103E+03  0.79237005518E+02 0.  0.
        -24    2    1    2    0    0 -0.49552172219E+02  0.69923635244E+01  0.75180102304E+02  0.12100746381E+03  0.80538485191E+02 0.  0.
        -11    1    4    4    0    0 -0.76105122493E+01  0.10836433096E+02 -0.78526295699E+02  0.79634962768E+02  0.00000000000E+00 0.  1.
         12    1    4    4    0    0 -0.22630207434E+02  0.83955439435E+01  0.14679421662E+02  0.28250608258E+02  0.00000000000E+00 0. -1.
         13    1    5    5    0    0  0.32780810260E+01 -0.21663520831E+02  0.52289576989E+02  0.56694389596E+02  0.00000000000E+00 0. -1.
        -14    1    5    5    0    0 -0.52830253245E+02  0.28655884355E+02  0.22890525315E+02  0.64313074217E+02  0.00000000000E+00 0.  1.
          5    1    3    3  501    0  0.84633562779E+02 -0.65183058311E+02 -0.12733558467E+04  0.12778357703E+04  0.41800000000E+01 0.  1.
         -5    1    3    3    0  501 -0.48406708766E+01  0.38958717747E+02 -0.80993432188E+03  0.81089598097E+03  0.41800000000E+01 0.  1.
</event>
<event>
11    1  0.1704459E-009  0.1560837E+03  0.7561462E-02  0.1090820E+00
         22   -1    0    0    0    0  0.00000000000E+00  0.00000000000E+00  0.57625267935E+03  0.57625267935E+03  0.00000000000E+00 0.  1.
         22   -1    0    0    0    0 -0.00000000000E+00 -0.00000000000E+00 -0.76701353903E+02  0.76701353903E+02  0.00000000000E+00 0. -1.
         25    2    1    2    0    0  0.35711432460E+02 -0.10665269766E+03  0.10565189655E+03  0.19864714980E+03  0.12509301560E+03 0.  0.
         24    2    1    2    0    0  0.21427759512E+02  0.37136113203E+02  0.92509444497E+02  0.12966794657E+03  0.80109545409E+02 0.  0.
        -24    2    1    2    0    0 -0.57139191972E+02  0.69516584453E+02  0.30138998441E+03  0.32463893689E+03  0.80355919945E+02 0.  0.
        -11    1    4    4    0    0  0.15572330741E+02 -0.24436847880E+02  0.27879084610E+02  0.40210699791E+02  0.00000000000E+00 0.  1.
         12    1    4    4    0    0  0.58554287710E+01  0.61572961083E+02  0.64630359887E+02  0.89457246782E+02  0.00000000000E+00 0. -1.
         13    1    5    5    0    0  0.89680230473E+01  0.33346974338E+01  0.12154799885E+03  0.12192399956E+03  0.00000000000E+00 0. -1.
        -14    1    5    5    0    0 -0.66107215019E+02  0.66181887019E+02  0.17984198556E+03  0.20271493733E+03  0.00000000000E+00 0.  1.
          5    1    3    3  501    0  0.59743432934E+01  0.62853318394E+01  0.77955709408E+02  0.78547840221E+02  0.41800000000E+01 0. -1.
         -5    1    3    3    0  501  0.29737089167E+02 -0.11293802950E+03  0.27696187142E+02  0.12009930958E+03  0.41800000000E+01 0. -1.
</event>
<event>
11    1  0.1704459E-009  0.1385142E+03  0.7561462E-02  0.1109229E+00
         22   -1    0    0    0    0  0.00000000000E+00  0.00000000000E+00  0.13546829109E+03  0.13546829109E+03  0.00000000000E+00 0.  1.
         22   -1    0    0    0    0 -0.00000000000E+00 -0.00000000000E+00 -0.12607048873E+04  0.12607048873E+04  0.00000000000E+00 0.  1.
         25    2    1    2    0    0 -0.49626048064E+02 -0.30879204596E+02 -0.76173377852E+03  0.77414735513E+03  0.12509799435E+03 0.  0.
        -24    2    1    2    0    0  0.60121342444E+02  0.14294672519E+02 -0.47378213355E+03  0.48448873272E+03  0.80255271343E+02 0.  0.
         24    2    1    2    0    0 -0.10495294380E+02  0.16584532077E+02  0.11027931589E+03  0.13753709052E+03  0.79810562259E+02 0.  0.
        -11    1    5    5    0    0  0.21832989647E+01  0.66453648489E+00  0.11629305752E+03  0.11631544880E+03  0.00000000000E+00 0.  1.
         12    1    5    5    0    0 -0.12678593345E+02  0.15919995592E+02 -0.60137416305E+01  0.21221641719E+02  0.00000000000E+00 0. -1.
         13    1    4    4    0    0  0.43607117615E+02  0.32055591288E+02 -0.14430665666E+03  0.15412187644E+03  0.00000000000E+00 0. -1.
        -14    1    4    4    0    0  0.16514224829E+02 -0.17760918769E+02 -0.32947547689E+03  0.33036685628E+03  0.00000000000E+00 0.  1.
          5    1    3    3  501    0 -0.16849052172E+02 -0.19432636842E+01 -0.68871732586E+03  0.68893881744E+03  0.41800000000E+01 0.  1.
         -5    1    3    3    0  501 -0.32776995892E+02 -0.28935940912E+02 -0.73016452657E+02  0.85208537687E+02  0.41800000000E+01 0.  1.
</event>
<event>
11    1  0.1704459E-009  0.4357312E+03  0.7561462E-02  0.9549842E-01
         22   -1    0    0    0    0  0.00000000000E+00  0.00000000000E+00  0.11905853293E+03  0.11905853293E+03  0.00000000000E+00 0. -1.
         22   -1    0    0    0    0 -0.00000000000E+00 -0.00000000000E+00 -0.13087530807E+04  0.13087530807E+04  0.00000000000E+00 0. -1.
         25    2    1    2    0    0 -0.79010073571E+02 -0.83074149283E+02 -0.32569341971E+03  0.36724309205E+03  0.12508948402E+03 0.  0.
        -24    2    1    2    0    0  0.30954204864E+03  0.12540037162E+03 -0.64000665976E+03  0.72637133284E+03  0.80406812897E+02 0.  0.
         24    2    1    2    0    0 -0.23053197507E+03 -0.42326222340E+02 -0.22399446833E+03  0.33419718876E+03  0.81103258296E+02 0.  0.
        -11    1    5    5    0    0 -0.22621154934E+02  0.15291603479E+02 -0.50246592420E+02  0.57186273155E+02  0.00000000000E+00 0.  1.
         12    1    5    5    0    0 -0.20791082014E+03 -0.57617825819E+02 -0.17374787591E+03  0.27701091560E+03  0.00000000000E+00 0. -1.
         13    1    4    4    0    0  0.14276954632E+03  0.48225451660E+02 -0.37250081442E+03  0.40182794115E+03  0.00000000000E+00 0. -1.
        -14    1    4    4    0    0  0.16677250233E+03  0.77174919963E+02 -0.26750584534E+03  0.32454339170E+03  0.00000000000E+00 0.  1.
          5    1    3    3  501    0 -0.79616018965E+02 -0.74999694958E+02 -0.33606246149E+03  0.35343898362E+03  0.41800000000E+01 0.  1.
         -5    1    3    3    0  501  0.60594539382E+00 -0.80744543255E+01  0.10369041774E+02  0.13804108439E+02  0.41800000000E+01 0.  1.
</event>
<event>
11    1  0.1704459E-009  0.2419977E+03  0.7561462E-02  0.1028251E+00
         22   -1    0    0    0    0  0.00000000000E+00  0.00000000000E+00  0.30794600650E+03  0.30794600650E+03  0.00000000000E+00 0. -1.
         22   -1    0    0    0    0 -0.00000000000E+00 -0.00000000000E+00 -0.99927077433E+03  0.99927077433E+03  0.00000000000E+00 0. -1.
         25    2    1    2    0    0  0.10726997921E+03  0.20468369415E+03 -0.74633544558E+03  0.79124358656E+03  0.12509017891E+03 0.  0.
         24    2    1    2    0    0 -0.19201624853E+03 -0.44063417726E+02 -0.12652821622E+03  0.24697745632E+03  0.78591665892E+02 0.  0.
        -24    2    1    2    0    0  0.84746269319E+02 -0.16062027642E+03  0.18153889396E+03  0.26899573795E+03  0.80134472332E+02 0.  0.
        -11    1    4    4    0    0 -0.28594366437E+02 -0.27105659285E+02 -0.55306086172E+02  0.67905211323E+02  0.00000000000E+00 0.  1.
         12    1    4    4    0    0 -0.16342188210E+03 -0.16957758441E+02 -0.71222130044E+02  0.17907224499E+03  0.00000000000E+00 0. -1.
         11    1    5    5    0    0  0.50850879440E+02 -0.11507246891E+03  0.70327591531E+02  0.14412999400E+03  0.00000000000E+00 0. -1.
        -12    1    5    5    0    0  0.33895389879E+02 -0.45547807509E+02  0.11121130243E+03  0.12486574395E+03  0.00000000000E+00 0.  1.
          5    1    3    3  501    0  0.56986884068E+02  0.20407907088E+03 -0.61903794069E+03  0.65430972524E+03  0.41800000000E+01 0.  1.
         -5    1    3    3    0  501  0.50283095145E+02  0.60462327006E+00 -0.12729750489E+03  0.13693386132E+03  0.41800000000E+01 0.  1.
</event>
<event>
11    1  0.1704459E-009  0.2101430E+03  0.7561462E-02  0.1047574E+00
         22   -1    0    0    0    0  0.00000000000E+00  0.00000000000E+00  0.34176438897E+03  0.34176438897E+03  0.00000000000E+00 0. -1.
         22   -1    0    0    0    0 -0.00000000000E+00 -0.00000000000E+00 -0.23519987446E+03  0.23519987446E+03  0.00000000000E+00 0.  1.
         25    2    1    2    0    0  0.76173296435E+02 -0.14341799435E+03 -0.79637066860E+02  0.21991166396E+03  0.12509190755E+03 0.  0.
         24    2    1    2    0    0 -0.11969454446E+03  0.14132105546E+03  0.78739112007E+02  0.21608994293E+03  0.78718428504E+02 0.  0.
        -24    2    1    2    0    0  0.43521248025E+02  0.20969388904E+01  0.10746246936E+03  0.14096265655E+03  0.80148562296E+02 0.  0.
        -13    1    4    4    0    0 -0.95917138631E+01  0.56965016468E+02  0.25137498855E+01  0.57821561848E+02  0.00000000000E+00 0.  1.
         14    1    4    4    0    0 -0.11010283060E+03  0.84356038989E+02  0.76225362122E+02  0.15826838108E+03  0.00000000000E+00 0. -1.
         13    1    5    5    0    0  0.62889301972E+02  0.94027337102E+01  0.10086605284E+03  0.11923689160E+03  0.00000000000E+00 0. -1.
        -14    1    5    5    0    0 -0.19368053947E+02 -0.73057948199E+01  0.65964165211E+01  0.21725764947E+02  0.00000000000E+00 0.  1.
          5    1    3    3  501    0 -0.19454403534E+02 -0.22776142480E+02  0.20209188714E+02  0.36374581669E+02  0.41800000000E+01 0.  1.
         -5    1    3    3    0  501  0.95627699969E+02 -0.12064185187E+03 -0.99846255573E+02  0.18353708229E+03  0.41800000000E+01 0.  1.
</event>
<event>
11    1  0.1704459E-009  0.3318960E+03  0.7561462E-02  0.9875283E-01
         22   -1    0    0    0    0  0.00000000000E+00  0.00000000000E+00  0.36243448536E+03  0.36243448536E+03  0.00000000000E+00 0.  1.
         22   -1    0    0    0    0 -0.00000000000E+00 -0.00000000000E+00 -0.58681493682E+03  0.58681493682E+03  0.00000000000E+00 0. -1.
         25    2    1    2    0    0 -0.30714992894E+03 -0.10538250610E+02 -0.38722214842E+03  0.50994210652E+03  0.12509127145E+03 0.  0.
        -24    2    1    2    0    0  0.30580723490E+03  0.48113289105E+02  0.12167370154E+03  0.34233541720E+03  0.80969714793E+02 0.  0.
         24    2    1    2    0    0  0.13426940424E+01 -0.37575038495E+02  0.41167995417E+02  0.96971898465E+02  0.79341407222E+02 0.  0.
        -11    1    5    5    0    0  0.45038427468E+01 -0.61331843519E+02  0.39193092170E+02  0.72924468478E+02  0.00000000000E+00 0.  1.
         12    1    5    5    0    0 -0.31611487044E+01  0.23756805025E+02  0.19749032478E+01  0.24047429987E+02  0.00000000000E+00 0. -1.
         11    1    4    4    0    0  0.14305822851E+02 -0.97489194059E+01 -0.67561895287E+01  0.18583436011E+02  0.00000000000E+00 0. -1.
        -12    1    4    4    0    0  0.29150141205E+03  0.57862208510E+02  0.12842989107E+03  0.32375198118E+03  0.00000000000E+00 0.  1.
          5    1    3    3  501    0 -0.29727666927E+03  0.21407831294E+02 -0.35025013784E+03  0.45991775872E+03  0.41800000000E+01 0.  1.
         -5    1    3    3    0  501 -0.98732596737E+01 -0.31946081904E+02 -0.36972010586E+02  0.50024347796E+02  0.41800000000E+01 0.  1.
</event>
<event>
11    1  0.1704459E-009  0.1312968E+03  0.7561462E-02  0.1117686E+00
         22   -1    0    0    0    0  0.00000000000E+00  0.00000000000E+00  0.72897893300E+03  0.72897893300E+03  0.00000000000E+00 0.  1.
         22   -1    0    0    0    0 -0.00000000000E+00 -0.00000000000E+00 -0.11090150228E+04  0.11090150228E+04  0.00000000000E+00 0. -1.
         25    2    1    2    0    0 -0.30469806490E+02 -0.28324506967E+02 -0.61978735462E+03  0.63365120263E+03  0.12508714896E+03 0.  0.
         24    2    1    2    0    0 -0.93916421591E+01  0.25896062727E+02 -0.47567339317E+03  0.48328719926E+03  0.80885913421E+02 0.  0.
        -24    2    1    2    0    0  0.39861448649E+02  0.24284442397E+01  0.71542465802E+03  0.72105555388E+03  0.80584353617E+02 0.  0.
        -11    1    4    4    0    0 -0.23861307693E+02  0.72509697164E+01 -0.41106959871E+02  0.48080356868E+02  0.00000000000E+00 0.  1.
         12    1    4    4    0    0  0.14469665534E+02  0.18645093011E+02 -0.43456643330E+03  0.43520684239E+03  0.00000000000E+00 0. -1.
         13    1    5    5    0    0  0.22664876691E+02 -0.15002970716E+02  0.68901997178E+02  0.74069366008E+02  0.00000000000E+00 0. -1.
        -14    1    5    5    0    0  0.17196571959E+02  0.17431414956E+02  0.64652266084E+03  0.64698618787E+03  0.00000000000E+00 0.  1.
          5    1    3    3  501    0  0.44191773351E+02 -0.28821521452E+02 -0.33760936052E+03  0.34173256450E+03  0.41800000000E+01 0. -1.
         -5    1    3    3    0  501 -0.74661579841E+02  0.49701448487E+00 -0.28217799410E+03  0.29191863812E+03  0.41800000000E+01 0. -1.
</event>
<event>
11    1  0.1704459E-009  0.2271733E+03  0.7561462E-02  0.1036815E+00
         22   -1    0    0    0    0  0.00000000000E+00  0.00000000000E+00  0.40512665802E+03  0.40512665802E+03  0.00000000000E+00 0.  1.
         22   -1    0    0    0    0 -0.00000000000E+00 -0.00000000000E+00 -0.23365031452E+03  0.23365031452E+03  0.00000000000E+00 0.  1.
         25    2    1    2    0    0 -0.56192350111E+02 -0.22681570329E+03 -0.69583896199E+01  0.26513006646E+03  0.12507033814E+03 0.  0.
        -24    2    1    2    0    0  0.48886089084E+02  0.14788593465E+03  0.21507747969E+02  0.17863946773E+03  0.84790193037E+02 0.  0.
         24    2    1    2    0    0  0.73062610274E+01  0.78929768641E+02  0.15692698515E+03  0.19500743835E+03  0.84371396310E+02 0.  0.
        -13    1    5    5    0    0 -0.95551853559E+01  0.62297857202E+02  0.37679420011E+02  0.73430669829E+02  0.00000000000E+00 0.  1.
         14    1    5    5    0    0  0.16861446383E+02  0.16631911439E+02  0.11924756514E+03  0.12157676852E+03  0.00000000000E+00 0. -1.
         13    1    4    4    0    0 -0.10619160392E+02  0.78667899248E+02  0.34286510876E+02  0.86469473039E+02  0.00000000000E+00 0. -1.
        -14    1    4    4    0    0  0.59505249476E+02  0.69218035405E+02 -0.12778762907E+02  0.92169994695E+02  0.00000000000E+00 0.  1.
          5    1    3    3  501    0  0.72708253810E+01 -0.53338521802E+02 -0.51987797543E+02  0.74953761100E+02  0.41800000000E+01 0. -1.
         -5    1    3    3    0  501 -0.63463175492E+02 -0.17347718149E+03  0.45029407923E+02  0.19017630536E+03  0.41800000000E+01 0. -1.
</event>
<event>
11    1  0.1704459E-009  0.3691234E+03  0.7561462E-02  0.9745528E-01
         22   -1    0    0    0    0  0.00000000000E+00  0.00000000000E+00  0.14333633632E+04  0.14333633632E+04  0.00000000000E+00 0.  1.
         22   -1    0    0    0    0 -0.00000000000E+00 -0.00000000000E+00 -0.21586177222E+03  0.21586177222E+03  0.00000000000E+00 0.  1.
         25    2    1    2    0    0 -0.88961798375E+02  0.35186614320E+03  0.29075777932E+02  0.38498384979E+03  0.12507269661E+03 0.  0.
        -24    2    1    2    0    0  0.68023579446E+02 -0.28543487208E+03  0.67991292412E+03  0.74565051411E+03  0.87251540106E+02 0.  0.
         24    2    1    2    0    0  0.20938218929E+02 -0.66431271125E+02  0.50851288898E+03  0.51859077156E+03  0.74158663021E+02 0.  0.
        -13    1    5    5    0    0  0.42363147706E+02 -0.19043870453E+02  0.30609783605E+03  0.30960166427E+03  0.00000000000E+00 0.  1.
         14    1    5    5    0    0 -0.21424928777E+02 -0.47387400672E+02  0.20241505293E+03  0.20898910729E+03  0.00000000000E+00 0. -1.
         13    1    4    4    0    0  0.82726433052E+01 -0.24586951392E+02  0.17681620743E+02  0.31394179686E+02  0.00000000000E+00 0. -1.
        -14    1    4    4    0    0  0.59750936141E+02 -0.26084792069E+03  0.66223130338E+03  0.71425633443E+03  0.00000000000E+00 0.  1.
          5    1    3    3  501    0 -0.61699774520E+02  0.51575156028E+02  0.21446806393E+02  0.83332447459E+02  0.41800000000E+01 0.  1.
         -5    1    3    3    0  501 -0.27262023855E+02  0.30029098717E+03  0.76289715392E+01  0.30165140233E+03  0.41800000000E+01 0.  1.
</event>
<event>
11    1  0.1704459E-009  0.3308139E+03  0.7561462E-02  0.9879324E-01
         22   -1    0    0    0    0  0.00000000000E+00  0.00000000000E+00  0.30321959696E+03  0.30321959696E+03  0.00000000000E+00 0.  1.
         22   -1    0    0    0    0 -0.00000000000E+00 -0.00000000000E+00 -0.26177508667E+04  0.26177508667E+04  0.00000000000E+00 0. -1.
         25    2    1    2    0    0 -0.44955133186E+02 -0.40257799923E+02 -0.71547693001E+03  0.72883201928E+03  0.12508885039E+03 0.  0.
         24    2    1    2    0    0  0.47081514586E+02  0.35806119302E+03 -0.17792631145E+04  0.18174994764E+04  0.84277097628E+02 0.  0.
        -24    2    1    2    0    0 -0.21263813996E+01 -0.31780339309E+03  0.18020877475E+03  0.37463896799E+03  0.82919452958E+02 0.  0.
        -11    1    4    4    0    0 -0.32078812548E+01  0.58307430617E+02 -0.16906021199E+03  0.17886140513E+03  0.00000000000E+00 0.  1.
         12    1    4    4    0    0  0.50289395841E+02  0.29975376240E+03 -0.16102029025E+04  0.16386380713E+04  0.00000000000E+00 0. -1.
         11    1    5    5    0    0 -0.31122115370E+02 -0.22767262714E+03  0.15321824246E+03  0.27618696753E+03  0.00000000000E+00 0. -1.
        -12    1    5    5    0    0  0.28995733970E+02 -0.90130765954E+02  0.26990532289E+02  0.98452000453E+02  0.00000000000E+00 0.  1.
          5    1    3    3  501    0 -0.38227539802E+02 -0.19613863400E+02 -0.70116615639E+03  0.70249377200E+03  0.41800000000E+01 0.  1.
         -5    1    3    3    0  501 -0.67275933838E+01 -0.20643936523E+02 -0.14310773625E+02  0.26338247278E+02  0.41800000000E+01 0.  1.
</event>
<event>
11    1  0.1704459E-009  0.9752473E+03  0.7561462E-02  0.8702920E-01
         22   -1    0    0    0    0  0.00000000000E+00  0.00000000000E+00  0.10200698369E+04  0.10200698369E+04  0.00000000000E+00 0.  1.
         22   -1    0    0    0    0 -0.00000000000E+00 -0.00000000000E+00 -0.13621836544E+04  0.13621836544E+04  0.00000000000E+00 0.  1.
         25    2    1    2    0    0 -0.77567314710E+03  0.58391864827E+03 -0.77970862802E+03  0.12514881191E+04  0.12508856338E+03 0.  0.
         24    2    1    2    0    0  0.77108404712E+03 -0.56504004957E+03  0.40115786589E+03  0.10401328885E+04  0.84308522772E+02 0.  0.
        -24    2    1    2    0    0  0.45890999829E+01 -0.18878598696E+02  0.36436944560E+02  0.90632483746E+02  0.80679209551E+02 0.  0.
        -11    1    4    4    0    0  0.62204084287E+03 -0.49497405872E+03  0.32936567124E+03  0.86047421483E+03  0.00000000000E+00 0.  1.
         12    1    4    4    0    0  0.14904320425E+03 -0.70065990850E+02  0.71792194652E+02  0.17965867365E+03  0.00000000000E+00 0. -1.
         11    1    5    5    0    0 -0.25699527597E+02 -0.19184388837E+02  0.48403832329E+02  0.58064080789E+02  0.00000000000E+00 0. -1.
        -12    1    5    5    0    0  0.30288627580E+02  0.30579014157E+00 -0.11966887769E+02  0.32568402957E+02  0.00000000000E+00 0.  1.
          5    1    3    3  501    0 -0.62929227746E+03  0.50524823358E+03 -0.59283386609E+03  0.10013760598E+04  0.41800000000E+01 0. -1.
         -5    1    3    3    0  501 -0.14638086964E+03  0.78670414684E+02 -0.18687476193E+03  0.25011205926E+03  0.41800000000E+01 0. -1.
</event>
<event>
11    1  0.1704459E-009  0.1001647E+04  0.7561462E-02  0.8677449E-01
         22   -1    0    0    0    0  0.00000000000E+00  0.00000000000E+00  0.17880353228E+04  0.17880353228E+04  0.00000000000E+00 0.  1.
         22   -1    0    0    0    0 -0.00000000000E+00 -0.00000000000E+00 -0.78944177180E+03  0.78944177180E+03  0.00000000000E+00 0.  1.
         25    2    1    2    0    0 -0.68501623094E+03 -0.73456958316E+03 -0.68142294830E+02  0.10144601479E+04  0.12508521167E+03 0.  0.
        -24    2    1    2    0    0  0.75547476930E+03  0.61732885905E+03  0.87164259518E+03  0.13107489819E+04  0.80405426722E+02 0.  0.
         24    2    1    2    0    0 -0.70458538357E+02  0.11724072411E+03  0.19509325060E+03  0.25226796472E+03  0.82873135421E+02 0.  0.
        -13    1    5    5    0    0 -0.15419114314E+02 -0.97443858742E+00  0.69588234325E+02  0.71282683544E+02  0.00000000000E+00 0.  1.
         14    1    5    5    0    0 -0.55039424044E+02  0.11821516270E+03  0.12550501628E+03  0.18098528117E+03  0.00000000000E+00 0. -1.
         13    1    4    4    0    0  0.19182040963E+03  0.13146730838E+03  0.24622151612E+03  0.33867943209E+03  0.00000000000E+00 0. -1.
        -14    1    4    4    0    0  0.56365435967E+03  0.48586155068E+03  0.62542107907E+03  0.97206954985E+03  0.00000000000E+00 0.  1.
          5    1    3    3  501    0 -0.82969214333E+02 -0.48036889735E+02  0.16671327628E+02  0.97400404862E+02  0.41800000000E+01 0.  1.
         -5    1    3    3    0  501 -0.60204701661E+03 -0.68653269343E+03 -0.84813622458E+02  0.91705974304E+03  0.41800000000E+01 0.  1.
</event>
<event>
11    1  0.1704459E-009  0.2744898E+03  0.7561462E-02  0.1011606E+00
         22   -1    0    0    0    0  0.00000000000E+00  0.00000000000E+00  0.39977408190E+03  0.39977408190E+03  0.00000000000E+00 0.  1.
         22   -1    0    0    0    0 -0.00000000000E+00 -0.00000000000E+00 -0.64011769919E+03  0.64011769919E+03  0.00000000000E+00 0. -1.
         25    2    1    2    0    0 -0.11946324673E+03  0.12995065209E+03 -0.97340945962E+02  0.23723744860E+03  0.12509079886E+03 0.  0.
         24    2    1    2    0    0  0.30380677692E+03 -0.96355133163E+02 -0.37184915650E+03  0.49618553347E+03  0.79658138602E+02 0.  0.
        -24    2    1    2    0    0 -0.18434353019E+03 -0.33595518922E+02  0.22884648517E+03  0.30646879902E+03  0.80257180278E+02 0.  0.
        -11    1    4    4    0    0  0.17743998479E+03 -0.60506232033E+02 -0.15778965726E+03  0.24503780985E+03  0.00000000000E+00 0.  1.
         12    1    4    4    0    0  0.12636679213E+03 -0.35848901130E+02 -0.21405949924E+03  0.25114772362E+03  0.00000000000E+00 0. -1.
         13    1    5    5    0    0 -0.45550973375E+02 -0.31937888716E+02  0.27878095695E+02  0.62226265601E+02  0.00000000000E+00 0. -1.
        -14    1    5    5    0    0 -0.13879255681E+03 -0.16576302060E+01  0.20096838947E+03  0.24424253342E+03  0.00000000000E+00 0.  1.
          5    1    3    3  501    0 -0.31522461371E+02 -0.23410960418E+02 -0.19176401591E+02  0.43896986417E+02  0.41800000000E+01 0.  1.
         -5    1    3    3    0  501 -0.87940785359E+02  0.15336161250E+03 -0.78164544370E+02  0.19334046218E+03  0.41800000000E+01 0.  1.
</event>
<event>
11    1  0.1704459E-009  0.1291022E+03  0.7561462E-02  0.1120377E+00
         22   -1    0    0    0    0  0.00000000000E+00  0.00000000000E+00  0.30070335756E+04  0.30070335756E+04  0.00000000000E+00 0.  1.
         22   -1    0    0    0    0 -0.00000000000E+00 -0.00000000000E+00 -0.12320307744E+03  0.12320307744E+03  0.00000000000E+00 0.  1.
         25    2    1    2    0    0 -0.19633145886E+01  0.26866347457E+02 -0.29914872597E+01  0.12799280954E+03  0.12509018774E+03 0.  0.
         24    2    1    2    0    0 -0.12822535824E+02 -0.33355857362E+02 -0.22302558960E+02  0.91956815975E+02  0.81741184373E+02 0.  0.
        -24    2    1    2    0    0  0.14785850413E+02  0.64895099054E+01  0.29091245443E+04  0.29102870275E+04  0.80648823661E+02 0.  0.
        -11    1    4    4    0    0 -0.35986974099E+02 -0.14377333776E+02 -0.41188084355E+02  0.56552880776E+02  0.00000000000E+00 0.  1.
         12    1    4    4    0    0  0.23164438275E+02 -0.18978523586E+02  0.18885525394E+02  0.35403935198E+02  0.00000000000E+00 0. -1.
         11    1    5    5    0    0  0.30419797560E+01  0.36319202232E+02  0.71500818741E+03  0.71593648192E+03  0.00000000000E+00 0. -1.
        -12    1    5    5    0    0  0.11743870657E+02 -0.29829692327E+02  0.21941163569E+04  0.21943505456E+04  0.00000000000E+00 0.  1.
          5    1    3    3  501    0  0.61581873005E+01 -0.39899317542E+02  0.32347723110E+02  0.51901121390E+02  0.41800000000E+01 0. -1.
         -5    1    3    3    0  501 -0.81215018891E+01  0.66765664999E+02 -0.35339210370E+02  0.76091688148E+02  0.41800000000E+01 0. -1.
</event>
<event>
11    1  0.1704459E-009  0.1503700E+03  0.7561462E-02  0.1096501E+00
         22   -1    0    0    0    0  0.00000000000E+00  0.00000000000E+00  0.64834287568E+03  0.64834287568E+03  0.00000000000E+00 0. -1.
         22   -1    0    0    0    0 -0.00000000000E+00 -0.00000000000E+00 -0.16313534969E+04  0.16313534969E+04  0.00000000000E+00 0. -1.
         25    2    1    2    0    0  0.28040589754E+02  0.65716339632E+02 -0.77831582084E+03  0.79153511642E+03  0.12508961423E+03 0.  0.
        -24    2    1    2    0    0  0.21092466919E+02 -0.97133832764E+02 -0.83745248256E+03  0.84765515904E+03  0.85514527852E+02 0.  0.
         24    2    1    2    0    0 -0.49133056673E+02  0.31417493132E+02  0.63275768217E+03  0.64050609714E+03  0.80403109312E+02 0.  0.
        -11    1    5    5    0    0  0.21199238285E+02  0.13861379002E+02  0.11951876026E+03  0.12217315411E+03  0.00000000000E+00 0.  1.
         12    1    5    5    0    0 -0.70332294958E+02  0.17556114130E+02  0.51323892192E+03  0.51833294303E+03  0.00000000000E+00 0. -1.
         11    1    4    4    0    0  0.32351745286E+02 -0.91126152065E+02 -0.82175393691E+03  0.82742379941E+03  0.00000000000E+00 0. -1.
        -12    1    4    4    0    0 -0.11259278367E+02 -0.60076806996E+01 -0.15698545652E+02  0.20231359626E+02  0.00000000000E+00 0.  1.
          5    1    3    3  501    0  0.55099161410E+02 -0.15072597532E+02 -0.25875746733E+03  0.26502075406E+03  0.41800000000E+01 0. -1.
         -5    1    3    3    0  501 -0.27058571655E+02  0.80788937164E+02 -0.51955835352E+03  0.52651436236E+03  0.41800000000E+01 0. -1.
</event>
<event>
11    1  0.1704459E-009  0.1136338E+04  0.7561462E-02  0.8559157E-01
         22   -1    0    0    0    0  0.00000000000E+00  0.00000000000E+00  0.23328217852E+03  0.23328217852E+03  0.00000000000E+00 0. -1.
         22   -1    0    0    0    0 -0.00000000000E+00 -0.00000000000E+00 -0.13838016756E+04  0.13838016756E+04  0.00000000000E+00 0. -1.
         25    2    1    2    0    0  0.15152499509E+03  0.28145528853E+03 -0.11780222762E+04  0.12270128760E+04  0.12508881291E+03 0.  0.
        -24    2    1    2    0    0 -0.54078767636E+02 -0.21714651084E+03  0.55633052702E+02  0.24417995542E+03  0.80322436449E+02 0.  0.
         24    2    1    2    0    0 -0.97446227453E+02 -0.64308777684E+02 -0.28130273548E+02  0.14589102265E+03  0.82834123816E+02 0.  0.
        -13    1    5    5    0    0  0.51127499679E+01 -0.36542246865E+02 -0.67788296895E+01  0.37515710711E+02  0.00000000000E+00 0.  1.
         14    1    5    5    0    0 -0.10255897742E+03 -0.27766530819E+02 -0.21351443858E+02  0.10837531194E+03  0.00000000000E+00 0. -1.
         13    1    4    4    0    0 -0.54158895430E+02 -0.20775522157E+03  0.29879779082E+02  0.21676766189E+03  0.00000000000E+00 0. -1.
        -14    1    4    4    0    0  0.80127793889E-01 -0.93912892771E+01  0.25753273620E+02  0.27412293536E+02  0.00000000000E+00 0.  1.
          5    1    3    3  501    0  0.15366992265E+02  0.22436288432E+01 -0.11347481828E+02  0.19682887631E+02  0.41800000000E+01 0. -1.
         -5    1    3    3    0  501  0.13615800282E+03  0.27921165968E+03 -0.11666747944E+04  0.12073299884E+04  0.41800000000E+01 0. -1.
</event>
<event>
11    1  0.1704459E-009  0.2922703E+03  0.7561462E-02  0.1003517E+00
         22   -1    0    0    0    0  0.00000000000E+00  0.00000000000E+00  0.73711359713E+03  0.73711359713E+03  0.00000000000E+00 0. -1.
         22   -1    0    0    0    0 -0.00000000000E+00 -0.00000000000E+00 -0.38838662460E+03  0.38838662460E+03  0.00000000000E+00 0. -1.
         25    2    1    2    0    0  0.18640615847E+03  0.15922777717E+03 -0.16045736966E+03  0.31858367801E+03  0.12509297135E+03 0.  0.
        -24    2    1    2    0    0 -0.37342197340E+03 -0.14723635002E+03  0.41484510151E+03  0.58290168863E+03  0.80965470302E+02 0.  0.
         24    2    1    2    0    0  0.18701581494E+03 -0.11991427151E+02  0.94339240679E+02  0.22401485508E+03  0.78511487083E+02 0.  0.
        -13    1    5    5    0    0  0.16310039252E+03 -0.37095343881E+02  0.68386904598E+02  0.18070575889E+03  0.00000000000E+00 0.  1.
         14    1    5    5    0    0  0.23915422424E+02  0.25103916730E+02  0.25952336081E+02  0.43309096192E+02  0.00000000000E+00 0. -1.
         11    1    4    4    0    0 -0.41826371781E+02 -0.35827701140E+02  0.29557582577E+02  0.62503761752E+02  0.00000000000E+00 0. -1.
        -12    1    4    4    0    0 -0.33159560162E+03 -0.11140864888E+03  0.38528751893E+03  0.52039792688E+03  0.00000000000E+00 0.  1.
          5    1    3    3  501    0  0.14152176613E+03  0.85608100844E+02 -0.39708471966E+02  0.17015108687E+03  0.41800000000E+01 0.  1.
         -5    1    3    3    0  501  0.44884392340E+02  0.73619676325E+02 -0.12074889769E+03  0.14843259114E+03  0.41800000000E+01 0.  1.
</event>
<event>
11    1  0.1704459E-009  0.7755036E+03  0.7561462E-02  0.8927884E-01
         22   -1    0    0    0    0  0.00000000000E+00  0.00000000000E+00  0.17802577825E+04  0.17802577825E+04  0.00000000000E+00 0. -1.
         22   -1    0    0    0    0 -0.00000000000E+00 -0.00000000000E+00 -0.84454871199E+02  0.84454871199E+02  0.00000000000E+00 0. -1.
         25    2    1    2    0    0  0.42733009820E+02 -0.19982085123E+03  0.12423347173E+03  0.26988366270E+03  0.12509497664E+03 0.  0.
         24    2    1    2    0    0 -0.32025855970E+02  0.15334096952E+03  0.91701574290E+03  0.93373384298E+03  0.80011926724E+02 0.  0.
        -24    2    1    2    0    0 -0.10707153851E+02  0.46479881717E+02  0.65455369666E+03  0.66109514800E+03  0.79569028882E+02 0.  0.
        -13    1    4    4    0    0 -0.29989031716E+02  0.66843589728E+02  0.23244714731E+03  0.24371927253E+03  0.00000000000E+00 0.  1.
         14    1    4    4    0    0 -0.20368242536E+01  0.86497379787E+02  0.68456859558E+03  0.69001457044E+03  0.00000000000E+00 0. -1.
         13    1    5    5    0    0 -0.22110804967E+02  0.61573680155E+02  0.59555793403E+03  0.59914060000E+03  0.00000000000E+00 0. -1.
        -14    1    5    5    0    0  0.11403651117E+02 -0.15093798438E+02  0.58995762629E+02  0.61954548004E+02  0.00000000000E+00 0.  1.
          5    1    3    3  501    0 -0.31667951722E+02 -0.91033232487E+01  0.70172345265E+01  0.33947660315E+02  0.41800000000E+01 0. -1.
         -5    1    3    3    0  501  0.74400961542E+02 -0.19071752798E+03  0.11721623720E+03  0.23593600239E+03  0.41800000000E+01 0. -1.
</event>
<event>
11    1  0.1704459E-009  0.3591436E+03  0.7561462E-02  0.9778647E-01
         22   -1    0    0    0    0  0.00000000000E+00  0.00000000000E+00  0.11646008538E+04  0.11646008538E+04  0.00000000000E+00 0.  1.
         22   -1    0    0    0    0 -0.00000000000E+00 -0.00000000000E+00 -0.22753500943E+04  0.22753500943E+04  0.00000000000E+00 0.  1.
         25    2    1    2    0    0  0.16951820580E+03  0.29138783402E+03 -0.21911477272E+04  0.22204547854E+04  0.12509116545E+03 0.  0.
         24    2    1    2    0    0 -0.28326317331E+03 -0.20399931177E+03  0.49193326539E+03  0.60827623524E+03  0.78408521228E+02 0.  0.
        -24    2    1    2    0    0  0.11374496751E+03 -0.87388522247E+02  0.58846522133E+03  0.61121992746E+03  0.81998850892E+02 0.  0.
        -11    1    4    4    0    0 -0.10795310317E+03 -0.10026219158E+03  0.26595974249E+03  0.30404105672E+03  0.00000000000E+00 0.  1.
         12    1    4    4    0    0 -0.17531007014E+03 -0.10373712019E+03  0.22597352290E+03  0.30423517852E+03  0.00000000000E+00 0. -1.
         11    1    5    5    0    0  0.11000069657E+03 -0.75356428080E+02  0.38633497544E+03  0.40869726907E+03  0.00000000000E+00 0. -1.
        -12    1    5    5    0    0  0.37442709446E+01 -0.12032094167E+02  0.20213024589E+03  0.20252265838E+03  0.00000000000E+00 0.  1.
          5    1    3    3  501    0  0.49108235373E+02  0.20617428820E+03 -0.12815918212E+04  0.12990052057E+04  0.41800000000E+01 0.  1.
         -5    1    3    3    0  501  0.12040997042E+03  0.85213545826E+02 -0.90955590597E+03  0.92144957966E+03  0.41800000000E+01 0.  1.
</event>
<event>
11    1  0.1704459E-009  0.6584484E+03  0.7561462E-02  0.9095882E-01
         22   -1    0    0    0    0  0.00000000000E+00  0.00000000000E+00  0.32177058554E+03  0.32177058554E+03  0.00000000000E+00 0. -1.
         22   -1    0    0    0    0 -0.00000000000E+00 -0.00000000000E+00 -0.19706469608E+04  0.19706469608E+04  0.00000000000E+00 0. -1.
         25    2    1    2    0    0 -0.30632066363E+03  0.62395465391E+03 -0.11408485021E+04  0.13417651532E+04  0.12508661985E+03 0.  0.
        -24    2    1    2    0    0  0.12518179755E+03 -0.57132955129E+03 -0.43265471387E+03  0.73167309340E+03  0.77894002113E+02 0.  0.
         24    2    1    2    0    0  0.18113886608E+03 -0.52625102628E+02 -0.75373159242E+02  0.21897929971E+03  0.81793216932E+02 0.  0.
        -13    1    5    5    0    0  0.13504220726E+03 -0.13889073350E+02 -0.81689729872E+02  0.15843773562E+03  0.00000000000E+00 0.  1.
         14    1    5    5    0    0  0.46096658819E+02 -0.38736029278E+02  0.63165706298E+01  0.60541564095E+02  0.00000000000E+00 0. -1.
         13    1    4    4    0    0  0.99726807346E+02 -0.27571781700E+03 -0.20701311636E+03  0.35891528396E+03  0.00000000000E+00 0. -1.
        -14    1    4    4    0    0  0.25454990202E+02 -0.29561173429E+03 -0.22564159751E+03  0.37275780945E+03  0.00000000000E+00 0.  1.
          5    1    3    3  501    0 -0.31260053219E+03  0.60314050153E+03 -0.11261482338E+04  0.13151900525E+04  0.41800000000E+01 0.  1.
         -5    1    3    3    0  501  0.62798685606E+01  0.20814152388E+02 -0.14700268311E+02  0.26575100699E+02  0.41800000000E+01 0.  1.
</event>
<event>
11    1  0.1704459E-009  0.2642677E+03  0.7561462E-02  0.1016562E+00
         22   -1    0    0    0    0  0.00000000000E+00  0.00000000000E+00  0.23304050351E+03  0.23304050351E+03  0.00000000000E+00 0.  1.
         22   -1    0    0    0    0 -0.00000000000E+00 -0.00000000000E+00 -0.16350047709E+04  0.16350047709E+04  0.00000000000E+00 0.  1.
         25    2    1    2    0    0 -0.80385301679E+02  0.15983907223E+03 -0.11097738454E+04  0.11310417746E+04  0.12508869714E+03 0.  0.
        -24    2    1    2    0    0 -0.15481280177E+03 -0.10640212806E+03 -0.40940219838E+03  0.45776064594E+03  0.81524428783E+02 0.  0.
         24    2    1    2    0    0  0.23519810345E+03 -0.53436944168E+02  0.11721177641E+03  0.27924285387E+03  0.77873718529E+02 0.  0.
        -13    1    5    5    0    0  0.12887332794E+03 -0.22701565866E+02  0.20878325378E+02  0.13251264173E+03  0.00000000000E+00 0.  1.
         14    1    5    5    0    0  0.10632477551E+03 -0.30735378302E+02  0.96333451031E+02  0.14673021214E+03  0.00000000000E+00 0. -1.
         13    1    4    4    0    0 -0.28784565843E+02 -0.42800612223E+02 -0.18992009506E+03  0.19679960911E+03  0.00000000000E+00 0. -1.
        -14    1    4    4    0    0 -0.12602823593E+03 -0.63601515838E+02 -0.21948210331E+03  0.26096103683E+03  0.00000000000E+00 0.  1.
          5    1    3    3  501    0 -0.74635366074E+02  0.16543597296E+03 -0.11066929955E+04  0.11214839980E+04  0.41800000000E+01 0.  1.
         -5    1    3    3    0  501 -0.57499356044E+01 -0.55969007349E+01 -0.30808498921E+01  0.95577765902E+01  0.41800000000E+01 0.  1.
</event>
<event>
11    1  0.1704459E-009  0.1858013E+03  0.7561462E-02  0.1065045E+00
         22   -1    0    0    0    0  0.00000000000E+00  0.00000000000E+00  0.20713208209E+03  0.20713208209E+03  0.00000000000E+00 0. -1.
         22   -1    0    0    0    0 -0.00000000000E+00 -0.00000000000E+00 -0.33389921216E+03  0.33389921216E+03  0.00000000000E+00 0. -1.
         25    2    1    2    0    0  0.17065491770E+02  0.34483419086E+02 -0.96474970353E+02  0.16258558127E+03  0.12508522746E+03 0.  0.
         24    2    1    2    0    0 -0.11313935335E+03 -0.15142509955E+03 -0.26353030896E+02  0.20698987885E+03  0.80126485386E+02 0.  0.
        -24    2    1    2    0    0  0.96073861577E+02  0.11694168046E+03 -0.39391288161E+01  0.17145583413E+03  0.80473864154E+02 0.  0.
        -11    1    4    4    0    0  0.25314038853E+01 -0.38211969312E+02 -0.23851178470E+02  0.45115865488E+02  0.00000000000E+00 0.  1.
         12    1    4    4    0    0 -0.11567075723E+03 -0.11321313024E+03 -0.25018524261E+01  0.16187401336E+03  0.00000000000E+00 0. -1.
         13    1    5    5    0    0  0.49448653875E+02  0.10046958144E+03 -0.29487591340E+02  0.11579647753E+03  0.00000000000E+00 0. -1.
        -14    1    5    5    0    0  0.46625207703E+02  0.16472099023E+02  0.25548462524E+02  0.55659356598E+02  0.00000000000E+00 0.  1.
          5    1    3    3  501    0  0.64810953604E+02  0.40898264792E+02 -0.34952605595E+02  0.84334363150E+02  0.41800000000E+01 0. -1.
         -5    1    3    3    0  501 -0.47745461834E+02 -0.64148457054E+01 -0.61522364758E+02  0.78251218116E+02  0.41800000000E+01 0. -1.
</event>
<event>
11    1  0.1704459E-009  0.1494010E+03  0.7561462E-02  0.1097492E+00
         22   -1    0    0    0    0  0.00000000000E+00  0.00000000000E+00  0.19615369699E+04  0.19615369699E+04  0.00000000000E+00 0.  1.
         22   -1    0    0    0    0 -0.00000000000E+00 -0.00000000000E+00 -0.19158660110E+03  0.19158660110E+03  0.00000000000E+00 0.  1.
         25    2    1    2    0    0 -0.79845970312E+02  0.73560274533E+02 -0.84174575356E+02  0.18579266026E+03  0.12508821090E+03 0.  0.
        -24    2    1    2    0    0  0.30151617142E+02 -0.91439074786E+01 -0.20881227527E+02  0.88757931231E+02  0.80306996165E+02 0.  0.
         24    2    1    2    0    0  0.49694353171E+02 -0.64416367054E+02  0.18750061717E+04  0.18785729795E+04  0.82275746284E+02 0.  0.
        -13    1    5    5    0    0 -0.42683347447E+01 -0.27766581536E+02  0.12206915224E+04  0.12210147397E+04  0.00000000000E+00 0.  1.
         14    1    5    5    0    0  0.53962687916E+02 -0.36649785518E+02  0.65431464923E+03  0.65755823975E+03  0.00000000000E+00 0. -1.
         11    1    4    4    0    0 -0.94434345856E+01  0.26469379893E+02 -0.21684899011E+02  0.35497061481E+02  0.00000000000E+00 0. -1.
        -12    1    4    4    0    0  0.39595051727E+02 -0.35613287371E+02  0.80367148309E+00  0.53260869750E+02  0.00000000000E+00 0.  1.
          5    1    3    3  501    0 -0.51535934279E+02  0.10575329109E+03 -0.80402529530E+02  0.14255437648E+03  0.41800000000E+01 0.  1.
         -5    1    3    3    0  501 -0.28310036034E+02 -0.32193016554E+02 -0.37720458267E+01  0.43238283787E+02  0.41800000000E+01 0.  1.
</event>
<event>
11    1  0.1704459E-009  0.1850408E+03  0.7561462E-02  0.1065637E+00
         22   -1    0    0    0    0  0.00000000000E+00  0.00000000000E+00  0.18326980339E+04  0.18326980339E+04  0.00000000000E+00 0.  1.
         22   -1    0    0    0    0 -0.00000000000E+00 -0.00000000000E+00 -0.60213324421E+02  0.60213324421E+02  0.00000000000E+00 0. -1.
         25    2    1    2    0    0 -0.12242935763E+03  0.53793074279E+02  0.12565734681E+03  0.22207998421E+03  0.12508840126E+03 0.  0.
        -24    2    1    2    0    0  0.14571187316E+03 -0.59255231312E+02  0.13753704562E+04  0.13866352864E+04  0.79814742340E+02 0.  0.
         24    2    1    2    0    0 -0.23282515538E+02  0.54621570326E+01  0.27145690638E+03  0.28419608768E+03  0.80663830470E+02 0.  0.
        -13    1    5    5    0    0  0.90138639504E+01  0.34841675949E+02  0.16959823263E+03  0.17337460205E+03  0.00000000000E+00 0.  1.
         14    1    5    5    0    0 -0.32296379488E+02 -0.29379518916E+02  0.10185867375E+03  0.11082148563E+03  0.00000000000E+00 0. -1.
         13    1    4    4    0    0  0.11929546745E+02 -0.18852673830E+02  0.47126694871E+03  0.47179473751E+03  0.00000000000E+00 0. -1.
        -14    1    4    4    0    0  0.13378232642E+03 -0.40402557482E+02  0.90410350754E+03  0.91484054887E+03  0.00000000000E+00 0.  1.
          5    1    3    3  501    0 -0.22080689820E+02  0.44438600305E+01 -0.25324709299E+02  0.34148470771E+02  0.41800000000E+01 0.  1.
         -5    1    3    3    0  501 -0.10034866781E+03  0.49349214249E+02  0.15098205610E+03  0.18793151344E+03  0.41800000000E+01 0.  1.
</event>
<event>
11    1  0.1704459E-009  0.7489171E+03  0.7561462E-02  0.8963169E-01
         22   -1    0    0    0    0  0.00000000000E+00  0.00000000000E+00  0.23329591084E+03  0.23329591084E+03  0.00000000000E+00 0. -1.
         22   -1    0    0    0    0 -0.00000000000E+00 -0.00000000000E+00 -0.60103592820E+03  0.60103592820E+03  0.00000000000E+00 0. -1.
         25    2    1    2    0    0 -0.26979924491E+03 -0.61956643102E+02 -0.35643369359E+03  0.46831987967E+03  0.12509305974E+03 0.  0.
         24    2    1    2    0    0  0.23383101239E+03  0.79941880294E+02  0.19505578054E+02  0.26099981159E+03  0.81687131758E+02 0.  0.
        -24    2    1    2    0    0  0.35968232521E+02 -0.17985237193E+02 -0.30811901829E+02  0.10501214778E+03  0.91983669090E+02 0.  0.
        -11    1    4    4    0    0  0.27591896388E+02  0.56669274811E+01 -0.24603314902E+02  0.37399865208E+02  0.00000000000E+00 0.  1.
         12    1    4    4    0    0  0.20623911600E+03  0.74274952813E+02  0.44108892956E+02  0.22359994638E+03  0.00000000000E+00 0. -1.
         13    1    5    5    0    0 -0.23009350767E+02 -0.32262317918E+02 -0.14254988922E+02  0.42112849456E+02  0.00000000000E+00 0. -1.
        -14    1    5    5    0    0  0.58977583288E+02  0.14277080725E+02 -0.16556912907E+02  0.62899298323E+02  0.00000000000E+00 0.  1.
          5    1    3    3  501    0 -0.18102419578E+03 -0.64429734619E+02 -0.15081310123E+03  0.24430107258E+03  0.41800000000E+01 0.  1.
         -5    1    3    3    0  501 -0.88775049129E+02  0.24730915174E+01 -0.20562059236E+03  0.22401880709E+03  0.41800000000E+01 0.  1.
</event>
<event>
11    1  0.1704459E-009  0.1833938E+03  0.7561462E-02  0.1066930E+00
         22   -1    0    0    0    0  0.00000000000E+00  0.00000000000E+00  0.15717831403E+04  0.15717831403E+04  0.00000000000E+00 0.  1.
         22   -1    0    0    0    0 -0.00000000000E+00 -0.00000000000E+00 -0.16365616371E+03  0.16365616371E+03  0.00000000000E+00 0.  1.
         25    2    1    2    0    0  0.65096060658E+02 -0.10824886841E+03 -0.20188728271E+02  0.17891939352E+03  0.12509696240E+03 0.  0.
         24    2    1    2    0    0  0.62016317101E+02  0.60996405427E+02  0.15862980948E+01  0.12107067737E+03  0.84196244071E+02 0.  0.
        -24    2    1    2    0    0 -0.12711237776E+03  0.47252462979E+02  0.14267294067E+04  0.14354492331E+04  0.81039181243E+02 0.  0.
        -11    1    4    4    0    0  0.32446755547E+00 -0.39682430981E+01 -0.26798015770E+02  0.27092173809E+02  0.00000000000E+00 0.  1.
         12    1    4    4    0    0  0.61691849546E+02  0.64964648525E+02  0.28384313864E+02  0.93978503563E+02  0.00000000000E+00 0. -1.
         13    1    5    5    0    0 -0.98221349599E+02  0.30805812143E+01  0.70843085980E+03  0.71521409844E+03  0.00000000000E+00 0. -1.
        -14    1    5    5    0    0 -0.28891028160E+02  0.44171881764E+02  0.71829854693E+03  0.72023513463E+03  0.00000000000E+00 0.  1.
          5    1    3    3  501    0 -0.10703230561E+02  0.48423245806E+01 -0.39434047878E+02  0.41358478984E+02  0.41800000000E+01 0. -1.
         -5    1    3    3    0  501  0.75799291219E+02 -0.11309119299E+03  0.19245319608E+02  0.13756091453E+03  0.41800000000E+01 0. -1.
</event>
<event>
11    1  0.1704459E-009  0.6704356E+03  0.7561462E-02  0.9077043E-01
         22   -1    0    0    0    0  0.00000000000E+00  0.00000000000E+00  0.94040459159E+03  0.94040459159E+03  0.00000000000E+00 0.  1.
         22   -1    0    0    0    0 -0.00000000000E+00 -0.00000000000E+00 -0.63710721559E+03  0.63710721559E+03  0.00000000000E+00 0.  1.
         25    2    1    2    0    0  0.44048350841E+02 -0.63733853967E+03  0.11500182115E+03  0.66106965648E+03  0.12508797102E+03 0.  0.
         24    2    1    2    0    0 -0.46395284034E+00  0.67597731597E+03 -0.30122487694E+02  0.68129955902E+03  0.79474385157E+02 0.  0.
        -24    2    1    2    0    0 -0.43584398001E+02 -0.38638776297E+02  0.21841804254E+03  0.23514259169E+03  0.64753705185E+02 0.  0.
        -13    1    4    4    0    0 -0.39025108017E+02  0.38781154859E+03 -0.10695367732E+02  0.38991684647E+03  0.00000000000E+00 0.  1.
         14    1    4    4    0    0  0.38561155177E+02  0.28816576738E+03 -0.19427119963E+02  0.29138271254E+03  0.00000000000E+00 0. -1.
         11    1    5    5    0    0 -0.48559741883E+02 -0.52929850691E+02  0.17527417065E+03  0.18942189029E+03  0.00000000000E+00 0. -1.
        -12    1    5    5    0    0  0.49753438816E+01  0.14291074394E+02  0.43143871893E+02  0.45720701395E+02  0.00000000000E+00 0.  1.
          5    1    3    3  501    0  0.57878699143E+02 -0.47228132500E+03  0.35112144875E+02  0.47712674299E+03  0.41800000000E+01 0.  1.
         -5    1    3    3    0  501 -0.13830348302E+02 -0.16505721467E+03  0.79889676279E+02  0.18394291349E+03  0.41800000000E+01 0.  1.
</event>
<event>
11    1  0.1704459E-009  0.3285107E+03  0.7561462E-02  0.9887982E-01
         22   -1    0    0    0    0  0.00000000000E+00  0.00000000000E+00  0.92266377394E+02  0.92266377394E+02  0.00000000000E+00 0.  1.
         22   -1    0    0    0    0 -0.00000000000E+00 -0.00000000000E+00 -0.22664676022E+04  0.22664676022E+04  0.00000000000E+00 0.  1.
         25    2    1    2    0    0 -0.63925553898E+02 -0.38847801022E+02 -0.43461659278E+03  0.45840448869E+03  0.12508982550E+03 0.  0.
         24    2    1    2    0    0  0.34255775370E+03  0.15118429646E+03 -0.13436647735E+04  0.13969680694E+04  0.76695874688E+02 0.  0.
        -24    2    1    2    0    0 -0.27863219981E+03 -0.11233649544E+03 -0.39591985858E+03  0.50336142158E+03  0.79779667472E+02 0.  0.
        -11    1    4    4    0    0  0.35263184719E+02 -0.74269801234E+01 -0.11009488237E+03  0.11584271818E+03  0.00000000000E+00 0.  1.
         12    1    4    4    0    0  0.30729456898E+03  0.15861127658E+03 -0.12335698911E+04  0.12811253512E+04  0.00000000000E+00 0. -1.
         11    1    5    5    0    0 -0.71925238615E+02 -0.44420801611E+02 -0.16911711501E+03  0.18906889261E+03  0.00000000000E+00 0. -1.
        -12    1    5    5    0    0 -0.20670696119E+03 -0.67915693828E+02 -0.22680274357E+03  0.31429252897E+03  0.00000000000E+00 0.  1.
          5    1    3    3  501    0 -0.41312884167E+02  0.41031603413E+02 -0.12733910236E+03  0.14008235531E+03  0.41800000000E+01 0.  1.
         -5    1    3    3    0  501 -0.22612669731E+02 -0.79879404434E+02 -0.30727749041E+03  0.31832213338E+03  0.41800000000E+01 0.  1.
</event>
<event>
11    1  0.1704459E-009  0.3869642E+03  0.7561462E-02  0.9689023E-01
         22   -1    0    0    0    0  0.00000000000E+00  0.00000000000E+00  0.22810045246E+04  0.22810045246E+04  0.00000000000E+00 0. -1.
         22   -1    0    0    0    0 -0.00000000000E+00 -0.00000000000E+00 -0.11309821989E+03  0.11309821989E+03  0.00000000000E+00 0. -1.
         25    2    1    2    0    0 -0.41355203427E+03 -0.15642564078E+01  0.68222650787E+03  0.80753463116E+03  0.12510571745E+03 0.  0.
         24    2    1    2    0    0  0.29628405665E+03  0.15067018898E+03  0.83159095486E+03  0.90066128679E+03  0.95715668756E+02 0.  0.
        -24    2    1    2    0    0  0.11726797762E+03 -0.14910593257E+03  0.65408884198E+03  0.68590682654E+03  0.81557365014E+02 0.  0.
        -11    1    4    4    0    0  0.26135656614E+02 -0.53310308738E+01  0.13201509230E+03  0.13468287579E+03  0.00000000000E+00 0.  1.
         12    1    4    4    0    0  0.27014840003E+03  0.15600121985E+03  0.69957586256E+03  0.76597841100E+03  0.00000000000E+00 0. -1.
         11    1    5    5    0    0  0.44332393738E+02 -0.11830943103E+03  0.43375218508E+03  0.45177808786E+03  0.00000000000E+00 0. -1.
        -12    1    5    5    0    0  0.72935583886E+02 -0.30796501540E+02  0.22033665690E+03  0.23412873868E+03  0.00000000000E+00 0.  1.
          5    1    3    3  501    0 -0.46224420265E+02  0.27934932549E+02  0.40961675817E+02  0.67914569652E+02  0.41800000000E+01 0. -1.
         -5    1    3    3    0  501 -0.36732761401E+03 -0.29499188957E+02  0.64126483205E+03  0.73962006151E+03  0.41800000000E+01 0. -1.
</event>
<event>
11    1  0.1704459E-009  0.1695036E+03  0.7561462E-02  0.1078464E+00
         22   -1    0    0    0    0  0.00000000000E+00  0.00000000000E+00  0.76229647566E+02  0.76229647566E+02  0.00000000000E+00 0. -1.
         22   -1    0    0    0    0 -0.00000000000E+00 -0.00000000000E+00 -0.15653902961E+04  0.15653902961E+04  0.00000000000E+00 0.  1.
         25    2    1    2    0    0  0.67027740056E+02 -0.10030712692E+03 -0.90226823888E+03  0.91885225624E+03  0.12508899333E+03 0.  0.
         24    2    1    2    0    0 -0.72600086342E+02  0.81585373646E+02 -0.61886337924E+03  0.63397139896E+03  0.83671421660E+02 0.  0.
        -24    2    1    2    0    0  0.55723462855E+01  0.18721753274E+02  0.31970969547E+02  0.88796288510E+02  0.80505172943E+02 0.  0.
        -11    1    4    4    0    0 -0.87461903685E+02  0.85394137156E+02 -0.54984325232E+03  0.56326667342E+03  0.00000000000E+00 0.  1.
         12    1    4    4    0    0  0.14861817343E+02 -0.38087635100E+01 -0.69020126920E+02  0.70704725544E+02  0.00000000000E+00 0. -1.
         11    1    5    5    0    0 -0.13978137482E+02  0.34571238473E+02  0.46601592167E+02  0.59684732131E+02  0.00000000000E+00 0. -1.
        -12    1    5    5    0    0  0.19550483767E+02 -0.15849485198E+02 -0.14630622620E+02  0.29111556380E+02  0.00000000000E+00 0.  1.
          5    1    3    3  501    0 -0.24570624045E+02 -0.16343027465E+00 -0.50349871885E+02  0.56181173664E+02  0.41800000000E+01 0.  1.
         -5    1    3    3    0  501  0.91598364101E+02 -0.10014369665E+03 -0.85191836700E+03  0.86267108258E+03  0.41800000000E+01 0.  1.
</event>
<event>
11    1  0.1704459E-009  0.1349565E+03  0.7561462E-02  0.1113325E+00
         22   -1    0    0    0    0  0.00000000000E+00  0.00000000000E+00  0.37607828274E+03  0.37607828274E+03  0.00000000000E+00 0.  1.
         22   -1    0    0    0    0 -0.00000000000E+00 -0.00000000000E+00 -0.89751871400E+02  0.89751871400E+02  0.00000000000E+00 0. -1.
         25    2    1    2    0    0  0.15873158213E+02 -0.16087633644E+02  0.55682883355E+02  0.13877066009E+03  0.12508374592E+03 0.  0.
        -24    2    1    2    0    0 -0.66980431675E+02  0.68080714254E+02  0.13063407546E+03  0.17999203466E+03  0.78806782633E+02 0.  0.
         24    2    1    2    0    0  0.51107273462E+02 -0.51993080609E+02  0.10000945252E+03  0.14706745939E+03  0.79446291204E+02 0.  0.
        -11    1    5    5    0    0  0.21393387840E+02  0.20031150917E+02  0.20630075685E+02  0.35840257715E+02  0.00000000000E+00 0.  1.
         12    1    5    5    0    0  0.29713885622E+02 -0.72024231526E+02  0.79379376838E+02  0.11122720168E+03  0.00000000000E+00 0. -1.
         13    1    4    4    0    0 -0.52971950780E+02  0.56312113855E+02  0.39079540956E+02  0.86627318195E+02  0.00000000000E+00 0. -1.
        -14    1    4    4    0    0 -0.14008480895E+02  0.11768600398E+02  0.91554534503E+02  0.93364716464E+02  0.00000000000E+00 0.  1.
          5    1    3    3  501    0  0.63037630306E+02 -0.18772602998E+02  0.36639648525E+00  0.65907208288E+02  0.41800000000E+01 0. -1.
         -5    1    3    3    0  501 -0.47164472093E+02  0.26849693537E+01  0.55316486870E+02  0.72863451798E+02  0.41800000000E+01 0. -1.
</event>
<event>
11    1  0.1704459E-009  0.3421899E+03  0.7561462E-02  0.9837643E-01
         22   -1    0    0    0    0  0.00000000000E+00  0.00000000000E+00  0.13244933583E+04  0.13244933583E+04  0.00000000000E+00 0.  1.
         22   -1    0    0    0    0 -0.00000000000E+00 -0.00000000000E+00 -0.75165522948E+03  0.75165522948E+03  0.00000000000E+00 0.  1.
         25    2    1    2    0    0  0.30845367443E+03  0.82009703336E+02 -0.67523719189E+03  0.75727224920E+03  0.12508690335E+03 0.  0.
        -24    2    1    2    0    0 -0.30425693279E+03 -0.44926185014E+02  0.76344751288E+03  0.82655396498E+03  0.75820240418E+02 0.  0.
         24    2    1    2    0    0 -0.41967416323E+01 -0.37083518321E+02  0.48462780783E+03  0.49232237360E+03  0.78258593494E+02 0.  0.
        -11    1    5    5    0    0 -0.26379927033E+02 -0.14857391008E+01  0.59159982306E+02  0.64792063383E+02  0.00000000000E+00 0.  1.
         12    1    5    5    0    0  0.22183185401E+02 -0.35597779221E+02  0.42546782552E+03  0.42753031022E+03  0.00000000000E+00 0. -1.
         11    1    4    4    0    0 -0.12622687808E+03 -0.37367218227E+02  0.41190763898E+03  0.43243200251E+03  0.00000000000E+00 0. -1.
        -12    1    4    4    0    0 -0.17803005472E+03 -0.75589667869E+01  0.35153987390E+03  0.39412196247E+03  0.00000000000E+00 0.  1.
          5    1    3    3  501    0  0.23577095347E+03  0.27127558257E+02 -0.57339180726E+03  0.62057995774E+03  0.41800000000E+01 0. -1.
         -5    1    3    3    0  501  0.72682720958E+02  0.54882145078E+02 -0.10184538463E+03  0.13669229146E+03  0.41800000000E+01 0. -1.
</event>
<event>
11    1  0.1704459E-009  0.1341731E+04  0.7561462E-02  0.8408286E-01
         22   -1    0    0    0    0  0.00000000000E+00  0.00000000000E+00  0.23495266792E+04  0.23495266792E+04  0.00000000000E+00 0.  1.
         22   -1    0    0    0    0 -0.00000000000E+00 -0.00000000000E+00 -0.15121829466E+04  0.15121829466E+04  0.00000000000E+00 0.  1.
         25    2    1    2    0    0 -0.92464727264E+03  0.93448145669E+03 -0.68616757565E+03  0.14881874793E+04  0.12509140627E+03 0.  0.
         24    2    1    2    0    0  0.12211489510E+04 -0.76416331845E+03  0.10517991557E+04  0.17854706804E+04  0.80459610546E+02 0.  0.
        -24    2    1    2    0    0 -0.29650167832E+03 -0.17031813825E+03  0.47171215260E+03  0.58805146608E+03  0.79816404203E+02 0.  0.
        -11    1    4    4    0    0  0.82252679014E+03 -0.52136778958E+03  0.66437571264E+03  0.11788849732E+04  0.00000000000E+00 0.  1.
         12    1    4    4    0    0  0.39862216082E+03 -0.24279552887E+03  0.38742344301E+03  0.60658570716E+03  0.00000000000E+00 0. -1.
         11    1    5    5    0    0 -0.95516935967E+01 -0.28866776595E+01 -0.12606069109E+01  0.10057678075E+02  0.00000000000E+00 0. -1.
        -12    1    5    5    0    0 -0.28694998472E+03 -0.16743146059E+03  0.47297275951E+03  0.57799378800E+03  0.00000000000E+00 0.  1.
          5    1    3    3  501    0 -0.39511074453E+03  0.45970030639E+03 -0.26463945865E+03  0.66142904957E+03  0.41800000000E+01 0. -1.
         -5    1    3    3    0  501 -0.52953652811E+03  0.47478115030E+03 -0.42152811700E+03  0.82675842971E+03  0.41800000000E+01 0. -1.
</event>
<event>
11    1  0.1704459E-009  0.1556153E+03  0.7561462E-02  0.1091275E+00
         22   -1    0    0    0    0  0.00000000000E+00  0.00000000000E+00  0.69450919172E+03  0.69450919172E+03  0.00000000000E+00 0. -1.
         22   -1    0    0    0    0 -0.00000000000E+00 -0.00000000000E+00 -0.20479875276E+03  0.20479875276E+03  0.00000000000E+00 0.  1.
         25    2    1    2    0    0  0.66427711339E+02 -0.55701488566E+02 -0.47303819702E+02  0.15937219005E+03  0.12508615808E+03 0.  0.
        -24    2    1    2    0    0 -0.65398117016E+02  0.71854374517E+02 -0.58176708176E+02  0.13902654217E+03  0.80646668910E+02 0.  0.
         24    2    1    2    0    0 -0.10295943235E+01 -0.16152885951E+02  0.59519096684E+03  0.60090921226E+03  0.81102518938E+02 0.  0.
        -11    1    5    5    0    0  0.36683549372E+02 -0.21195412960E+02  0.38276887817E+03  0.38510640402E+03  0.00000000000E+00 0.  1.
         12    1    5    5    0    0 -0.37713143696E+02  0.50425270089E+01  0.21242208867E+03  0.21580280823E+03  0.00000000000E+00 0. -1.
         11    1    4    4    0    0  0.10684690218E+02  0.41299359592E+02 -0.95945483025E+01  0.43724764892E+02  0.00000000000E+00 0. -1.
        -12    1    4    4    0    0 -0.76082807234E+02  0.30555014925E+02 -0.48582159874E+02  0.95301777275E+02  0.00000000000E+00 0.  1.
          5    1    3    3  501    0  0.42790462685E+02  0.18328718582E+02 -0.64516448423E+02  0.79666869769E+02  0.41800000000E+01 0. -1.
         -5    1    3    3    0  501  0.23637248654E+02 -0.74030207148E+02  0.17212628721E+02  0.79705320285E+02  0.41800000000E+01 0. -1.
</event>
<event>
11    1  0.1704459E-009  0.2145530E+03  0.7561462E-02  0.1044684E+00
         22   -1    0    0    0    0  0.00000000000E+00  0.00000000000E+00  0.34734232609E+03  0.34734232609E+03  0.00000000000E+00 0. -1.
         22   -1    0    0    0    0 -0.00000000000E+00 -0.00000000000E+00 -0.25719759846E+03  0.25719759846E+03  0.00000000000E+00 0. -1.
         25    2    1    2    0    0  0.14846821071E+02  0.68397634415E+02 -0.32420264960E+02  0.14696421562E+03  0.12509493436E+03 0.  0.
        -24    2    1    2    0    0  0.18664425925E+03  0.11887081524E+02  0.46071685176E+01  0.20047152569E+03  0.72043211967E+02 0.  0.
         24    2    1    2    0    0 -0.20149108032E+03 -0.80284715939E+02  0.11795782407E+03  0.25710418325E+03  0.71723230014E+02 0.  0.
        -13    1    5    5    0    0 -0.10759373948E+03 -0.65006751017E+02  0.99214689643E+02  0.16014320184E+03  0.00000000000E+00 0.  1.
         14    1    5    5    0    0 -0.93897340839E+02 -0.15277964922E+02  0.18743134426E+02  0.96960981415E+02  0.00000000000E+00 0. -1.
         11    1    4    4    0    0  0.10819263571E+03  0.33169557692E+01  0.38082126841E+02  0.11474710019E+03  0.00000000000E+00 0. -1.
        -12    1    4    4    0    0  0.78451623543E+02  0.85701257552E+01 -0.33474958324E+02  0.85724425497E+02  0.00000000000E+00 0.  1.
          5    1    3    3  501    0 -0.63913926550E+01  0.91321515738E+02  0.12073573017E+02  0.92432205979E+02  0.41800000000E+01 0. -1.
         -5    1    3    3    0  501  0.21238213726E+02 -0.22923881323E+02 -0.44493837977E+02  0.54532009637E+02  0.41800000000E+01 0. -1.
</event>
<event>
11    1  0.1704459E-009  0.4050506E+03  0.7561462E-02  0.9634972E-01
         22   -1    0    0    0    0  0.00000000000E+00  0.00000000000E+00  0.37333551337E+03  0.37333551337E+03  0.00000000000E+00 0.  1.
         22   -1    0    0    0    0 -0.00000000000E+00 -0.00000000000E+00 -0.24306126559E+04  0.24306126559E+04  0.00000000000E+00 0. -1.
         25    2    1    2    0    0 -0.25596048322E+03  0.28062013079E+03 -0.20979462743E+04  0.21357174837E+04  0.12508866118E+03 0.  0.
        -24    2    1    2    0    0  0.32745930196E+03 -0.34886225866E+03  0.14231038701E+03  0.50564558548E+03  0.80565140765E+02 0.  0.
         24    2    1    2    0    0 -0.71498818741E+02  0.68242127871E+02 -0.10164125518E+03  0.16258510013E+03  0.79585808602E+02 0.  0.
        -13    1    5    5    0    0  0.17288597028E+02  0.62227904409E+01 -0.11493607170E+02  0.21673064247E+02  0.00000000000E+00 0.  1.
         14    1    5    5    0    0 -0.88787415768E+02  0.62019337430E+02 -0.90147648013E+02  0.14091203588E+03  0.00000000000E+00 0. -1.
         11    1    4    4    0    0  0.19098318718E+02 -0.56436297121E+02  0.26291998758E+02  0.65123502741E+02  0.00000000000E+00 0. -1.
        -12    1    4    4    0    0  0.30836098324E+03 -0.29242596154E+03  0.11601838825E+03  0.44052208274E+03  0.00000000000E+00 0.  1.
          5    1    3    3  501    0 -0.12348985788E+03  0.66613365829E+02 -0.56109785213E+03  0.57839031594E+03  0.41800000000E+01 0.  1.
         -5    1    3    3    0  501 -0.13247062534E+03  0.21400676496E+03 -0.15368484222E+04  0.15573271677E+04  0.41800000000E+01 0.  1.
</event>
<event>
11    1  0.1704459E-009  0.1512955E+03  0.7561462E-02  0.1095562E+00
         22   -1    0    0    0    0  0.00000000000E+00  0.00000000000E+00  0.40147686693E+03  0.40147686693E+03  0.00000000000E+00 0.  1.
         22   -1    0    0    0    0 -0.00000000000E+00 -0.00000000000E+00 -0.25050080974E+03  0.25050080974E+03  0.00000000000E+00 0. -1.
         25    2    1    2    0    0  0.30203530520E+02 -0.80317839610E+02 -0.17807103923E+03  0.23392249485E+03  0.12508888827E+03 0.  0.
         24    2    1    2    0    0  0.25834563865E+02  0.93529019592E+02  0.77968446831E+02  0.14820836406E+03  0.80445871749E+02 0.  0.
        -24    2    1    2    0    0 -0.56038094385E+02 -0.13211179982E+02  0.25107864959E+03  0.26984681775E+03  0.80386649856E+02 0.  0.
        -11    1    4    4    0    0  0.53299194661E+02  0.46136261459E+02  0.51945484575E+02  0.87565359250E+02  0.00000000000E+00 0.  1.
         12    1    4    4    0    0 -0.27464630796E+02  0.47392758133E+02  0.26022962256E+02  0.60643004814E+02  0.00000000000E+00 0. -1.
         11    1    5    5    0    0 -0.64392020300E+01  0.48044290233E+01 -0.42729821065E+01  0.90996833520E+01  0.00000000000E+00 0. -1.
        -12    1    5    5    0    0 -0.49598892355E+02 -0.18015609006E+02  0.25535163169E+03  0.26074713440E+03  0.00000000000E+00 0.  1.
          5    1    3    3  501    0  0.55123043952E+02 -0.91638766234E+02 -0.17622018091E+03  0.20617283529E+03  0.41800000000E+01 0.  1.
         -5    1    3    3    0  501 -0.24919513433E+02  0.11320926624E+02 -0.18508583263E+01  0.27749659564E+02  0.41800000000E+01 0.  1.
</event>
<event>
11    1  0.1704459E-009  0.1737678E+03  0.7561462E-02  0.1074799E+00
         22   -1    0    0    0    0  0.00000000000E+00  0.00000000000E+00  0.36326530221E+03  0.36326530221E+03  0.00000000000E+00 0.  1.
         22   -1    0    0    0    0 -0.00000000000E+00 -0.00000000000E+00 -0.22949449480E+04  0.22949449480E+04  0.00000000000E+00 0. -1.
         25    2    1    2    0    0 -0.13361331644E+03 -0.23164959603E+02 -0.94537800520E+03  0.96321209465E+03  0.12509529517E+03 0.  0.
         24    2    1    2    0    0  0.11124918607E+03  0.27523908636E+02 -0.13317135997E+04  0.13389653371E+04  0.78950080855E+02 0.  0.
        -24    2    1    2    0    0  0.22364130379E+02 -0.43589490330E+01  0.34541195908E+03  0.35603281853E+03  0.83251376181E+02 0.  0.
        -13    1    4    4    0    0  0.13829461223E+02  0.20703661061E+02 -0.88897982848E+02  0.92318724717E+02  0.00000000000E+00 0.  1.
         14    1    4    4    0    0  0.97419724843E+02  0.68202475748E+01 -0.12428156169E+04  0.12466466123E+04  0.00000000000E+00 0. -1.
         13    1    5    5    0    0  0.28732563368E+02  0.34682484968E+02  0.14818997679E+03  0.15488287246E+03  0.00000000000E+00 0. -1.
        -14    1    5    5    0    0 -0.63684329896E+01 -0.39041434001E+02  0.19722198229E+03  0.20114994607E+03  0.00000000000E+00 0.  1.
          5    1    3    3  501    0 -0.57170650269E+02 -0.71053051286E+02 -0.56024127074E+03  0.56763084235E+03  0.41800000000E+01 0. -1.
         -5    1    3    3    0  501 -0.76442666176E+02  0.47888091683E+02 -0.38513673446E+03  0.39558125230E+03  0.41800000000E+01 0. -1.
</event>
<event>
11    1  0.1704459E-009  0.3127585E+03  0.7561462E-02  0.9949316E-01
         22   -1    0    0    0    0  0.00000000000E+00  0.00000000000E+00  0.51987877979E+03  0.51987877979E+03  0.00000000000E+00 0. -1.
         22   -1    0    0    0    0 -0.00000000000E+00 -0.00000000000E+00 -0.30161636487E+03  0.30161636487E+03  0.00000000000E+00 0.  1.
         25    2    1    2    0    0 -0.73728587588E+02 -0.14419049526E+02 -0.19295855376E+02  0.14718481324E+03  0.12508887080E+03 0.  0.
        -24    2    1    2    0    0  0.16027038641E+02 -0.29359352890E+03  0.83908687093E+02  0.31607278422E+03  0.80045680547E+02 0.  0.
         24    2    1    2    0    0  0.57701548947E+02  0.30801257842E+03  0.15364958319E+03  0.35823754720E+03  0.80775792108E+02 0.  0.
        -13    1    5    5    0    0  0.69174350999E+00  0.28229520661E+02 -0.89893172389E+01  0.29634307319E+02  0.00000000000E+00 0.  1.
         14    1    5    5    0    0  0.57009805437E+02  0.27978305776E+03  0.16263890043E+03  0.32860323988E+03  0.00000000000E+00 0. -1.
         13    1    4    4    0    0  0.47747526174E+02 -0.14067182188E+03  0.40678671794E+02  0.15402318678E+03  0.00000000000E+00 0. -1.
        -14    1    4    4    0    0 -0.31720487533E+02 -0.15292170702E+03  0.43230015300E+02  0.16204959744E+03  0.00000000000E+00 0.  1.
          5    1    3    3  501    0 -0.10368893283E+03 -0.33176826680E+02 -0.57466979881E+01  0.10909900805E+03  0.41800000000E+01 0. -1.
         -5    1    3    3    0  501  0.29960345245E+02  0.18757777155E+02 -0.13549157388E+02  0.38085805189E+02  0.41800000000E+01 0. -1.
</event>
<event>
11    1  0.1704459E-009  0.1338100E+03  0.7561462E-02  0.1114674E+00
         22   -1    0    0    0    0  0.00000000000E+00  0.00000000000E+00  0.59180271712E+03  0.59180271712E+03  0.00000000000E+00 0. -1.
         22   -1    0    0    0    0 -0.00000000000E+00 -0.00000000000E+00 -0.93467835260E+02  0.93467835260E+02  0.00000000000E+00 0. -1.
         25    2    1    2    0    0 -0.19109318325E+02  0.12326307389E+02  0.16768841691E+02  0.12823630624E+03  0.12508498026E+03 0.  0.
        -24    2    1    2    0    0  0.88928270932E+02 -0.79960189266E+02  0.18403071754E+03  0.23437861536E+03  0.82244520214E+02 0.  0.
         24    2    1    2    0    0 -0.69818952607E+02  0.67633881877E+02  0.29753532264E+03  0.32265563078E+03  0.78296613821E+02 0.  0.
        -13    1    5    5    0    0 -0.13935606508E+02 -0.35648784755E+01  0.32241853213E+01  0.14741263795E+02  0.00000000000E+00 0.  1.
         14    1    5    5    0    0 -0.55883346099E+02  0.71198760352E+02  0.29431113732E+03  0.30791436698E+03  0.00000000000E+00 0. -1.
         11    1    4    4    0    0  0.96895019454E+02 -0.42046714375E+02  0.14492638600E+03  0.17933273082E+03  0.00000000000E+00 0. -1.
        -12    1    4    4    0    0 -0.79667485222E+01 -0.37913474891E+02  0.39104331538E+02  0.55045884545E+02  0.00000000000E+00 0.  1.
          5    1    3    3  501    0  0.10502237631E+02  0.21847553204E+02 -0.49297848674E+02  0.55094127275E+02  0.41800000000E+01 0.  1.
         -5    1    3    3    0  501 -0.29611555956E+02 -0.95212458154E+01  0.66066690364E+02  0.73142178965E+02  0.41800000000E+01 0.  1.
</event>
<event>
11    1  0.1704459E-009  0.2221608E+03  0.7561462E-02  0.1039872E+00
         22   -1    0    0    0    0  0.00000000000E+00  0.00000000000E+00  0.17316109611E+03  0.17316109611E+03  0.00000000000E+00 0. -1.
         22   -1    0    0    0    0 -0.00000000000E+00 -0.00000000000E+00 -0.10170643863E+04  0.10170643863E+04  0.00000000000E+00 0. -1.
         25    2    1    2    0    0  0.18823638840E+03  0.43787666446E+02 -0.84800269722E+03  0.87869412001E+03  0.12507791334E+03 0.  0.
         24    2    1    2    0    0 -0.57969458732E+02 -0.97803234908E+02 -0.41614838509E+02  0.14545604264E+03  0.80620931853E+02 0.  0.
        -24    2    1    2    0    0 -0.13026692966E+03  0.54015568462E+02  0.45714245541E+02  0.16607531976E+03  0.74860303153E+02 0.  0.
        -13    1    4    4    0    0 -0.16733200715E+02  0.86424099238E+01 -0.23109860799E+02  0.29812026459E+02  0.00000000000E+00 0.  1.
         14    1    4    4    0    0 -0.41236258016E+02 -0.10644564483E+03 -0.18504977710E+02  0.11564401618E+03  0.00000000000E+00 0. -1.
         11    1    5    5    0    0 -0.10137157217E+03  0.63084265690E+02  0.10843288866E+02  0.11988910349E+03  0.00000000000E+00 0. -1.
        -12    1    5    5    0    0 -0.28895357493E+02 -0.90686972283E+01  0.34870956676E+02  0.46186216272E+02  0.00000000000E+00 0.  1.
          5    1    3    3  501    0  0.50313034837E+02 -0.16855171821E+02 -0.80319989551E+02  0.96354924177E+02  0.41800000000E+01 0.  1.
         -5    1    3    3    0  501  0.13792335356E+03  0.60642838267E+02 -0.76768270767E+03  0.78233919584E+03  0.41800000000E+01 0.  1.
</event>
<event>
11    1  0.1704459E-009  0.1906160E+03  0.7561462E-02  0.1061365E+00
         22   -1    0    0    0    0  0.00000000000E+00  0.00000000000E+00  0.52770855156E+02  0.52770855156E+02  0.00000000000E+00 0. -1.
         22   -1    0    0    0    0 -0.00000000000E+00 -0.00000000000E+00 -0.17227941800E+04  0.17227941800E+04  0.00000000000E+00 0.  1.
         25    2    1    2    0    0 -0.12662197825E+03  0.39800980610E+01 -0.10596954410E+04  0.10745469585E+04  0.12509105360E+03 0.  0.
         24    2    1    2    0    0  0.21197241911E+03 -0.80928382248E+01 -0.40554987121E+03  0.46471183137E+03  0.80551770201E+02 0.  0.
        -24    2    1    2    0    0 -0.85350440865E+02  0.41127401638E+01 -0.20477801262E+03  0.23630624532E+03  0.81271118711E+02 0.  0.
        -13    1    4    4    0    0  0.36572701836E+01  0.11949479996E+02 -0.55366510354E+02  0.56759282643E+02  0.00000000000E+00 0.  1.
         14    1    4    4    0    0  0.20831514893E+03 -0.20042318221E+02 -0.35018336085E+03  0.40795254872E+03  0.00000000000E+00 0. -1.
         13    1    5    5    0    0 -0.99963104548E+02  0.83597767961E+01 -0.15836203607E+03  0.18745944257E+03  0.00000000000E+00 0. -1.
        -14    1    5    5    0    0  0.14612663683E+02 -0.42470366323E+01 -0.46415976552E+02  0.48846802755E+02  0.00000000000E+00 0.  1.
          5    1    3    3  501    0  0.21818665114E+02 -0.13504584324E+02 -0.23218012665E+03  0.23363114423E+03  0.41800000000E+01 0.  1.
         -5    1    3    3    0  501 -0.14844064336E+03  0.17484682385E+02 -0.82751531438E+03  0.84091581425E+03  0.41800000000E+01 0.  1.
</event>
<event>
11    1  0.1704459E-009  0.5594546E+03  0.7561462E-02  0.9269677E-01
         22   -1    0    0    0    0  0.00000000000E+00  0.00000000000E+00  0.12914949489E+04  0.12914949489E+04  0.00000000000E+00 0.  1.
         22   -1    0    0    0    0 -0.00000000000E+00 -0.00000000000E+00 -0.22015712826E+03  0.22015712826E+03  0.00000000000E+00 0.  1.
         25    2    1    2    0    0  0.18739792506E+03  0.36207825389E+02  0.29867537280E+03  0.37587752786E+03  0.12509176112E+03 0.  0.
         24    2    1    2    0    0 -0.46359788395E+03 -0.19009561948E+03  0.48259042154E+03  0.69948650511E+03  0.72996666504E+02 0.  0.
        -24    2    1    2    0    0  0.27619995889E+03  0.15388779410E+03  0.29007202631E+03  0.43628804418E+03  0.78978519791E+02 0.  0.
        -11    1    4    4    0    0 -0.42558665875E+03 -0.15227269237E+03  0.41939023253E+03  0.61660290633E+03  0.00000000000E+00 0.  1.
         12    1    4    4    0    0 -0.38011225199E+02 -0.37822927117E+02  0.63200189008E+02  0.82883598784E+02  0.00000000000E+00 0. -1.
         11    1    5    5    0    0  0.41100709305E+02  0.57792855804E+02  0.77900730658E+02  0.10534612629E+03  0.00000000000E+00 0. -1.
        -12    1    5    5    0    0  0.23509924959E+03  0.96094938291E+02  0.21217129565E+03  0.33094191789E+03  0.00000000000E+00 0.  1.
          5    1    3    3  501    0  0.50050042628E+02  0.17355578261E+02  0.79077358490E+01  0.53723621900E+02  0.41800000000E+01 0.  1.
         -5    1    3    3    0  501  0.13734788243E+03  0.18852247128E+02  0.29076763695E+03  0.32215390596E+03  0.41800000000E+01 0.  1.
</event>
<event>
11    1  0.1704459E-009  0.1636530E+03  0.7561462E-02  0.1083691E+00
         22   -1    0    0    0    0  0.00000000000E+00  0.00000000000E+00  0.24228289720E+03  0.24228289720E+03  0.00000000000E+00 0. -1.
         22   -1    0    0    0    0 -0.00000000000E+00 -0.00000000000E+00 -0.18716038316E+03  0.18716038316E+03  0.00000000000E+00 0. -1.
         25    2    1    2    0    0  0.10156596970E+03  0.62324343013E+02 -0.23314742918E+02  0.17432844035E+03  0.12508740122E+03 0.  0.
         24    2    1    2    0    0 -0.10383272748E+03 -0.49116805606E+01  0.68319485431E+02  0.15399229366E+03  0.90778381310E+02 0.  0.
        -24    2    1    2    0    0  0.22667577778E+01 -0.57412662453E+02  0.10117771531E+02  0.10112254636E+03  0.82595690447E+02 0.  0.
        -13    1    4    4    0    0 -0.22809622061E+02  0.39294911658E+02  0.18022399995E+02  0.48879196417E+02  0.00000000000E+00 0.  1.
         14    1    4    4    0    0 -0.81023105421E+02 -0.44206592219E+02  0.50297085436E+02  0.10511309724E+03  0.00000000000E+00 0. -1.
         11    1    5    5    0    0 -0.11588431337E+02  0.15325199722E+02 -0.13408216924E+02  0.23429335638E+02  0.00000000000E+00 0. -1.
        -12    1    5    5    0    0  0.13855189115E+02 -0.72737862175E+02  0.23525988455E+02  0.77693210720E+02  0.00000000000E+00 0.  1.
          5    1    3    3  501    0  0.84694569426E+02  0.88738994814E+02  0.16106071506E+02  0.12379279959E+03  0.41800000000E+01 0. -1.
         -5    1    3    3    0  501  0.16871400279E+02 -0.26414651800E+02 -0.39420814425E+02  0.50535640760E+02  0.41800000000E+01 0. -1.
</event>
<event>
11    1  0.1704459E-009  0.1394996E+03  0.7561462E-02  0.1108118E+00
         22   -1    0    0    0    0  0.00000000000E+00  0.00000000000E+00  0.26965720051E+03  0.26965720051E+03  0.00000000000E+00 0.  1.
         22   -1    0    0    0    0 -0.00000000000E+00 -0.00000000000E+00 -0.13200045728E+03  0.13200045728E+03  0.00000000000E+00 0. -1.
         25    2    1    2    0    0 -0.44882600932E+02 -0.42332765335E+02 -0.12414237302E+02  0.14002651017E+03  0.12508716710E+03 0.  0.
        -24    2    1    2    0    0  0.57710468178E+02  0.26345675921E+02  0.16725851524E+02  0.10457638404E+03  0.81436313850E+02 0.  0.
         24    2    1    2    0    0 -0.12827867246E+02  0.15987089414E+02  0.13334512901E+03  0.15705476359E+03  0.80406057790E+02 0.  0.
        -11    1    5    5    0    0 -0.14176013721E+02 -0.11087207853E+01  0.13843743985E+03  0.13916577661E+03  0.00000000000E+00 0.  1.
         12    1    5    5    0    0  0.13481464757E+01  0.17095810199E+02 -0.50923108450E+01  0.17888986976E+02  0.00000000000E+00 0. -1.
         13    1    4    4    0    0  0.45103504836E+02 -0.11514118147E+02  0.37328072465E+02  0.59668132694E+02  0.00000000000E+00 0. -1.
        -14    1    4    4    0    0  0.12606963341E+02  0.37859794068E+02 -0.20602220942E+02  0.44908251350E+02  0.00000000000E+00 0.  1.
          5    1    3    3  501    0 -0.81599521047E+02 -0.12631077665E+02 -0.32101536966E+02  0.88690512647E+02  0.41800000000E+01 0. -1.
         -5    1    3    3    0  501  0.36716920114E+02 -0.29701687669E+02  0.19687299665E+02  0.51335997518E+02  0.41800000000E+01 0. -1.
</event>
<event>
11    1  0.1704459E-009  0.1364822E+03  0.7561462E-02  0.1111551E+00
         22   -1    0    0    0    0  0.00000000000E+00  0.00000000000E+00  0.69097095538E+03  0.69097095538E+03  0.00000000000E+00 0.  1.
         22   -1    0    0    0    0 -0.00000000000E+00 -0.00000000000E+00 -0.46636764149E+02  0.46636764149E+02  0.00000000000E+00 0.  1.
         25    2    1    2    0    0  0.79955214945E+01 -0.27360261194E+02  0.17297565065E+03  0.21536449960E+03  0.12509508269E+03 0.  0.
        -24    2    1    2    0    0 -0.43793600570E+02  0.67535966625E+02  0.16993791473E+03  0.20322562075E+03  0.77089375565E+02 0.  0.
         24    2    1    2    0    0  0.35798079076E+02 -0.40175705431E+02  0.30142062585E+03  0.31901759918E+03  0.89566986819E+02 0.  0.
        -11    1    5    5    0    0  0.57378430764E+02 -0.61631374481E+01  0.11968283005E+03  0.13286929062E+03  0.00000000000E+00 0.  1.
         12    1    5    5    0    0 -0.21580351688E+02 -0.34012567983E+02  0.18173779580E+03  0.18614830856E+03  0.00000000000E+00 0. -1.
         11    1    4    4    0    0 -0.30733387738E+02 -0.19294186108E+01  0.96518577526E+02  0.10131189262E+03  0.00000000000E+00 0. -1.
        -12    1    4    4    0    0 -0.13060212832E+02  0.69465385236E+02  0.73419337206E+02  0.10191372813E+03  0.00000000000E+00 0.  1.
          5    1    3    3  501    0 -0.31116089702E+00 -0.40443085484E+02 -0.97841157726E+00  0.40671484775E+02  0.41800000000E+01 0. -1.
         -5    1    3    3    0  501  0.83066823915E+01  0.13082824290E+02  0.17395406223E+03  0.17469301483E+03  0.41800000000E+01 0. -1.
</event>
<event>
11    1  0.1704459E-009  0.6485870E+03  0.7561462E-02  0.9111699E-01
         22   -1    0    0    0    0  0.00000000000E+00  0.00000000000E+00  0.28961225541E+03  0.28961225541E+03  0.00000000000E+00 0. -1.
         22   -1    0    0    0    0 -0.00000000000E+00 -0.00000000000E+00 -0.17563105916E+04  0.17563105916E+04  0.00000000000E+00 0. -1.
         25    2    1    2    0    0 -0.43842271979E+01  0.11456481473E+02 -0.17269647126E+03  0.21359421314E+03  0.12509174347E+03 0.  0.
         24    2    1    2    0    0 -0.44752654270E+03 -0.46580976062E+03 -0.61792419913E+03  0.89724408523E+03  0.77187389545E+02 0.  0.
        -24    2    1    2    0    0  0.45191076990E+03  0.45435327915E+03 -0.67607766578E+03  0.93508454862E+03  0.81497586927E+02 0.  0.
        -13    1    4    4    0    0 -0.10276016499E+03 -0.10196956539E+03 -0.96577075708E+02  0.17402464000E+03  0.00000000000E+00 0.  1.
         14    1    4    4    0    0 -0.34476637772E+03 -0.36384019523E+03 -0.52134712342E+03  0.72321944524E+03  0.00000000000E+00 0. -1.
         13    1    5    5    0    0  0.34518409013E+03  0.31138094550E+03 -0.44905212312E+03  0.64634198268E+03  0.00000000000E+00 0. -1.
        -14    1    5    5    0    0  0.10672667977E+03  0.14297233365E+03 -0.22702554266E+03  0.28874256594E+03  0.00000000000E+00 0.  1.
          5    1    3    3  501    0 -0.58521705034E+02  0.23502257132E+02 -0.12603474354E+03  0.14099423758E+03  0.41800000000E+01 0. -1.
         -5    1    3    3    0  501  0.54137477836E+02 -0.12045775659E+02 -0.46661727717E+02  0.72599975559E+02  0.41800000000E+01 0. -1.
</event>
<event>
11    1  0.1704459E-009  0.5905408E+03  0.7561462E-02  0.9211247E-01
         22   -1    0    0    0    0  0.00000000000E+00  0.00000000000E+00  0.12217521566E+04  0.12217521566E+04  0.00000000000E+00 0.  1.
         22   -1    0    0    0    0 -0.00000000000E+00 -0.00000000000E+00 -0.35038849959E+03  0.35038849959E+03  0.00000000000E+00 0.  1.
         25    2    1    2    0    0  0.72102624146E+00  0.17539188725E+02  0.55888662746E+02  0.13812755393E+03  0.12509010956E+03 0.  0.
         24    2    1    2    0    0 -0.47872291287E+03  0.32527505347E+03  0.40781144952E+03  0.71391050351E+03  0.91534370251E+02 0.  0.
        -24    2    1    2    0    0  0.47800188663E+03 -0.34281424220E+03  0.40766354473E+03  0.72010259875E+03  0.79691773362E+02 0.  0.
        -13    1    4    4    0    0 -0.42857737993E+03  0.32020798166E+03  0.38128640749E+03  0.65695589399E+03  0.00000000000E+00 0.  1.
         14    1    4    4    0    0 -0.50145532938E+02  0.50670718073E+01  0.26525042029E+02  0.56954609515E+02  0.00000000000E+00 0. -1.
         11    1    5    5    0    0  0.94637289309E+02 -0.54598999925E+02  0.11307377721E+03  0.15723532177E+03  0.00000000000E+00 0. -1.
        -12    1    5    5    0    0  0.38336459732E+03 -0.28821524227E+03  0.29458976752E+03  0.56286727697E+03  0.00000000000E+00 0.  1.
          5    1    3    3  501    0  0.17344976609E+02 -0.45700457878E+02  0.53462634494E+02  0.72561048441E+02  0.41800000000E+01 0.  1.
         -5    1    3    3    0  501 -0.16623950368E+02  0.63239646604E+02  0.24260282525E+01  0.65566505485E+02  0.41800000000E+01 0.  1.
</event>
<event>
11    1  0.1704459E-009  0.1473867E+03  0.7561462E-02  0.1099579E+00
         22   -1    0    0    0    0  0.00000000000E+00  0.00000000000E+00  0.14521621339E+04  0.14521621339E+04  0.00000000000E+00 0.  1.
         22   -1    0    0    0    0 -0.00000000000E+00 -0.00000000000E+00 -0.29241694526E+02  0.29241694526E+02  0.00000000000E+00 0. -1.
         25    2    1    2    0    0  0.40695508693E+02 -0.55735428961E+02  0.30276470217E+03  0.33478007504E+03  0.12509464935E+03 0.  0.
         24    2    1    2    0    0 -0.10531127295E+03  0.25571182528E+02  0.57237405381E+03  0.58834894098E+03  0.82450405066E+02 0.  0.
        -24    2    1    2    0    0  0.64615764255E+02  0.30164246433E+02  0.54778168345E+03  0.55827481245E+03  0.80752181062E+02 0.  0.
        -11    1    4    4    0    0 -0.85089971379E+02 -0.11431648740E+02  0.46744502172E+03  0.47526396261E+03  0.00000000000E+00 0.  1.
         12    1    4    4    0    0 -0.20221301568E+02  0.37002831268E+02  0.10492903209E+03  0.11308497837E+03  0.00000000000E+00 0. -1.
         13    1    5    5    0    0 -0.89623451686E+01 -0.72046880641E+01  0.13841360234E+02  0.17994844099E+02  0.00000000000E+00 0. -1.
        -14    1    5    5    0    0  0.73578109423E+02  0.37368934497E+02  0.53394032321E+03  0.54027996835E+03  0.00000000000E+00 0.  1.
          5    1    3    3  501    0  0.52232802716E+02 -0.85148584865E+02  0.27464800544E+03  0.29227991118E+03  0.41800000000E+01 0.  1.
         -5    1    3    3    0  501 -0.11537294024E+02  0.29413155904E+02  0.28116696722E+02  0.42500163861E+02  0.41800000000E+01 0.  1.
</event>
<event>
11    1  0.1704459E-009  0.2270402E+03  0.7561462E-02  0.1036895E+00
         22   -1    0    0    0    0  0.00000000000E+00  0.00000000000E+00  0.24884317695E+03  0.24884317695E+03  0.00000000000E+00 0.  1.
         22   -1    0    0    0    0 -0.00000000000E+00 -0.00000000000E+00 -0.43704432424E+03  0.43704432424E+03  0.00000000000E+00 0.  1.
         25    2    1    2    0    0  0.14818136076E+03  0.12535099821E+03 -0.30571713813E+03  0.38312003412E+03  0.12508958220E+03 0.  0.
        -24    2    1    2    0    0 -0.11278551540E+03 -0.13303963428E+03  0.77931065667E+02  0.20668724673E+03  0.78906591561E+02 0.  0.
         24    2    1    2    0    0 -0.35395845358E+02  0.76886360671E+01  0.39584925168E+02  0.96080220334E+02  0.79702330240E+02 0.  0.
        -13    1    5    5    0    0 -0.56651890575E+02  0.15457496963E+02  0.11206286560E+02  0.59782537389E+02  0.00000000000E+00 0.  1.
         14    1    5    5    0    0  0.21256045218E+02 -0.77688608964E+01  0.28378638608E+02  0.36297682945E+02  0.00000000000E+00 0. -1.
         13    1    4    4    0    0 -0.69203732463E+02 -0.44811521051E+02  0.21310284625E+01  0.82472845761E+02  0.00000000000E+00 0. -1.
        -14    1    4    4    0    0 -0.43581782937E+02 -0.88228113229E+02  0.75800037205E+02  0.12421440097E+03  0.00000000000E+00 0.  1.
          5    1    3    3  501    0  0.10478159084E+03  0.11699728313E+03 -0.13634438389E+03  0.20802598265E+03  0.41800000000E+01 0. -1.
         -5    1    3    3    0  501  0.43399769922E+02  0.83537150814E+01 -0.16937275423E+03  0.17509405147E+03  0.41800000000E+01 0. -1.
</event>
<event>
11    1  0.1704459E-009  0.6261457E+03  0.7561462E-02  0.9148829E-01
         22   -1    0    0    0    0  0.00000000000E+00  0.00000000000E+00  0.72789154725E+03  0.72789154725E+03  0.00000000000E+00 0.  1.
         22   -1    0    0    0    0 -0.00000000000E+00 -0.00000000000E+00 -0.12602981504E+04  0.12602981504E+04  0.00000000000E+00 0.  1.
         25    2    1    2    0    0 -0.66248659536E+03  0.11083765540E+03 -0.63129461107E+03  0.93024296209E+03  0.12508240350E+03 0.  0.
        -24    2    1    2    0    0  0.55392179982E+03  0.68408578173E+02 -0.27068599930E+03  0.62552881040E+03  0.80661567961E+02 0.  0.
         24    2    1    2    0    0  0.10856479553E+03 -0.17924623358E+03  0.36957400717E+03  0.43241792520E+03  0.80528182526E+02 0.  0.
        -13    1    5    5    0    0  0.81499013453E+02 -0.85306478722E+02  0.14121899892E+03  0.18401654861E+03  0.00000000000E+00 0.  1.
         14    1    5    5    0    0  0.27065782081E+02 -0.93939754854E+02  0.22835500825E+03  0.24840137659E+03  0.00000000000E+00 0. -1.
         11    1    4    4    0    0  0.40958625485E+02  0.55892039257E+01  0.16428999919E+01  0.41370851121E+02  0.00000000000E+00 0. -1.
        -12    1    4    4    0    0  0.51296317434E+03  0.62819374247E+02 -0.27232889929E+03  0.58415795928E+03  0.00000000000E+00 0.  1.
          5    1    3    3  501    0 -0.40396888854E+03  0.12633221055E+03 -0.41515156917E+03  0.59289036770E+03  0.41800000000E+01 0. -1.
         -5    1    3    3    0  501 -0.25851770681E+03 -0.15494555148E+02 -0.21614304191E+03  0.33735259439E+03  0.41800000000E+01 0. -1.
</event>
<event>
11    1  0.1704459E-009  0.7003378E+03  0.7561462E-02  0.9031807E-01
         22   -1    0    0    0    0  0.00000000000E+00  0.00000000000E+00  0.66127205505E+03  0.66127205505E+03  0.00000000000E+00 0. -1.
         22   -1    0    0    0    0 -0.00000000000E+00 -0.00000000000E+00 -0.13398016126E+04  0.13398016126E+04  0.00000000000E+00 0. -1.
         25    2    1    2    0    0 -0.39351379581E+02  0.73282148867E+03 -0.84891240487E+03  0.11291058411E+04  0.12510740922E+03 0.  0.
         24    2    1    2    0    0  0.19026358014E+03 -0.54450655263E+03  0.19948419368E+03  0.61564435702E+03  0.80848098396E+02 0.  0.
        -24    2    1    2    0    0 -0.15091220056E+03 -0.18831493604E+03 -0.29101346344E+02  0.25632346955E+03  0.81350017012E+02 0.  0.
        -13    1    4    4    0    0  0.67562517161E+02 -0.16918800673E+03  0.10252870093E+03  0.20904882172E+03  0.00000000000E+00 0.  1.
         14    1    4    4    0    0  0.12270106298E+03 -0.37531854590E+03  0.96955492750E+02  0.40659553530E+03  0.00000000000E+00 0. -1.
         13    1    5    5    0    0 -0.14486958939E+03 -0.17318532863E+03 -0.33040051633E+01  0.22581247182E+03  0.00000000000E+00 0. -1.
        -14    1    5    5    0    0 -0.60426111764E+01 -0.15129607418E+02 -0.25797341180E+02  0.30510997729E+02  0.00000000000E+00 0.  1.
          5    1    3    3  501    0 -0.70030772049E+02  0.25066897300E+03 -0.32573352985E+03  0.41696408470E+03  0.41800000000E+01 0.  1.
         -5    1    3    3    0  501  0.30679392468E+02  0.48215251567E+03 -0.52317887502E+03  0.71214175636E+03  0.41800000000E+01 0.  1.
</event>
<event>
11    1  0.1704459E-009  0.1359651E+03  0.7561462E-02  0.1112150E+00
         22   -1    0    0    0    0  0.00000000000E+00  0.00000000000E+00  0.17357057221E+03  0.17357057221E+03  0.00000000000E+00 0.  1.
         22   -1    0    0    0    0 -0.00000000000E+00 -0.00000000000E+00 -0.14969740718E+03  0.14969740718E+03  0.00000000000E+00 0. -1.
         25    2    1    2    0    0  0.49732904663E+02 -0.59892447584E+01 -0.45223394162E+01  0.13483037207E+03  0.12509814075E+03 0.  0.
        -24    2    1    2    0    0 -0.54415140781E+02  0.12138098409E+02 -0.41348131278E+01  0.10185255175E+03  0.85138150315E+02 0.  0.
         24    2    1    2    0    0  0.46822361185E+01 -0.61488536511E+01  0.32530317569E+02  0.86585055571E+02  0.79868758290E+02 0.  0.
        -11    1    5    5    0    0  0.38081862522E+02 -0.19641678126E+02  0.25564699804E+02  0.49895667636E+02  0.00000000000E+00 0.  1.
         12    1    5    5    0    0 -0.33399626404E+02  0.13492824475E+02  0.69656177654E+01  0.36689387935E+02  0.00000000000E+00 0. -1.
         11    1    4    4    0    0 -0.92765246631E+01  0.29470981622E+02 -0.33267894839E+02  0.45402042846E+02  0.00000000000E+00 0. -1.
        -12    1    4    4    0    0 -0.45138616118E+02 -0.17332883213E+02  0.29133081711E+02  0.56450508904E+02  0.00000000000E+00 0.  1.
          5    1    3    3  501    0  0.46437748248E+02  0.12796982593E+02  0.54385953417E+02  0.72770403015E+02  0.41800000000E+01 0. -1.
         -5    1    3    3    0  501  0.32951564144E+01 -0.18786227352E+02 -0.58908292834E+02  0.62059969050E+02  0.41800000000E+01 0. -1.
</event>
<event>
11    1  0.1704459E-009  0.3092721E+03  0.7561462E-02  0.9963417E-01
         22   -1    0    0    0    0  0.00000000000E+00  0.00000000000E+00  0.15526710038E+03  0.15526710038E+03  0.00000000000E+00 0.  1.
         22   -1    0    0    0    0 -0.00000000000E+00 -0.00000000000E+00 -0.14632602760E+04  0.14632602760E+04  0.00000000000E+00 0.  1.
         25    2    1    2    0    0 -0.28199917181E+03 -0.64165372651E+02 -0.11712241275E+04  0.12128702497E+04  0.12509019824E+03 0.  0.
         24    2    1    2    0    0  0.25429908828E+03  0.50235164420E+02 -0.16112446982E+03  0.31640061628E+03  0.83406577420E+02 0.  0.
        -24    2    1    2    0    0  0.27700083530E+02  0.13930208230E+02  0.24355421747E+02  0.89256510416E+02  0.80076168454E+02 0.  0.
        -13    1    4    4    0    0  0.18862691358E+03  0.17058002386E+02 -0.76499943667E+02  0.20426289275E+03  0.00000000000E+00 0.  1.
         14    1    4    4    0    0  0.65672174705E+02  0.33177162034E+02 -0.84624526157E+02  0.11213772353E+03  0.00000000000E+00 0. -1.
         13    1    5    5    0    0 -0.20516134014E+02 -0.80698087514E+01 -0.11891417784E+02  0.25048740190E+02  0.00000000000E+00 0. -1.
        -14    1    5    5    0    0  0.48216217544E+02  0.22000016982E+02  0.36246839532E+02  0.64207770227E+02  0.00000000000E+00 0.  1.
          5    1    3    3  501    0 -0.28608550046E+03 -0.42908308065E+02 -0.11257710568E+04  0.11623527783E+04  0.41800000000E+01 0.  1.
         -5    1    3    3    0  501  0.40863286488E+01 -0.21257064586E+02 -0.45453070753E+02  0.50517471409E+02  0.41800000000E+01 0.  1.
</event>
<event>
11    1  0.1704459E-009  0.2060266E+03  0.7561462E-02  0.1050342E+00
         22   -1    0    0    0    0  0.00000000000E+00  0.00000000000E+00  0.22240869983E+03  0.22240869983E+03  0.00000000000E+00 0.  1.
         22   -1    0    0    0    0 -0.00000000000E+00 -0.00000000000E+00 -0.10624135871E+04  0.10624135871E+04  0.00000000000E+00 0.  1.
         25    2    1    2    0    0 -0.11306325277E+02 -0.15825402256E+03 -0.90833558973E+03  0.93053390518E+03  0.12509051307E+03 0.  0.
        -24    2    1    2    0    0  0.27085399070E+02  0.22489939178E+03  0.32427833599E+02  0.24279058480E+03  0.81131673291E+02 0.  0.
         24    2    1    2    0    0 -0.15779073794E+02 -0.66645369219E+02  0.35902868852E+02  0.11149779696E+03  0.80325328049E+02 0.  0.
        -13    1    5    5    0    0 -0.17970564552E+02 -0.66596335893E+02 -0.62748348666E+01  0.69263169848E+02  0.00000000000E+00 0.  1.
         14    1    5    5    0    0  0.21914907588E+01 -0.49033325516E-01  0.42177703718E+02  0.42234627108E+02  0.00000000000E+00 0. -1.
         11    1    4    4    0    0  0.14957066458E+02  0.21149178774E+02  0.28678502220E+02  0.38645285474E+02  0.00000000000E+00 0. -1.
        -12    1    4    4    0    0  0.12128332613E+02  0.20375021301E+03  0.37493313794E+01  0.20414529933E+03  0.00000000000E+00 0.  1.
          5    1    3    3  501    0 -0.80057717140E+00 -0.16119702057E+03 -0.58023187000E+03  0.60222223118E+03  0.41800000000E+01 0.  1.
         -5    1    3    3    0  501 -0.10505748105E+02  0.29429980068E+01 -0.32810371973E+03  0.32831167400E+03  0.41800000000E+01 0.  1.
</event>
<event>
11    1  0.1704459E-009  0.1514388E+03  0.7561462E-02  0.1095418E+00
         22   -1    0    0    0    0  0.00000000000E+00  0.00000000000E+00  0.50330469479E+03  0.50330469479E+03  0.00000000000E+00 0. -1.
         22   -1    0    0    0    0 -0.00000000000E+00 -0.00000000000E+00 -0.12042717313E+03  0.12042717313E+03  0.00000000000E+00 0.  1.
         25    2    1    2    0    0 -0.16664348579E+02  0.75922299677E+02 -0.72401638373E+01  0.14745491017E+03  0.12509450211E+03 0.  0.
         24    2    1    2    0    0  0.12237473194E+02 -0.96282513002E+02  0.67814086614E+02  0.14355331845E+03  0.81170972865E+02 0.  0.
        -24    2    1    2    0    0  0.44268753852E+01  0.20360213324E+02  0.32230359889E+03  0.33272363930E+03  0.79945448785E+02 0.  0.
        -13    1    4    4    0    0  0.30331983062E+02 -0.96997485998E+02  0.37666174703E+02  0.10838487996E+03  0.00000000000E+00 0.  1.
         14    1    4    4    0    0 -0.18094509868E+02  0.71497299671E+00  0.30147911911E+02  0.35168438498E+02  0.00000000000E+00 0. -1.
         11    1    5    5    0    0 -0.15854735544E+02 -0.14139206764E+02  0.24268658941E+03  0.24361459415E+03  0.00000000000E+00 0. -1.
        -12    1    5    5    0    0  0.20281610929E+02  0.34499420088E+02  0.79617009482E+02  0.89109045148E+02  0.00000000000E+00 0.  1.
          5    1    3    3  501    0  0.18652199014E+02  0.54956349606E+01 -0.52749072569E+02  0.56374139360E+02  0.41800000000E+01 0. -1.
         -5    1    3    3    0  501 -0.35316547593E+02  0.70426664717E+02  0.45508908732E+02  0.91080770808E+02  0.41800000000E+01 0. -1.
</event>
<event>
11    1  0.1704459E-009  0.1900609E+03  0.7561462E-02  0.1061783E+00
         22   -1    0    0    0    0  0.00000000000E+00  0.00000000000E+00  0.60660010082E+03  0.60660010082E+03  0.00000000000E+00 0.  1.
         22   -1    0    0    0    0 -0.00000000000E+00 -0.00000000000E+00 -0.42059492033E+03  0.42059492033E+03  0.00000000000E+00 0. -1.
         25    2    1    2    0    0  0.12457234809E+03  0.75620768086E+02 -0.36578118400E+03  0.41312257658E+03  0.12505046274E+03 0.  0.
        -24    2    1    2    0    0 -0.10982395737E+02 -0.77444983243E+02  0.14218889733E+03  0.18097999716E+03  0.80110788287E+02 0.  0.
         24    2    1    2    0    0 -0.11358995236E+03  0.18242151572E+01  0.40959746716E+03  0.43309244742E+03  0.83023959639E+02 0.  0.
        -11    1    5    5    0    0 -0.84853934148E+02  0.14658451016E+02  0.38086285006E+03  0.39047608235E+03  0.00000000000E+00 0.  1.
         12    1    5    5    0    0 -0.28736018210E+02 -0.12834235859E+02  0.28734617094E+02  0.42616365075E+02  0.00000000000E+00 0. -1.
         11    1    4    4    0    0  0.25651503255E+02  0.61890786323E+00  0.29903292605E+02  0.39402913278E+02  0.00000000000E+00 0. -1.
        -12    1    4    4    0    0 -0.36633898992E+02 -0.78063891107E+02  0.11228560473E+03  0.14157708388E+03  0.00000000000E+00 0.  1.
          5    1    3    3  501    0  0.34089666294E+02  0.23791084395E+02 -0.10848639458E+02  0.43165801543E+02  0.41800000000E+01 0.  1.
         -5    1    3    3    0  501  0.90482681801E+02  0.51829683691E+02 -0.35493254454E+03  0.36995677503E+03  0.41800000000E+01 0.  1.
</event>
<event>
11    1  0.1704459E-009  0.1536836E+03  0.7561462E-02  0.1093173E+00
         22   -1    0    0    0    0  0.00000000000E+00  0.00000000000E+00  0.36976912893E+03  0.36976912893E+03  0.00000000000E+00 0. -1.
         22   -1    0    0    0    0 -0.00000000000E+00 -0.00000000000E+00 -0.25495447463E+03  0.25495447463E+03  0.00000000000E+00 0. -1.
         25    2    1    2    0    0 -0.72645612798E+02 -0.61099742976E+01 -0.13024339977E+03  0.19474508256E+03  0.12509031598E+03 0.  0.
         24    2    1    2    0    0  0.22016763186E+02  0.13094639531E+03  0.19012861881E+02  0.15448974485E+03  0.76641346808E+02 0.  0.
        -24    2    1    2    0    0  0.50628849611E+02 -0.12483642102E+03  0.22604519220E+03  0.27548877614E+03  0.81548908272E+02 0.  0.
        -13    1    4    4    0    0  0.42204502792E+02  0.79215618808E+02  0.35562917347E+02  0.96545613102E+02  0.00000000000E+00 0.  1.
         14    1    4    4    0    0 -0.20187739605E+02  0.51730776507E+02 -0.16550055466E+02  0.57944131751E+02  0.00000000000E+00 0. -1.
         11    1    5    5    0    0  0.54521197179E+02 -0.10983707698E+03  0.13197323276E+03  0.18014904548E+03  0.00000000000E+00 0. -1.
        -12    1    5    5    0    0 -0.38923475681E+01 -0.14999344036E+02  0.94071959435E+02  0.95339730664E+02  0.00000000000E+00 0.  1.
          5    1    3    3  501    0  0.11067377007E-01  0.43027354345E+02 -0.75790924716E+01  0.43889274170E+02  0.41800000000E+01 0. -1.
         -5    1    3    3    0  501 -0.72656680175E+02 -0.49137328643E+02 -0.12266430730E+03  0.15085580839E+03  0.41800000000E+01 0. -1.
</event>
<event>
11    1  0.1704459E-009  0.1335463E+04  0.7561462E-02  0.8412464E-01
         22   -1    0    0    0    0  0.00000000000E+00  0.00000000000E+00  0.94313292746E+03  0.94313292746E+03  0.00000000000E+00 0.  1.
         22   -1    0    0    0    0 -0.00000000000E+00 -0.00000000000E+00 -0.47274935670E+03  0.47274935670E+03  0.00000000000E+00 0. -1.
         25    2    1    2    0    0  0.53652228394E+03 -0.21454438273E+03 -0.24806894234E+02  0.59173389068E+03  0.12509261392E+03 0.  0.
         24    2    1    2    0    0 -0.27313192601E+03  0.21036829762E+02  0.94921867210E+02  0.30100572936E+03  0.80936339308E+02 0.  0.
        -24    2    1    2    0    0 -0.26339035793E+03  0.19350755296E+03  0.40026859778E+03  0.52314266412E+03  0.81508545251E+02 0.  0.
        -13    1    4    4    0    0 -0.23740204282E+03  0.43492047721E+02  0.67268437378E+02  0.25055205211E+03  0.00000000000E+00 0.  1.
         14    1    4    4    0    0 -0.35729883188E+02 -0.22455217959E+02  0.27653429833E+02  0.50453677246E+02  0.00000000000E+00 0. -1.
         13    1    5    5    0    0 -0.17284724149E+02  0.22125218290E+02  0.78094139280E+02  0.82987839851E+02  0.00000000000E+00 0. -1.
        -14    1    5    5    0    0 -0.24610563378E+03  0.17138233467E+03  0.32217445850E+03  0.44015482427E+03  0.00000000000E+00 0.  1.
          5    1    3    3  501    0  0.32414480899E+01 -0.22625636820E+02 -0.84312786148E+01  0.24718116561E+02  0.41800000000E+01 0.  1.
         -5    1    3    3    0  501  0.53328083585E+03 -0.19191874591E+03 -0.16375615619E+02  0.56701577412E+03  0.41800000000E+01 0.  1.
</event>
<event>
11    1  0.1704459E-009  0.1768781E+03  0.7561462E-02  0.1072196E+00
         22   -1    0    0    0    0  0.00000000000E+00  0.00000000000E+00  0.52149087829E+03  0.52149087829E+03  0.00000000000E+00 0.  1.
         22   -1    0    0    0    0 -0.00000000000E+00 -0.00000000000E+00 -0.35460315622E+03  0.35460315622E+03  0.00000000000E+00 0. -1.
         25    2    1    2    0    0  0.10091853382E+03 -0.82499479891E+02 -0.26472973199E+03  0.32050028623E+03  0.12509151780E+03 0.  0.
         24    2    1    2    0    0 -0.47980008828E+02  0.10747928780E+03  0.35167407405E+02  0.14646939024E+03  0.79766265920E+02 0.  0.
        -24    2    1    2    0    0 -0.52938524997E+02 -0.24979807913E+02  0.39645004665E+03  0.40912435803E+03  0.82362750172E+02 0.  0.
        -11    1    4    4    0    0 -0.65118936750E+01  0.45591665798E+01 -0.20746683741E+02  0.22217462623E+02  0.00000000000E+00 0.  1.
         12    1    4    4    0    0 -0.41468115153E+02  0.10292012122E+03  0.55914091146E+02  0.12425192761E+03  0.00000000000E+00 0. -1.
         13    1    5    5    0    0  0.13135032131E+02  0.10069434131E+02  0.23468481940E+02  0.28717454925E+02  0.00000000000E+00 0. -1.
        -14    1    5    5    0    0 -0.66073557128E+02 -0.35049242044E+02  0.37298156471E+03  0.38040690311E+03  0.00000000000E+00 0.  1.
          5    1    3    3  501    0  0.37355942987E+02  0.12811235056E+02 -0.96850210389E+01  0.40876230901E+02  0.41800000000E+01 0.  1.
         -5    1    3    3    0  501  0.63562590837E+02 -0.95310714947E+02 -0.25504471095E+03  0.27962405533E+03  0.41800000000E+01 0.  1.
</event>
<event>
11    1  0.1704459E-009  0.2024095E+03  0.7561462E-02  0.1052833E+00
         22   -1    0    0    0    0  0.00000000000E+00  0.00000000000E+00  0.49578967842E+02  0.49578967842E+02  0.00000000000E+00 0.  1.
         22   -1    0    0    0    0 -0.00000000000E+00 -0.00000000000E+00 -0.34352573524E+04  0.34352573524E+04  0.00000000000E+00 0.  1.
         25    2    1    2    0    0  0.77358326647E+02  0.17230481591E+03 -0.22779712656E+04  0.22892082614E+04  0.12509243346E+03 0.  0.
         24    2    1    2    0    0 -0.98899712402E+02 -0.91571834353E+02 -0.10571891615E+04  0.10688087894E+04  0.80850176964E+02 0.  0.
        -24    2    1    2    0    0  0.21541385755E+02 -0.80732981558E+02 -0.50517957406E+02  0.12681926940E+03  0.80927235579E+02 0.  0.
        -13    1    4    4    0    0 -0.56210009425E+02 -0.98126097285E+02 -0.71123881368E+03  0.72017285857E+03  0.00000000000E+00 0.  1.
         14    1    4    4    0    0 -0.42689702977E+02  0.65542629323E+01 -0.34595034781E+03  0.34863593081E+03  0.00000000000E+00 0. -1.
         13    1    5    5    0    0  0.10654253268E+02 -0.40339867727E+02 -0.69356186719E+02  0.80938857646E+02  0.00000000000E+00 0. -1.
        -14    1    5    5    0    0  0.10887132487E+02 -0.40393113832E+02  0.18838229313E+02  0.45880411751E+02  0.00000000000E+00 0.  1.
          5    1    3    3  501    0 -0.42546824435E+01  0.10948834545E+03 -0.77656438445E+03  0.78426750265E+03  0.41800000000E+01 0. -1.
         -5    1    3    3    0  501  0.81613009091E+02  0.62816470460E+02 -0.15014068812E+04  0.15049407588E+04  0.41800000000E+01 0. -1.
</event>
<event>
11    1  0.1704459E-009  0.3067577E+03  0.7561462E-02  0.9973711E-01
         22   -1    0    0    0    0  0.00000000000E+00  0.00000000000E+00  0.85747827275E+02  0.85747827275E+02  0.00000000000E+00 0.  1.
         22   -1    0    0    0    0 -0.00000000000E+00 -0.00000000000E+00 -0.86790965263E+03  0.86790965263E+03  0.00000000000E+00 0. -1.
         25    2    1    2    0    0  0.69871246930E+02 -0.10323945474E+02 -0.31854048312E+03  0.34943490995E+03  0.12509253339E+03 0.  0.
         24    2    1    2    0    0  0.13711554364E+03 -0.85939226186E+01 -0.24203810789E+03  0.28958671104E+03  0.80021807792E+02 0.  0.
        -24    2    1    2    0    0 -0.20698679057E+03  0.18917868092E+02 -0.22158323434E+03  0.31463585891E+03  0.81824059834E+02 0.  0.
        -11    1    4    4    0    0  0.36759517817E+01  0.21711614564E+02 -0.37782094040E+02  0.43730921081E+02  0.00000000000E+00 0.  1.
         12    1    4    4    0    0  0.13343959186E+03 -0.30305537183E+02 -0.20425601385E+03  0.24585578996E+03  0.00000000000E+00 0. -1.
         13    1    5    5    0    0 -0.32680067342E+02  0.32012394119E+02 -0.67972411709E+02  0.81933075935E+02  0.00000000000E+00 0. -1.
        -14    1    5    5    0    0 -0.17430672323E+03 -0.13094526027E+02 -0.15361082263E+03  0.23270278297E+03  0.00000000000E+00 0.  1.
          5    1    3    3  501    0 -0.31053344317E+02 -0.18415985727E+02 -0.45740674284E+02  0.58422088353E+02  0.41800000000E+01 0.  1.
         -5    1    3    3    0  501  0.10092459125E+03  0.80920402532E+01 -0.27279980884E+03  0.29101282160E+03  0.41800000000E+01 0.  1.
</event>
<event>
11    1  0.1704459E-009  0.4515627E+03  0.7561462E-02  0.9508786E-01
         22   -1    0    0    0    0  0.00000000000E+00  0.00000000000E+00  0.60019121488E+03  0.60019121488E+03  0.00000000000E+00 0. -1.
         22   -1    0    0    0    0 -0.00000000000E+00 -0.00000000000E+00 -0.53514907221E+03  0.53514907221E+03  0.00000000000E+00 0. -1.
         25    2    1    2    0    0  0.57113476291E+02  0.42013865805E+03 -0.15954723744E+03  0.46996479231E+03  0.12503257125E+03 0.  0.
         24    2    1    2    0    0  0.60451554589E+02 -0.46406499676E+03  0.20414559257E+03  0.51648020538E+03  0.77882398004E+02 0.  0.
        -24    2    1    2    0    0 -0.11756503088E+03  0.43926338708E+02  0.20443787532E+02  0.14889528940E+03  0.77464824528E+02 0.  0.
        -11    1    4    4    0    0  0.40711095880E+02 -0.83602417346E+02  0.31138579698E+02  0.98063085100E+02  0.00000000000E+00 0.  1.
         12    1    4    4    0    0  0.19740458709E+02 -0.38046257941E+03  0.17300701287E+03  0.41841712028E+03  0.00000000000E+00 0. -1.
         13    1    5    5    0    0 -0.74594584058E+02  0.62777526135E+02 -0.53153821910E+00  0.97496934779E+02  0.00000000000E+00 0. -1.
        -14    1    5    5    0    0 -0.42970446822E+02 -0.18851187427E+02  0.20975325751E+02  0.51398354622E+02  0.00000000000E+00 0.  1.
          5    1    3    3  501    0  0.24904015995E+02  0.24056212123E+03 -0.15525743688E+03  0.28742423052E+03  0.41800000000E+01 0.  1.
         -5    1    3    3    0  501  0.32209460296E+02  0.17957653682E+03 -0.42898005558E+01  0.18254056179E+03  0.41800000000E+01 0.  1.
</event>
<event>
11    1  0.1704459E-009  0.1414851E+03  0.7561462E-02  0.1105911E+00
         22   -1    0    0    0    0  0.00000000000E+00  0.00000000000E+00  0.15079122168E+03  0.15079122168E+03  0.00000000000E+00 0.  1.
         22   -1    0    0    0    0 -0.00000000000E+00 -0.00000000000E+00 -0.27973242102E+03  0.27973242102E+03  0.00000000000E+00 0.  1.
         25    2    1    2    0    0  0.25464169696E+02 -0.75068706670E+02 -0.14067059729E+03  0.20426116083E+03  0.12510263874E+03 0.  0.
        -24    2    1    2    0    0 -0.42496601851E+02  0.11504711755E+02 -0.53310478659E+02  0.10778034885E+03  0.82681780951E+02 0.  0.
         24    2    1    2    0    0  0.17032432155E+02  0.63563994915E+02  0.65039876613E+02  0.11848213303E+03  0.74009087979E+02 0.  0.
        -11    1    5    5    0    0 -0.96542508161E+01  0.62403819109E+02  0.20217289386E+02  0.66303695133E+02  0.00000000000E+00 0.  1.
         12    1    5    5    0    0  0.26686682971E+02  0.11601758058E+01  0.44822587227E+02  0.52178437899E+02  0.00000000000E+00 0. -1.
         11    1    4    4    0    0 -0.13228250124E+02 -0.34661033197E+02 -0.11120571291E+02  0.38730361855E+02  0.00000000000E+00 0. -1.
        -12    1    4    4    0    0 -0.29268351727E+02  0.46165744952E+02 -0.42189907368E+02  0.69049986991E+02  0.00000000000E+00 0.  1.
          5    1    3    3  501    0 -0.13068427739E+02  0.31570523642E+02 -0.37506474272E+02  0.50908641496E+02  0.41800000000E+01 0.  1.
         -5    1    3    3    0  501  0.38532597434E+02 -0.10663923031E+03 -0.10316412302E+03  0.15335251933E+03  0.41800000000E+01 0.  1.
</event>
<event>
11    1  0.1704459E-009  0.1449055E+04  0.7561462E-02  0.8340227E-01
         22   -1    0    0    0    0  0.00000000000E+00  0.00000000000E+00  0.21703697424E+04  0.21703697424E+04  0.00000000000E+00 0. -1.
         22   -1    0    0    0    0 -0.00000000000E+00 -0.00000000000E+00 -0.24186682469E+03  0.24186682469E+03  0.00000000000E+00 0. -1.
         25    2    1    2    0    0 -0.58305828627E+03  0.24296158707E+03  0.48159726294E+03  0.80409550085E+03  0.12508538214E+03 0.  0.
        -24    2    1    2    0    0  0.56144093636E+03 -0.21952185374E+03  0.13392623149E+04  0.14708565499E+04  0.79935430210E+02 0.  0.
         24    2    1    2    0    0  0.21617349918E+02 -0.23439733330E+02  0.10764333986E+03  0.13728451633E+03  0.79014042374E+02 0.  0.
        -13    1    5    5    0    0 -0.36272039308E+01 -0.84182359113E+01 -0.11424059737E+02  0.14646926131E+02  0.00000000000E+00 0.  1.
         14    1    5    5    0    0  0.25244553849E+02 -0.15021497418E+02  0.11906739960E+03  0.12263759020E+03  0.00000000000E+00 0. -1.
         11    1    4    4    0    0  0.28441876466E+03 -0.90829783310E+02  0.74717141940E+03  0.80461743282E+03  0.00000000000E+00 0. -1.
        -12    1    4    4    0    0  0.27702217170E+03 -0.12869207043E+03  0.59209089549E+03  0.66623911707E+03  0.00000000000E+00 0.  1.
          5    1    3    3  501    0 -0.43682828035E+03  0.14200343509E+03  0.29248066218E+03  0.54456067820E+03  0.41800000000E+01 0.  1.
         -5    1    3    3    0  501 -0.14623000593E+03  0.10095815198E+03  0.18911660076E+03  0.25953482265E+03  0.41800000000E+01 0.  1.
</event>
<event>
11    1  0.1704459E-009  0.1706924E+03  0.7561462E-02  0.1077431E+00
         22   -1    0    0    0    0  0.00000000000E+00  0.00000000000E+00  0.17499454326E+03  0.17499454326E+03  0.00000000000E+00 0. -1.
         22   -1    0    0    0    0 -0.00000000000E+00 -0.00000000000E+00 -0.36655318542E+03  0.36655318542E+03  0.00000000000E+00 0. -1.
         25    2    1    2    0    0 -0.33240061150E+02  0.11214095047E+03 -0.24104752980E+03  0.29568909107E+03  0.12509049730E+03 0.  0.
        -24    2    1    2    0    0  0.72858152029E+02 -0.94602589636E+02  0.46543601528E+02  0.15398634102E+03  0.85367008238E+02 0.  0.
         24    2    1    2    0    0 -0.39618090879E+02 -0.17538360836E+02  0.29452861183E+01  0.91872296588E+02  0.80960835868E+02 0.  0.
        -13    1    5    5    0    0 -0.39302330483E+02 -0.31157030402E+02 -0.28441237537E+02  0.57657069970E+02  0.00000000000E+00 0.  1.
         14    1    5    5    0    0 -0.31576039582E+00  0.13618669567E+02  0.31386523655E+02  0.34215226618E+02  0.00000000000E+00 0. -1.
         13    1    4    4    0    0  0.46710894495E+02 -0.56583391798E+02 -0.17135100242E+02  0.75347193393E+02  0.00000000000E+00 0. -1.
        -14    1    4    4    0    0  0.26147257534E+02 -0.38019197838E+02  0.63678701770E+02  0.78639147630E+02  0.00000000000E+00 0.  1.
          5    1    3    3  501    0 -0.58999834315E+02  0.65814261478E+02 -0.22237601716E+03  0.23933462531E+03  0.41800000000E+01 0. -1.
         -5    1    3    3    0  501  0.25759773165E+02  0.46326688994E+02 -0.18671512641E+02  0.56354465759E+02  0.41800000000E+01 0. -1.
</event>
<event>
11    1  0.1704459E-009  0.1727358E+03  0.7561462E-02  0.1075675E+00
         22   -1    0    0    0    0  0.00000000000E+00  0.00000000000E+00  0.36636241252E+02  0.36636241252E+02  0.00000000000E+00 0.  1.
         22   -1    0    0    0    0 -0.00000000000E+00 -0.00000000000E+00 -0.25158492975E+04  0.25158492975E+04  0.00000000000E+00 0.  1.
         25    2    1    2    0    0 -0.57549832477E+02 -0.33481745384E+02 -0.14302486647E+04  0.14372514151E+04  0.12508947598E+03 0.  0.
         24    2    1    2    0    0 -0.13588634118E+03  0.39380802792E+01 -0.31702473386E+03  0.35376609609E+03  0.78518549841E+02 0.  0.
        -24    2    1    2    0    0  0.19343617366E+03  0.29543665105E+02 -0.73193965769E+03  0.76146802751E+03  0.76207040264E+02 0.  0.
        -11    1    4    4    0    0 -0.98654716423E+02 -0.33362379100E+02 -0.20323921365E+03  0.22836807871E+03  0.00000000000E+00 0.  1.
         12    1    4    4    0    0 -0.37231624758E+02  0.37300459380E+02 -0.11378552021E+03  0.12539801738E+03  0.00000000000E+00 0. -1.
         11    1    5    5    0    0  0.26318788587E+01  0.33081929689E+01  0.38055707963E+00  0.42444965234E+01  0.00000000000E+00 0. -1.
        -12    1    5    5    0    0  0.19080429480E+03  0.26235472136E+02 -0.73232021477E+03  0.75722353098E+03  0.00000000000E+00 0.  1.
          5    1    3    3  501    0 -0.14260820559E+02 -0.76624624551E+02 -0.66784539095E+03  0.67239098946E+03  0.41800000000E+01 0.  1.
         -5    1    3    3    0  501 -0.43289011918E+02  0.43142879167E+02 -0.76240327374E+03  0.76486042569E+03  0.41800000000E+01 0.  1.
</event>
<event>
11    1  0.1704459E-009  0.5473121E+03  0.7561462E-02  0.9293602E-01
         22   -1    0    0    0    0  0.00000000000E+00  0.00000000000E+00  0.40020929261E+03  0.40020929261E+03  0.00000000000E+00 0.  1.
         22   -1    0    0    0    0 -0.00000000000E+00 -0.00000000000E+00 -0.15965307968E+04  0.15965307968E+04  0.00000000000E+00 0.  1.
         25    2    1    2    0    0  0.50914598915E+03 -0.63482765805E+02 -0.10653237798E+04  0.11890424415E+04  0.12508985629E+03 0.  0.
         24    2    1    2    0    0 -0.59484810682E+03  0.18247415803E+03 -0.12501007345E+03  0.63982409163E+03  0.81278910131E+02 0.  0.
        -24    2    1    2    0    0  0.85702117666E+02 -0.11899139222E+03 -0.59876509650E+01  0.16787355626E+03  0.81497696487E+02 0.  0.
        -11    1    4    4    0    0 -0.48233789680E+03  0.11504454544E+03 -0.10872859350E+03  0.50764850159E+03  0.00000000000E+00 0.  1.
         12    1    4    4    0    0 -0.11251021002E+03  0.67429612587E+02 -0.16281479945E+02  0.13217559004E+03  0.00000000000E+00 0. -1.
         13    1    5    5    0    0  0.64299020954E+02 -0.12896132848E+03 -0.36689638076E+01  0.14414870667E+03  0.00000000000E+00 0. -1.
        -14    1    5    5    0    0  0.21403096712E+02  0.99699362619E+01 -0.23186871575E+01  0.23724849590E+02  0.00000000000E+00 0.  1.
          5    1    3    3  501    0  0.13904427717E+03 -0.62668711275E+02 -0.39289043784E+03  0.42147484733E+03  0.41800000000E+01 0. -1.
         -5    1    3    3    0  501  0.37010171198E+03 -0.81405452968E+00 -0.67243334196E+03  0.76756759421E+03  0.41800000000E+01 0. -1.
</event>
<event>
11    1  0.1704459E-009  0.1660167E+03  0.7561462E-02  0.1081551E+00
         22   -1    0    0    0    0  0.00000000000E+00  0.00000000000E+00  0.21517604505E+03  0.21517604505E+03  0.00000000000E+00 0. -1.
         22   -1    0    0    0    0 -0.00000000000E+00 -0.00000000000E+00 -0.40415206812E+03  0.40415206812E+03  0.00000000000E+00 0. -1.
         25    2    1    2    0    0 -0.82976582315E+02 -0.63304320018E+02 -0.29683870711E+03  0.33860584644E+03  0.12509256995E+03 0.  0.
        -24    2    1    2    0    0  0.11743386030E+03  0.80262560268E+02  0.97205213834E+02  0.19048777152E+03  0.81264674833E+02 0.  0.
         24    2    1    2    0    0 -0.34457277983E+02 -0.16958240250E+02  0.10657470214E+02  0.90234495209E+02  0.80955521960E+02 0.  0.
        -11    1    5    5    0    0 -0.31551927931E+02  0.13935660320E+02  0.36230954731E+02  0.50024082855E+02  0.00000000000E+00 0.  1.
         12    1    5    5    0    0 -0.29053500517E+01 -0.30893900570E+02 -0.25573484517E+02  0.40210412354E+02  0.00000000000E+00 0. -1.
         11    1    4    4    0    0  0.84481743860E+02  0.80881809178E+02  0.38441810067E+02  0.12311297601E+03  0.00000000000E+00 0. -1.
        -12    1    4    4    0    0  0.32952116438E+02 -0.61924890955E+00  0.58763403767E+02  0.67374795504E+02  0.00000000000E+00 0.  1.
          5    1    3    3  501    0 -0.89638017532E+02 -0.94597020338E+02 -0.23004680334E+03  0.26442877032E+03  0.41800000000E+01 0. -1.
         -5    1    3    3    0  501  0.66614352164E+01  0.31292700320E+02 -0.66791903771E+02  0.74177076121E+02  0.41800000000E+01 0. -1.
</event>
<event>
11    1  0.1704459E-009  0.1472258E+03  0.7561462E-02  0.1099748E+00
         22   -1    0    0    0    0  0.00000000000E+00  0.00000000000E+00  0.13530070142E+02  0.13530070142E+02  0.00000000000E+00 0.  1.
         22   -1    0    0    0    0 -0.00000000000E+00 -0.00000000000E+00 -0.26692450225E+04  0.26692450225E+04  0.00000000000E+00 0.  1.
         25    2    1    2    0    0 -0.54195574316E+02  0.75258455017E+01 -0.10077106789E+04  0.10169175583E+04  0.12508680688E+03 0.  0.
         24    2    1    2    0    0  0.81514030070E+02 -0.71206994626E+02 -0.95937056544E+03  0.96912653980E+03  0.84257908412E+02 0.  0.
        -24    2    1    2    0    0 -0.27318455755E+02  0.63681149124E+02 -0.68863370799E+03  0.69673099458E+03  0.80100613281E+02 0.  0.
        -13    1    4    4    0    0  0.98375172118E+02 -0.67968629234E+02 -0.81135098183E+03  0.82011451929E+03  0.00000000000E+00 0.  1.
         14    1    4    4    0    0 -0.16861142048E+02 -0.32383653923E+01 -0.14801958361E+03  0.14901202050E+03  0.00000000000E+00 0. -1.
         11    1    5    5    0    0  0.64286935425E+00  0.80688717289E+01 -0.35725802397E+01  0.88477851213E+01  0.00000000000E+00 0. -1.
        -12    1    5    5    0    0 -0.27961325109E+02  0.55612277396E+02 -0.68506112775E+03  0.68788320946E+03  0.00000000000E+00 0.  1.
          5    1    3    3  501    0 -0.50608435084E+02  0.22917009422E+02 -0.16699942232E+03  0.17604738702E+03  0.41800000000E+01 0.  1.
         -5    1    3    3    0  501 -0.35871392313E+01 -0.15391163920E+02 -0.84071125662E+03  0.84087017125E+03  0.41800000000E+01 0.  1.
</event>
<event>
11    1  0.1704459E-009  0.2060410E+03  0.7561462E-02  0.1050332E+00
         22   -1    0    0    0    0  0.00000000000E+00  0.00000000000E+00  0.72771563940E+03  0.72771563940E+03  0.00000000000E+00 0.  1.
         22   -1    0    0    0    0 -0.00000000000E+00 -0.00000000000E+00 -0.31290114292E+03  0.31290114292E+03  0.00000000000E+00 0.  1.
         25    2    1    2    0    0  0.15416436102E+03  0.61118598630E+02 -0.24704179245E+03  0.32277789581E+03  0.12511510502E+03 0.  0.
        -24    2    1    2    0    0 -0.41496700873E+02  0.15538906843E+02  0.13376882415E+03  0.16178102001E+03  0.79470537378E+02 0.  0.
         24    2    1    2    0    0 -0.11266766014E+03 -0.76657505473E+02  0.52808746478E+03  0.55605786650E+03  0.10841404728E+03 0.  0.
        -13    1    5    5    0    0 -0.58966181460E+02 -0.99132816044E+02  0.32899166558E+03  0.34862564707E+03  0.00000000000E+00 0.  1.
         14    1    5    5    0    0 -0.53701478683E+02  0.22475310571E+02  0.19909579920E+03  0.20743221943E+03  0.00000000000E+00 0. -1.
         13    1    4    4    0    0 -0.56832132954E+01  0.43510103440E+02  0.50345645469E+02  0.66784070199E+02  0.00000000000E+00 0. -1.
        -14    1    4    4    0    0 -0.35813487578E+02 -0.27971196598E+02  0.83423178685E+02  0.94996949812E+02  0.00000000000E+00 0.  1.
          5    1    3    3  501    0  0.10727870416E+03  0.18907878176E+02 -0.23410564554E+03  0.25824243240E+03  0.41800000000E+01 0. -1.
         -5    1    3    3    0  501  0.46885656861E+02  0.42210720454E+02 -0.12936146912E+02  0.64535463409E+02  0.41800000000E+01 0. -1.
</event>
<event>
11    1  0.1704459E-009  0.2462835E+03  0.7561462E-02  0.1025898E+00
         22   -1    0    0    0    0  0.00000000000E+00  0.00000000000E+00  0.56083086849E+03  0.56083086849E+03  0.00000000000E+00 0. -1.
         22   -1    0    0    0    0 -0.00000000000E+00 -0.00000000000E+00 -0.20554409519E+03  0.20554409519E+03  0.00000000000E+00 0.  1.
         25    2    1    2    0    0 -0.95986884565E+02 -0.17545324378E+03 -0.23143083909E+01  0.23590172785E+03  0.12508775487E+03 0.  0.
        -24    2    1    2    0    0  0.34829184630E+02  0.25181677643E+03  0.23722446510E+03  0.35688160147E+03  0.80400681799E+02 0.  0.
         24    2    1    2    0    0  0.61157699935E+02 -0.76363532645E+02  0.12037661659E+03  0.17359163436E+03  0.77922219666E+02 0.  0.
        -13    1    5    5    0    0  0.29340691138E+01 -0.31639889240E+02 -0.93966773189E+00  0.31789531738E+02  0.00000000000E+00 0.  1.
         14    1    5    5    0    0  0.58223630821E+02 -0.44723643405E+02  0.12131628432E+03  0.14180210262E+03  0.00000000000E+00 0. -1.
         11    1    4    4    0    0 -0.17141785229E+02  0.15915360043E+03  0.15094107218E+03  0.22001571899E+03  0.00000000000E+00 0. -1.
        -12    1    4    4    0    0  0.51970969860E+02  0.92663176002E+02  0.86283392921E+02  0.13686588249E+03  0.00000000000E+00 0.  1.
          5    1    3    3  501    0 -0.76224850047E+02 -0.30244422947E+02 -0.28612788263E+02  0.86954683234E+02  0.41800000000E+01 0.  1.
         -5    1    3    3    0  501 -0.19762034518E+02 -0.14520882084E+03  0.26298479872E+02  0.14894704462E+03  0.41800000000E+01 0.  1.
</event>
<event>
11    1  0.1704459E-009  0.7167969E+03  0.7561462E-02  0.9007912E-01
         22   -1    0    0    0    0  0.00000000000E+00  0.00000000000E+00  0.21322589858E+04  0.21322589858E+04  0.00000000000E+00 0. -1.
         22   -1    0    0    0    0 -0.00000000000E+00 -0.00000000000E+00 -0.60241023780E+02  0.60241023780E+02  0.00000000000E+00 0. -1.
         25    2    1    2    0    0  0.10397430976E+03  0.29266496520E+03  0.91646895073E+03  0.97571835158E+03  0.12509006759E+03 0.  0.
        -24    2    1    2    0    0 -0.12879774486E+03 -0.23067277972E+03  0.79648151532E+03  0.84268220599E+03  0.77017567163E+02 0.  0.
         24    2    1    2    0    0  0.24823435095E+02 -0.61992185480E+02  0.35906749600E+03  0.37409945204E+03  0.81004316844E+02 0.  0.
        -13    1    5    5    0    0  0.53106908334E+02 -0.35616295018E+02  0.26007965829E+03  0.26782511615E+03  0.00000000000E+00 0.  1.
         14    1    5    5    0    0 -0.28283473239E+02 -0.26375890462E+02  0.98987837704E+02  0.10627433589E+03  0.00000000000E+00 0. -1.
         11    1    4    4    0    0 -0.32727665735E+02 -0.13739879564E+03  0.41671946915E+03  0.44000527851E+03  0.00000000000E+00 0. -1.
        -12    1    4    4    0    0 -0.96070079123E+02 -0.93273984076E+02  0.37976204617E+03  0.40267692748E+03  0.00000000000E+00 0.  1.
          5    1    3    3  501    0  0.24443421727E+01  0.14691176530E+03  0.29874918641E+03  0.33295283506E+03  0.41800000000E+01 0.  1.
         -5    1    3    3    0  501  0.10152996759E+03  0.14575319990E+03  0.61771976431E+03  0.64276551652E+03  0.41800000000E+01 0.  1.
</event>
<event>
11    1  0.1704459E-009  0.3155318E+03  0.7561462E-02  0.9938240E-01
         22   -1    0    0    0    0  0.00000000000E+00  0.00000000000E+00  0.19148338229E+03  0.19148338229E+03  0.00000000000E+00 0. -1.
         22   -1    0    0    0    0 -0.00000000000E+00 -0.00000000000E+00 -0.76580654423E+03  0.76580654423E+03  0.00000000000E+00 0. -1.
         25    2    1    2    0    0  0.20209871838E+02  0.26635590897E+03 -0.35293012623E+03  0.45995738717E+03  0.12508882783E+03 0.  0.
         24    2    1    2    0    0 -0.43424692870E+02 -0.32810707608E+03 -0.20166247494E+03  0.39612804001E+03  0.81912837559E+02 0.  0.
        -24    2    1    2    0    0  0.23214821031E+02  0.61751167115E+02 -0.19730560767E+02  0.10120449934E+03  0.74168194687E+02 0.  0.
        -13    1    4    4    0    0 -0.29339086436E+02 -0.10197353915E+03 -0.10663833319E+03  0.15043642772E+03  0.00000000000E+00 0.  1.
         14    1    4    4    0    0 -0.14085606434E+02 -0.22613353694E+03 -0.95024141753E+02  0.24569161230E+03  0.00000000000E+00 0. -1.
         13    1    5    5    0    0 -0.12198140449E+02  0.62500547180E+02 -0.15438626566E+02  0.65524531425E+02  0.00000000000E+00 0. -1.
        -14    1    5    5    0    0  0.35412961480E+02 -0.74938006568E+00 -0.42919342012E+01  0.35679967916E+02  0.00000000000E+00 0.  1.
          5    1    3    3  501    0  0.42903309323E+02  0.24748989056E+03 -0.25651184050E+03  0.35903723567E+03  0.41800000000E+01 0.  1.
         -5    1    3    3    0  501 -0.22693437485E+02  0.18866018413E+02 -0.96418285738E+02  0.10092015151E+03  0.41800000000E+01 0.  1.
</event>
<event>
11    1  0.1704459E-009  0.1975897E+03  0.7561462E-02  0.1056241E+00
         22   -1    0    0    0    0  0.00000000000E+00  0.00000000000E+00  0.28298795588E+03  0.28298795588E+03  0.00000000000E+00 0. -1.
         22   -1    0    0    0    0 -0.00000000000E+00 -0.00000000000E+00 -0.87908405534E+03  0.87908405534E+03  0.00000000000E+00 0.  1.
         25    2    1    2    0    0 -0.61467135197E+02  0.14488670085E+03 -0.70760156201E+03  0.73560691505E+03  0.12508876100E+03 0.  0.
        -24    2    1    2    0    0  0.11524165511E+03  0.11010427676E+00 -0.85027675698E+02  0.16347193365E+03  0.78820785723E+02 0.  0.
         24    2    1    2    0    0 -0.53774519910E+02 -0.14499680512E+03  0.19653313825E+03  0.26299316251E+03  0.81390150572E+02 0.  0.
        -11    1    5    5    0    0  0.19494313881E+00 -0.33511700343E+02  0.35756734894E+01  0.33702485126E+02  0.00000000000E+00 0.  1.
         12    1    5    5    0    0 -0.53969463049E+02 -0.11148510478E+03  0.19295746476E+03  0.22929067739E+03  0.00000000000E+00 0. -1.
         11    1    4    4    0    0  0.12319203762E+03  0.11344542036E+02 -0.66689184175E+02  0.14054331736E+03  0.00000000000E+00 0. -1.
        -12    1    4    4    0    0 -0.79503825138E+01 -0.11234437759E+02 -0.18338491523E+02  0.22928616295E+02  0.00000000000E+00 0.  1.
          5    1    3    3  501    0 -0.92085252010E+02  0.11737678284E+03 -0.63243259430E+03  0.64980417167E+03  0.41800000000E+01 0.  1.
         -5    1    3    3    0  501  0.30618116812E+02  0.27509918009E+02 -0.75168967707E+02  0.85802743383E+02  0.41800000000E+01 0.  1.
</event>
<event>
11    1  0.1704459E-009  0.2207161E+03  0.7561462E-02  0.1040770E+00
         22   -1    0    0    0    0  0.00000000000E+00  0.00000000000E+00  0.50717931184E+03  0.50717931184E+03  0.00000000000E+00 0. -1.
         22   -1    0    0    0    0 -0.00000000000E+00 -0.00000000000E+00 -0.16711113361E+03  0.16711113361E+03  0.00000000000E+00 0.  1.
         25    2    1    2    0    0  0.17522211062E+03  0.75127238695E+02  0.15588449300E+01  0.22802110142E+03  0.12507718678E+03 0.  0.
         24    2    1    2    0    0 -0.13531419636E+03 -0.10118637146E+03  0.16826863269E+03  0.25165527985E+03  0.80420355776E+02 0.  0.
        -24    2    1    2    0    0 -0.39907914259E+02  0.26059132769E+02  0.17024070061E+03  0.19461406418E+03  0.81369636918E+02 0.  0.
        -13    1    4    4    0    0 -0.38012669029E+02 -0.25274766991E+02  0.34839433374E+01  0.45781161129E+02  0.00000000000E+00 0.  1.
         14    1    4    4    0    0 -0.97301527330E+02 -0.75911604472E+02  0.16478468935E+03  0.20587411872E+03  0.00000000000E+00 0. -1.
         11    1    5    5    0    0 -0.55590010089E+01 -0.18114197484E+02  0.11295866579E+03  0.11453683608E+03  0.00000000000E+00 0. -1.
        -12    1    5    5    0    0 -0.34348913250E+02  0.44173330253E+02  0.57282034821E+02  0.80077228101E+02  0.00000000000E+00 0.  1.
          5    1    3    3  501    0  0.46367110197E+02  0.12415874373E+02 -0.55696224176E+02  0.73645126328E+02  0.41800000000E+01 0. -1.
         -5    1    3    3    0  501  0.12885500042E+03  0.62711364322E+02  0.57255069106E+02  0.15437597510E+03  0.41800000000E+01 0. -1.
</event>
<event>
11    1  0.1704459E-009  0.2062453E+03  0.7561462E-02  0.1050193E+00
         22   -1    0    0    0    0  0.00000000000E+00  0.00000000000E+00  0.28789863962E+03  0.28789863962E+03  0.00000000000E+00 0.  1.
         22   -1    0    0    0    0 -0.00000000000E+00 -0.00000000000E+00 -0.21769063797E+04  0.21769063797E+04  0.00000000000E+00 0.  1.
         25    2    1    2    0    0 -0.65662061759E+02  0.12486474260E+01 -0.16293960005E+04  0.16355100524E+04  0.12509492266E+03 0.  0.
        -24    2    1    2    0    0 -0.11786116579E+03  0.62320339989E+02 -0.49184362615E+03  0.51602530192E+03  0.81221182361E+02 0.  0.
         24    2    1    2    0    0  0.18352322754E+03 -0.63568987415E+02  0.23223188650E+03  0.31326966504E+03  0.80526037518E+02 0.  0.
        -11    1    5    5    0    0  0.17520254674E+03 -0.34468697682E+02  0.18455190647E+03  0.25679452814E+03  0.00000000000E+00 0.  1.
         12    1    5    5    0    0  0.83206808040E+01 -0.29100289733E+02  0.47679980032E+02  0.56475136896E+02  0.00000000000E+00 0. -1.
         11    1    4    4    0    0 -0.54583649175E+02  0.48873155717E+01 -0.91443291190E+02  0.10660739240E+03  0.00000000000E+00 0. -1.
        -12    1    4    4    0    0 -0.63277516610E+02  0.57433024417E+02 -0.40040033496E+03  0.40941790952E+03  0.00000000000E+00 0.  1.
          5    1    3    3  501    0 -0.59151836456E+02  0.58570579449E+02 -0.93197466968E+03  0.93569423952E+03  0.41800000000E+01 0. -1.
         -5    1    3    3    0  501 -0.65102253025E+01 -0.57321932023E+02 -0.69742133078E+03  0.69981581287E+03  0.41800000000E+01 0. -1.
</event>
<event>
11    1  0.1704459E-009  0.2579514E+03  0.7561462E-02  0.1019747E+00
         22   -1    0    0    0    0  0.00000000000E+00  0.00000000000E+00  0.14428815903E+03  0.14428815903E+03  0.00000000000E+00 0.  1.
         22   -1    0    0    0    0 -0.00000000000E+00 -0.00000000000E+00 -0.79341365812E+03  0.79341365812E+03  0.00000000000E+00 0.  1.
         25    2    1    2    0    0 -0.97177555052E+02  0.20353093578E+03 -0.51142867725E+03  0.57277333313E+03  0.12506670302E+03 0.  0.
         24    2    1    2    0    0  0.64943144127E+02 -0.21845118752E+03 -0.56684368142E+02  0.24549393158E+03  0.71523559422E+02 0.  0.
        -24    2    1    2    0    0  0.32234410925E+02  0.14920251736E+02 -0.81012453702E+02  0.11943455244E+03  0.80249133959E+02 0.  0.
        -13    1    4    4    0    0  0.21314636654E+02 -0.13468974182E+03 -0.20383151941E+01  0.13638106546E+03  0.00000000000E+00 0.  1.
         14    1    4    4    0    0  0.43628507473E+02 -0.83761445705E+02 -0.54646052948E+02  0.10911286612E+03  0.00000000000E+00 0. -1.
         13    1    5    5    0    0 -0.25010140751E+02  0.59319593745E+01 -0.43117018490E+02  0.50197336243E+02  0.00000000000E+00 0. -1.
        -14    1    5    5    0    0  0.57244551676E+02  0.89882923615E+01 -0.37895435212E+02  0.69237216193E+02  0.00000000000E+00 0.  1.
          5    1    3    3  501    0 -0.87446934608E+02  0.12960615995E+03 -0.20772569620E+03  0.26002338420E+03  0.41800000000E+01 0. -1.
         -5    1    3    3    0  501 -0.97306204443E+01  0.73924775830E+02 -0.30370298105E+03  0.31274994893E+03  0.41800000000E+01 0. -1.
</event>
<event>
11    1  0.1704459E-009  0.6744858E+03  0.7561462E-02  0.9070772E-01
         22   -1    0    0    0    0  0.00000000000E+00  0.00000000000E+00  0.11249990093E+04  0.11249990093E+04  0.00000000000E+00 0.  1.
         22   -1    0    0    0    0 -0.00000000000E+00 -0.00000000000E+00 -0.72563462871E+03  0.72563462871E+03  0.00000000000E+00 0.  1.
         25    2    1    2    0    0 -0.30429681535E+03  0.60115355333E+03 -0.25169760173E+03  0.73005477254E+03  0.12508453812E+03 0.  0.
        -24    2    1    2    0    0  0.97342277950E+02 -0.65355893120E+03  0.36811142678E+03  0.76066667869E+03  0.80579016613E+02 0.  0.
         24    2    1    2    0    0  0.20695453740E+03  0.52405377863E+02  0.28295055554E+03  0.35991218678E+03  0.62444064013E+02 0.  0.
        -11    1    5    5    0    0  0.16569423478E+03  0.58143302380E+02  0.25549511388E+03  0.31002092876E+03  0.00000000000E+00 0.  1.
         12    1    5    5    0    0  0.41260302618E+02 -0.57379245171E+01  0.27455441659E+02  0.49891258018E+02  0.00000000000E+00 0. -1.
         11    1    4    4    0    0  0.59794861095E+02 -0.25433397051E+03  0.18320307834E+03  0.31909961122E+03  0.00000000000E+00 0. -1.
        -12    1    4    4    0    0  0.37547416855E+02 -0.39922496069E+03  0.18490834844E+03  0.44156706747E+03  0.00000000000E+00 0.  1.
          5    1    3    3  501    0 -0.21614060028E+03  0.28912084229E+03 -0.13500456953E+03  0.38542356795E+03  0.41800000000E+01 0. -1.
         -5    1    3    3    0  501 -0.88156215071E+02  0.31203271104E+03 -0.11669303220E+03  0.34463120459E+03  0.41800000000E+01 0. -1.
</event>
<event>
11    1  0.1704459E-009  0.6211291E+03  0.7561462E-02  0.9157355E-01
         22   -1    0    0    0    0  0.00000000000E+00  0.00000000000E+00  0.99261083818E+03  0.99261083818E+03  0.00000000000E+00 0. -1.
         22   -1    0    0    0    0 -0.00000000000E+00 -0.00000000000E+00 -0.37371900383E+04  0.37371900383E+04  0.00000000000E+00 0.  1.
         25    2    1    2    0    0 -0.14034582736E+03 -0.97908434716E+02 -0.16754239471E+04  0.16887793835E+04  0.12508953011E+03 0.  0.
         24    2    1    2    0    0 -0.38368364324E+03  0.45548243480E+02 -0.19619518257E+04  0.20012482495E+04  0.80323154166E+02 0.  0.
        -24    2    1    2    0    0  0.52402947059E+03  0.52360191236E+02  0.89279657272E+03  0.10397732435E+04  0.81818103444E+02 0.  0.
        -11    1    4    4    0    0 -0.26380907381E+03  0.64310362253E+02 -0.14402028109E+04  0.14655767419E+04  0.00000000000E+00 0.  1.
         12    1    4    4    0    0 -0.11987456943E+03 -0.18762118772E+02 -0.52174901484E+03  0.53567150753E+03  0.00000000000E+00 0. -1.
         13    1    5    5    0    0  0.41866990269E+03  0.65892382260E+02  0.75451751727E+03  0.86540336106E+03  0.00000000000E+00 0. -1.
        -14    1    5    5    0    0  0.10535956790E+03 -0.13532191024E+02  0.13827905544E+03  0.17436988248E+03  0.00000000000E+00 0.  1.
          5    1    3    3  501    0 -0.16077144517E+03 -0.78327743742E+02 -0.12973123337E+04  0.13095875139E+04  0.41800000000E+01 0.  1.
         -5    1    3    3    0  501  0.20425617815E+02 -0.19580690974E+02 -0.37811161344E+03  0.37919186956E+03  0.41800000000E+01 0.  1.
</event>
<event>
11    1  0.1704459E-009  0.2530511E+03  0.7561462E-02  0.1022286E+00
         22   -1    0    0    0    0  0.00000000000E+00  0.00000000000E+00  0.35425231612E+03  0.35425231612E+03  0.00000000000E+00 0.  1.
         22   -1    0    0    0    0 -0.00000000000E+00 -0.00000000000E+00 -0.19302377236E+04  0.19302377236E+04  0.00000000000E+00 0.  1.
         25    2    1    2    0    0 -0.17792857203E+03  0.13139714663E+03 -0.17585083543E+04  0.17767731484E+04  0.12508957533E+03 0.  0.
         24    2    1    2    0    0  0.13879146795E+03 -0.16251094148E+03 -0.69255884718E+02  0.23854442164E+03  0.80213377024E+02 0.  0.
        -24    2    1    2    0    0  0.39137104079E+02  0.31113794852E+02  0.25177883162E+03  0.26917246958E+03  0.81002822071E+02 0.  0.
        -13    1    4    4    0    0  0.63969232423E+02 -0.12495258664E+03 -0.65061189283E+02  0.15471964955E+03  0.00000000000E+00 0.  1.
         14    1    4    4    0    0  0.74822235523E+02 -0.37558354835E+02 -0.41946954348E+01  0.83824772092E+02  0.00000000000E+00 0. -1.
         11    1    5    5    0    0 -0.18025476224E+02 -0.70671667640E+01  0.21878961518E+02  0.29215605356E+02  0.00000000000E+00 0. -1.
        -12    1    5    5    0    0  0.57162580303E+02  0.38180961616E+02  0.22989987010E+03  0.23995686423E+03  0.00000000000E+00 0.  1.
          5    1    3    3  501    0 -0.17366476762E+03  0.65038415314E+02 -0.11892256395E+04  0.12036048110E+04  0.41800000000E+01 0.  1.
         -5    1    3    3    0  501 -0.42638044044E+01  0.66358731313E+02 -0.56928271481E+03  0.57316833743E+03  0.41800000000E+01 0.  1.
</event>
<event>
11    1  0.1704459E-009  0.3470939E+03  0.7561462E-02  0.9820208E-01
         22   -1    0    0    0    0  0.00000000000E+00  0.00000000000E+00  0.20374791714E+04  0.20374791714E+04  0.00000000000E+00 0. -1.
         22   -1    0    0    0    0 -0.00000000000E+00 -0.00000000000E+00 -0.10149102073E+03  0.10149102073E+03  0.00000000000E+00 0. -1.
         25    2    1    2    0    0 -0.82741398070E+02 -0.25449748211E+03  0.73413593601E+03  0.79133973937E+03  0.12509157933E+03 0.  0.
        -24    2    1    2    0    0  0.64675701865E+02  0.35683743883E+03  0.44595051438E+03  0.58045191924E+03  0.80849645148E+02 0.  0.
         24    2    1    2    0    0  0.18065696205E+02 -0.10233995672E+03  0.75590170026E+03  0.76717853349E+03  0.79847890813E+02 0.  0.
        -13    1    5    5    0    0  0.40586943693E+02 -0.26518613787E+02  0.20665639535E+03  0.21226729050E+03  0.00000000000E+00 0.  1.
         14    1    5    5    0    0 -0.22521247488E+02 -0.75821342932E+02  0.54924530491E+03  0.55491124300E+03  0.00000000000E+00 0. -1.
         11    1    4    4    0    0  0.68843381292E+02  0.22254132944E+03  0.23927401934E+03  0.33394028028E+03  0.00000000000E+00 0. -1.
        -12    1    4    4    0    0 -0.41676794272E+01  0.13429610938E+03  0.20667649503E+03  0.24651163897E+03  0.00000000000E+00 0.  1.
          5    1    3    3  501    0 -0.68736988309E+02 -0.25925576789E+03  0.61155363032E+03  0.66779760549E+03  0.41800000000E+01 0. -1.
         -5    1    3    3    0  501 -0.14004409761E+02  0.47582857769E+01  0.12258230569E+03  0.12354213388E+03  0.41800000000E+01 0. -1.
</event>
<event>
11    1  0.1704459E-009  0.2692191E+03  0.7561462E-02  0.1014131E+00
         22   -1    0    0    0    0  0.00000000000E+00  0.00000000000E+00  0.10909763748E+04  0.10909763748E+04  0.00000000000E+00 0.  1.
         22   -1    0    0    0    0 -0.00000000000E+00 -0.00000000000E+00 -0.13700246649E+04  0.13700246649E+04  0.00000000000E+00 0. -1.
         25    2    1    2    0    0  0.27991858685E+02 -0.23712749534E+03 -0.13286855173E+04  0.13557529397E+04  0.12509131192E+03 0.  0.
        -24    2    1    2    0    0  0.35737191923E+02  0.22462834750E+03  0.66564264267E+03  0.70806710805E+03  0.80894130602E+02 0.  0.
         24    2    1    2    0    0 -0.63729050608E+02  0.12499147844E+02  0.38399458453E+03  0.39718099201E+03  0.77995377238E+02 0.  0.
        -11    1    5    5    0    0 -0.76521158708E+02 -0.79871664040E+01  0.30657854890E+03  0.31608493986E+03  0.00000000000E+00 0.  1.
         12    1    5    5    0    0  0.12792108100E+02  0.20486314248E+02  0.77416035630E+02  0.81096052146E+02  0.00000000000E+00 0. -1.
         13    1    4    4    0    0  0.38288549141E+02  0.15762885427E+03  0.35549742086E+03  0.39075732230E+03  0.00000000000E+00 0. -1.
        -14    1    4    4    0    0 -0.25513572177E+01  0.66999493232E+02  0.31014522181E+03  0.31730978575E+03  0.00000000000E+00 0.  1.
          5    1    3    3  501    0  0.28290064661E+02 -0.16371193356E+03 -0.57635071370E+03  0.59983292885E+03  0.41800000000E+01 0. -1.
         -5    1    3    3    0  501 -0.29820597608E+00 -0.73415561781E+02 -0.75233480363E+03  0.75592001084E+03  0.41800000000E+01 0. -1.
</event>
<event>
11    1  0.1704459E-009  0.1471316E+03  0.7561462E-02  0.1099846E+00
         22   -1    0    0    0    0  0.00000000000E+00  0.00000000000E+00  0.14526353636E+03  0.14526353636E+03  0.00000000000E+00 0. -1.
         22   -1    0    0    0    0 -0.00000000000E+00 -0.00000000000E+00 -0.43893533557E+04  0.43893533557E+04  0.00000000000E+00 0.  1.
         25    2    1    2    0    0 -0.14065861029E+02  0.67572467607E+02 -0.25066333911E+04  0.25107012673E+04  0.12508400818E+03 0.  0.
        -24    2    1    2    0    0 -0.55253261686E+00 -0.85886731933E+02 -0.18665864445E+04  0.18702503946E+04  0.79465387863E+02 0.  0.
         24    2    1    2    0    0  0.14618393646E+02  0.18314264326E+02  0.12913001619E+03  0.15366523025E+03  0.79933298405E+02 0.  0.
        -11    1    5    5    0    0  0.56896917158E-01  0.14189937964E+02 -0.76020768985E+01  0.16098110133E+02  0.00000000000E+00 0.  1.
         12    1    5    5    0    0  0.14561496729E+02  0.41243263627E+01  0.13673209309E+03  0.13756712011E+03  0.00000000000E+00 0. -1.
         11    1    4    4    0    0  0.25845351408E+02 -0.18180751639E+02 -0.24402775345E+03  0.24606516693E+03  0.00000000000E+00 0. -1.
        -12    1    4    4    0    0 -0.26397884024E+02 -0.67705980295E+02 -0.16225586910E+04  0.16241852277E+04  0.00000000000E+00 0.  1.
          5    1    3    3  501    0  0.50241891545E+01  0.56787979510E+02 -0.41175244857E+03  0.41570141736E+03  0.41800000000E+01 0.  1.
         -5    1    3    3    0  501 -0.19090050184E+02  0.10784488097E+02 -0.20948809425E+04  0.20949998499E+04  0.41800000000E+01 0.  1.
</event>
<event>
11    1  0.1704459E-009  0.3501854E+03  0.7561462E-02  0.9809374E-01
         22   -1    0    0    0    0  0.00000000000E+00  0.00000000000E+00  0.78115705781E+02  0.78115705781E+02  0.00000000000E+00 0. -1.
         22   -1    0    0    0    0 -0.00000000000E+00 -0.00000000000E+00 -0.15089655711E+04  0.15089655711E+04  0.00000000000E+00 0. -1.
         25    2    1    2    0    0 -0.17154252265E+02  0.63981938654E+02 -0.28219865033E+03  0.31570843445E+03  0.12509108878E+03 0.  0.
        -24    2    1    2    0    0  0.31756969167E+02 -0.22912321078E+03 -0.10111738183E+04  0.10404938912E+04  0.81541989333E+02 0.  0.
         24    2    1    2    0    0 -0.14602716902E+02  0.16514127213E+03 -0.13747739671E+03  0.23087895123E+03  0.83187597738E+02 0.  0.
        -13    1    5    5    0    0  0.26909185674E+02  0.92172300748E+02 -0.45196214227E+02  0.10612509166E+03  0.00000000000E+00 0.  1.
         14    1    5    5    0    0 -0.41511902576E+02  0.72968971378E+02 -0.92281182480E+02  0.12475385958E+03  0.00000000000E+00 0. -1.
         13    1    4    4    0    0 -0.13921041289E+01 -0.20279634507E+03 -0.82326587568E+03  0.84787675849E+03  0.00000000000E+00 0. -1.
        -14    1    4    4    0    0  0.33149073296E+02 -0.26326865712E+02 -0.18790794258E+03  0.19261713268E+03  0.00000000000E+00 0.  1.
          5    1    3    3  501    0  0.38983268279E+00 -0.27667835537E+02 -0.15716380400E+03  0.15963581923E+03  0.41800000000E+01 0. -1.
         -5    1    3    3    0  501 -0.17544084948E+02  0.91649774192E+02 -0.12503484633E+03  0.15607261522E+03  0.41800000000E+01 0. -1.
</event>
<event>
11    1  0.1704459E-009  0.1286565E+03  0.7561462E-02  0.1120931E+00
         22   -1    0    0    0    0  0.00000000000E+00  0.00000000000E+00  0.18689463066E+03  0.18689463066E+03  0.00000000000E+00 0.  1.
         22   -1    0    0    0    0 -0.00000000000E+00 -0.00000000000E+00 -0.21125520438E+03  0.21125520438E+03  0.00000000000E+00 0.  1.
         25    2    1    2    0    0  0.26277602157E+02  0.54479196108E+00 -0.10809485572E+03  0.16740094075E+03  0.12509103868E+03 0.  0.
        -24    2    1    2    0    0  0.40435592234E+01  0.24626020301E+01 -0.31549071757E+02  0.87593914599E+02  0.81577785984E+02 0.  0.
         24    2    1    2    0    0 -0.30321161381E+02 -0.30073939912E+01  0.11528335376E+03  0.14315497968E+03  0.79212873377E+02 0.  0.
        -13    1    5    5    0    0 -0.14856113261E+02  0.33078262878E+02  0.88468722500E+02  0.95611664755E+02  0.00000000000E+00 0.  1.
         14    1    5    5    0    0 -0.15465048120E+02 -0.36085656870E+02  0.26814631258E+02  0.47543314930E+02  0.00000000000E+00 0. -1.
         11    1    4    4    0    0  0.10043771374E+02 -0.81664489941E+01  0.25850745318E+02  0.28910711961E+02  0.00000000000E+00 0. -1.
        -12    1    4    4    0    0 -0.60002121505E+01  0.10629051024E+02 -0.57399817076E+02  0.58683202638E+02  0.00000000000E+00 0.  1.
          5    1    3    3  501    0 -0.32449319658E+02 -0.42756640252E+02 -0.36166420889E+02  0.64858083782E+02  0.41800000000E+01 0. -1.
         -5    1    3    3    0  501  0.58726921815E+02  0.43301432213E+02 -0.71928434832E+02  0.10254285697E+03  0.41800000000E+01 0. -1.
</event>
<event>
11    1  0.1704459E-009  0.2782313E+03  0.7561462E-02  0.1009850E+00
         22   -1    0    0    0    0  0.00000000000E+00  0.00000000000E+00  0.17618309581E+04  0.17618309581E+04  0.00000000000E+00 0.  1.
         22   -1    0    0    0    0 -0.00000000000E+00 -0.00000000000E+00 -0.19545824452E+03  0.19545824452E+03  0.00000000000E+00 0.  1.
         25    2    1    2    0    0 -0.18404828640E+03 -0.12574622792E+03  0.27751695934E+03  0.37729189527E+03  0.12509047105E+03 0.  0.
        -24    2    1    2    0    0  0.22493895946E+03  0.37057887281E+03  0.24623908270E+03  0.50527588843E+03  0.82120649772E+02 0.  0.
         24    2    1    2    0    0 -0.40890673054E+02 -0.24483264489E+03  0.10426166715E+04  0.10747214189E+04  0.79759221177E+02 0.  0.
        -13    1    5    5    0    0 -0.56322435599E+02 -0.22505480461E+03  0.98369573327E+03  0.10106825305E+04  0.00000000000E+00 0.  1.
         14    1    5    5    0    0  0.15431762544E+02 -0.19777840280E+02  0.58920938223E+02  0.64038888361E+02  0.00000000000E+00 0. -1.
         13    1    4    4    0    0  0.11921695278E+01  0.21176891400E+02 -0.27622065150E+01  0.21389525062E+02  0.00000000000E+00 0. -1.
        -14    1    4    4    0    0  0.22374678993E+03  0.34940198141E+03  0.24900128922E+03  0.48388636336E+03  0.00000000000E+00 0.  1.
          5    1    3    3  501    0 -0.14438350442E+03 -0.10734544594E+03  0.12639384887E+03  0.21991479838E+03  0.41800000000E+01 0.  1.
         -5    1    3    3    0  501 -0.39664781986E+02 -0.18400781975E+02  0.15112311047E+03  0.15737709689E+03  0.41800000000E+01 0.  1.
</event>
<event>
11    1  0.1704459E-009  0.1507389E+03  0.7561462E-02  0.1096126E+00
         22   -1    0    0    0    0  0.00000000000E+00  0.00000000000E+00  0.93139310440E+02  0.93139310440E+02  0.00000000000E+00 0. -1.
         22   -1    0    0    0    0 -0.00000000000E+00 -0.00000000000E+00 -0.97931437173E+03  0.97931437173E+03  0.00000000000E+00 0.  1.
         25    2    1    2    0    0 -0.14143093112E+02  0.99337056404E+02 -0.70831618525E+03  0.72624129552E+03  0.12508686253E+03 0.  0.
        -24    2    1    2    0    0  0.23724552981E+02 -0.59430177979E+02 -0.22224091730E+03  0.24582896803E+03  0.83343000505E+02 0.  0.
         24    2    1    2    0    0 -0.95814598692E+01 -0.39906878425E+02  0.44382041259E+02  0.10038341862E+03  0.80141760823E+02 0.  0.
        -13    1    5    5    0    0 -0.18259207557E+02 -0.11764436884E+02 -0.20037308693E+02  0.29551554536E+02  0.00000000000E+00 0.  1.
         14    1    5    5    0    0  0.86777476874E+01 -0.28142441541E+02  0.64419349952E+02  0.70831864080E+02  0.00000000000E+00 0. -1.
         11    1    4    4    0    0  0.45780743944E+02 -0.25451680454E+02 -0.17930516848E+03  0.18679937901E+03  0.00000000000E+00 0. -1.
        -12    1    4    4    0    0 -0.22056190963E+02 -0.33978497526E+02 -0.42935748823E+02  0.59029589029E+02  0.00000000000E+00 0.  1.
          5    1    3    3  501    0 -0.17467957687E+01  0.94233859465E+02 -0.70567425215E+03  0.71195273306E+03  0.41800000000E+01 0. -1.
         -5    1    3    3    0  501 -0.12396297343E+02  0.51031969389E+01 -0.26419331042E+01  0.14288562466E+02  0.41800000000E+01 0. -1.
</event>
<event>
11    1  0.1704459E-009  0.1790293E+03  0.7561462E-02  0.1070431E+00
         22   -1    0    0    0    0  0.00000000000E+00  0.00000000000E+00  0.47180219280E+03  0.47180219280E+03  0.00000000000E+00 0. -1.
         22   -1    0    0    0    0 -0.00000000000E+00 -0.00000000000E+00 -0.12819517901E+03  0.12819517901E+03  0.00000000000E+00 0. -1.
         25    2    1    2    0    0  0.77769351555E+02 -0.57331759625E+02  0.79589390219E+02  0.17696616736E+03  0.12509017009E+03 0.  0.
         24    2    1    2    0    0  0.80621399114E+02  0.68205686543E+02  0.40641838563E+02  0.13797698723E+03  0.78956090912E+02 0.  0.
        -24    2    1    2    0    0 -0.15839075067E+03 -0.10873926919E+02  0.22337578501E+03  0.28505421721E+03  0.78442929810E+02 0.  0.
        -13    1    4    4    0    0  0.14519981474E+02  0.14238098355E+02 -0.23608400500E+02  0.31159426839E+02  0.00000000000E+00 0.  1.
         14    1    4    4    0    0  0.66101417640E+02  0.53967588188E+02  0.64250239063E+02  0.10681756039E+03  0.00000000000E+00 0. -1.
         13    1    5    5    0    0 -0.15989737321E+03 -0.23661741923E+01  0.22522066127E+03  0.27621932409E+03  0.00000000000E+00 0. -1.
        -14    1    5    5    0    0  0.15066225449E+01 -0.85077527263E+01 -0.18448762606E+01  0.88348931155E+01  0.00000000000E+00 0.  1.
          5    1    3    3  501    0  0.41330263723E+02 -0.95820908157E+02  0.46327219782E+02  0.11425200581E+03  0.41800000000E+01 0. -1.
         -5    1    3    3    0  501  0.36439087832E+02  0.38489148533E+02  0.33262170437E+02  0.62714161551E+02  0.41800000000E+01 0. -1.
</event>
<event>
11    1  0.1704459E-009  0.7043442E+03  0.7561462E-02  0.9025927E-01
         22   -1    0    0    0    0  0.00000000000E+00  0.00000000000E+00  0.17449164354E+04  0.17449164354E+04  0.00000000000E+00 0. -1.
         22   -1    0    0    0    0 -0.00000000000E+00 -0.00000000000E+00 -0.56076425447E+03  0.56076425447E+03  0.00000000000E+00 0. -1.
         25    2    1    2    0    0  0.62188967262E+03 -0.32807237941E+03 -0.13258677969E+03  0.72636420648E+03  0.12508978878E+03 0.  0.
        -24    2    1    2    0    0 -0.53821826468E+03  0.39519770091E+03  0.80064515961E+03  0.10457212189E+04  0.81486641358E+02 0.  0.
         24    2    1    2    0    0 -0.83671407941E+02 -0.67125321492E+02  0.51609380096E+03  0.53359526449E+03  0.82851563705E+02 0.  0.
        -13    1    5    5    0    0 -0.96457699964E+01 -0.40527313194E+02  0.77340475104E+02  0.87846759091E+02  0.00000000000E+00 0.  1.
         14    1    5    5    0    0 -0.74025637944E+02 -0.26598008298E+02  0.43875332586E+03  0.44574850540E+03  0.00000000000E+00 0. -1.
         13    1    4    4    0    0 -0.44315759451E+03  0.35550149557E+03  0.70200389846E+03  0.90309436959E+03  0.00000000000E+00 0. -1.
        -14    1    4    4    0    0 -0.95060670169E+02  0.39696205339E+02  0.98641261147E+02  0.14262684927E+03  0.00000000000E+00 0.  1.
          5    1    3    3  501    0  0.20784558749E+03 -0.14409088179E+03 -0.10034618748E+03  0.27211909193E+03  0.41800000000E+01 0.  1.
         -5    1    3    3    0  501  0.41404408513E+03 -0.18398149763E+03 -0.32240592210E+02  0.45424511454E+03  0.41800000000E+01 0.  1.
</event>
<event>
11    1  0.1704459E-009  0.6642812E+03  0.7561462E-02  0.9086663E-01
         22   -1    0    0    0    0  0.00000000000E+00  0.00000000000E+00  0.33160362329E+04  0.33160362329E+04  0.00000000000E+00 0. -1.
         22   -1    0    0    0    0 -0.00000000000E+00 -0.00000000000E+00 -0.24401886619E+03  0.24401886619E+03  0.00000000000E+00 0. -1.
         25    2    1    2    0    0 -0.97795875510E+02 -0.70998524587E+03  0.55886567086E+03  0.91739642577E+03  0.12506910620E+03 0.  0.
         24    2    1    2    0    0  0.18139312883E+03  0.50778061839E+03  0.13403095334E+04  0.14469904054E+04  0.81283235198E+02 0.  0.
        -24    2    1    2    0    0 -0.83597253317E+02  0.20220462748E+03  0.11728421625E+04  0.11956682680E+04  0.78668016641E+02 0.  0.
        -13    1    4    4    0    0  0.78695961666E+02  0.17975853870E+03  0.39336585555E+03  0.43959399783E+03  0.00000000000E+00 0.  1.
         14    1    4    4    0    0  0.10269716716E+03  0.32802207969E+03  0.94694367787E+03  0.10073964076E+04  0.00000000000E+00 0. -1.
         13    1    5    5    0    0 -0.11426497515E+02  0.67731091609E+02  0.21391646693E+03  0.22467380897E+03  0.00000000000E+00 0. -1.
        -14    1    5    5    0    0 -0.72170755802E+02  0.13447353587E+03  0.95892569555E+03  0.97099445901E+03  0.00000000000E+00 0.  1.
          5    1    3    3  501    0 -0.18717741474E+02 -0.45619015244E+03  0.30004055889E+03  0.54635301629E+03  0.41800000000E+01 0.  1.
         -5    1    3    3    0  501 -0.79078134036E+02 -0.25379509343E+03  0.25882511197E+03  0.37104340947E+03  0.41800000000E+01 0.  1.
</event>
<event>
11    1  0.1704459E-009  0.2596614E+03  0.7561462E-02  0.1018875E+00
         22   -1    0    0    0    0  0.00000000000E+00  0.00000000000E+00  0.12952859542E+03  0.12952859542E+03  0.00000000000E+00 0. -1.
         22   -1    0    0    0    0 -0.00000000000E+00 -0.00000000000E+00 -0.16602847643E+04  0.16602847643E+04  0.00000000000E+00 0. -1.
         25    2    1    2    0    0 -0.86190758768E+02 -0.19324878526E+03 -0.86834861628E+03  0.90246785168E+03  0.12507983062E+03 0.  0.
        -24    2    1    2    0    0  0.30306728981E+03  0.14551286967E+03 -0.46821063374E+03  0.58180094534E+03  0.79040274907E+02 0.  0.
         24    2    1    2    0    0 -0.21687653104E+03  0.47735915585E+02 -0.19419691888E+03  0.30554456271E+03  0.79566884729E+02 0.  0.
        -13    1    5    5    0    0 -0.72827025289E+02 -0.12649571200E+02 -0.32559777486E+02  0.80770826255E+02  0.00000000000E+00 0.  1.
         14    1    5    5    0    0 -0.14404950576E+03  0.60385486785E+02 -0.16163714139E+03  0.22477373646E+03  0.00000000000E+00 0. -1.
         13    1    4    4    0    0  0.25157760729E+03  0.10804119070E+03 -0.42231916944E+03  0.50330673774E+03  0.00000000000E+00 0. -1.
        -14    1    4    4    0    0  0.51489682522E+02  0.37471678969E+02 -0.45891464295E+02  0.78494207596E+02  0.00000000000E+00 0.  1.
          5    1    3    3  501    0 -0.11833317333E+03 -0.15924176037E+03 -0.72113691659E+03  0.74794157728E+03  0.41800000000E+01 0. -1.
         -5    1    3    3    0  501  0.32142414559E+02 -0.34007024891E+02 -0.14721169969E+03  0.15452627440E+03  0.41800000000E+01 0. -1.
</event>
<event>
11    1  0.1704459E-009  0.4248279E+03  0.7561462E-02  0.9579215E-01
         22   -1    0    0    0    0  0.00000000000E+00  0.00000000000E+00  0.69130802769E+03  0.69130802769E+03  0.00000000000E+00 0.  1.
         22   -1    0    0    0    0 -0.00000000000E+00 -0.00000000000E+00 -0.66796830528E+03  0.66796830528E+03  0.00000000000E+00 0. -1.
         25    2    1    2    0    0 -0.11987402983E+03  0.26525812916E+03  0.18728111033E+01  0.31683206372E+03  0.12508953220E+03 0.  0.
        -24    2    1    2    0    0  0.37965195115E+03 -0.37787694800E+03 -0.28937517632E+03  0.61417578874E+03  0.80915480359E+02 0.  0.
         24    2    1    2    0    0 -0.25977792132E+03  0.11261881884E+03  0.31084208763E+03  0.42826848051E+03  0.81385018248E+02 0.  0.
        -13    1    5    5    0    0 -0.21746494638E+03  0.12010990151E+03  0.28520113147E+03  0.37822886819E+03  0.00000000000E+00 0.  1.
         14    1    5    5    0    0 -0.42312974942E+02 -0.74910826694E+01  0.25640956156E+02  0.50039612315E+02  0.00000000000E+00 0. -1.
         11    1    4    4    0    0  0.29926526119E+03 -0.26830101381E+03 -0.24728940933E+03  0.47190802339E+03  0.00000000000E+00 0. -1.
        -12    1    4    4    0    0  0.80386689956E+02 -0.10957593419E+03 -0.42085766988E+02  0.14226776535E+03  0.00000000000E+00 0.  1.
          5    1    3    3  501    0  0.12538410085E+02  0.24005236150E+02  0.29441726013E+02  0.40221271993E+02  0.41800000000E+01 0.  1.
         -5    1    3    3    0  501 -0.13241243991E+03  0.24125289301E+03 -0.27568914910E+02  0.27661079172E+03  0.41800000000E+01 0.  1.
</event>
<event>
11    1  0.1704459E-009  0.1295408E+03  0.7561462E-02  0.1119834E+00
         22   -1    0    0    0    0  0.00000000000E+00  0.00000000000E+00  0.13262175286E+03  0.13262175286E+03  0.00000000000E+00 0.  1.
         22   -1    0    0    0    0 -0.00000000000E+00 -0.00000000000E+00 -0.10879921302E+04  0.10879921302E+04  0.00000000000E+00 0.  1.
         25    2    1    2    0    0 -0.64372630104E+01 -0.14301657751E+02 -0.66120043821E+03  0.67311288110E+03  0.12509578505E+03 0.  0.
        -24    2    1    2    0    0 -0.91858550639E+01  0.52692118959E+02 -0.39702706875E+03  0.40879616458E+03  0.81381641176E+02 0.  0.
         24    2    1    2    0    0  0.15623118074E+02 -0.38390461208E+02  0.10285712958E+03  0.13870483743E+03  0.83315865783E+02 0.  0.
        -13    1    5    5    0    0  0.47642328820E+02 -0.94377807837E+01  0.65990209380E+02  0.81936383466E+02  0.00000000000E+00 0.  1.
         14    1    5    5    0    0 -0.32019210746E+02 -0.28952680424E+02  0.36866920199E+02  0.56768453964E+02  0.00000000000E+00 0. -1.
         13    1    4    4    0    0 -0.25968018935E+02  0.68960803542E+02 -0.31498916498E+03  0.32349359265E+03  0.00000000000E+00 0. -1.
        -14    1    4    4    0    0  0.16782163871E+02 -0.16268684583E+02 -0.82037903774E+02  0.85302571930E+02  0.00000000000E+00 0.  1.
          5    1    3    3  501    0 -0.79659207128E+01 -0.86386803210E+01 -0.66489909174E+03  0.66501605792E+03  0.41800000000E+01 0. -1.
         -5    1    3    3    0  501  0.15286577024E+01 -0.56629774304E+01  0.36986535251E+01  0.80968231824E+01  0.41800000000E+01 0. -1.
</event>
<event>
11    1  0.1704459E-009  0.1871449E+03  0.7561462E-02  0.1064006E+00
         22   -1    0    0    0    0  0.00000000000E+00  0.00000000000E+00  0.46878264812E+03  0.46878264812E+03  0.00000000000E+00 0.  1.
         22   -1    0    0    0    0 -0.00000000000E+00 -0.00000000000E+00 -0.70718341680E+03  0.70718341680E+03  0.00000000000E+00 0. -1.
         25    2    1    2    0    0  0.37913397220E+01  0.15539372122E+03 -0.44547720208E+03  0.48811781926E+03  0.12508990790E+03 0.  0.
         24    2    1    2    0    0 -0.23466544959E+02 -0.12058017462E+03 -0.21297286733E+03  0.25851293863E+03  0.79882663817E+02 0.  0.
        -24    2    1    2    0    0  0.19675205237E+02 -0.34813546604E+02  0.42004930072E+03  0.42933530702E+03  0.79298764741E+02 0.  0.
        -11    1    4    4    0    0 -0.23378851318E+02 -0.22078926382E+00 -0.18527065964E+02  0.29830715883E+02  0.00000000000E+00 0.  1.
         12    1    4    4    0    0 -0.87693641082E-01 -0.12035938535E+03 -0.19444580137E+03  0.22868222275E+03  0.00000000000E+00 0. -1.
         11    1    5    5    0    0  0.48615030075E+01  0.42591156060E+01 -0.71357923743E+00  0.65025743030E+01  0.00000000000E+00 0. -1.
        -12    1    5    5    0    0  0.14813702229E+02 -0.39072662210E+02  0.42076287996E+03  0.42283273272E+03  0.00000000000E+00 0.  1.
          5    1    3    3  501    0  0.61199774890E+02  0.48922404035E+02 -0.17903983293E+03  0.19547774359E+03  0.41800000000E+01 0. -1.
         -5    1    3    3    0  501 -0.57408435168E+02  0.10647131719E+03 -0.26643736914E+03  0.29264007567E+03  0.41800000000E+01 0. -1.
</event>
<event>
11    1  0.1704459E-009  0.1714320E+03  0.7561462E-02  0.1076792E+00
         22   -1    0    0    0    0  0.00000000000E+00  0.00000000000E+00  0.48395888613E+02  0.48395888613E+02  0.00000000000E+00 0.  1.
         22   -1    0    0    0    0 -0.00000000000E+00 -0.00000000000E+00 -0.12047357608E+04  0.12047357608E+04  0.00000000000E+00 0.  1.
         25    2    1    2    0    0 -0.75641340952E+02  0.70995248155E+02 -0.62948340011E+03  0.65012276000E+03  0.12509322258E+03 0.  0.
        -24    2    1    2    0    0  0.61095397245E+02 -0.14749470652E+03 -0.28516096271E+03  0.33657385677E+03  0.80485094233E+02 0.  0.
         24    2    1    2    0    0  0.14545943708E+02  0.76499458369E+02 -0.24169550939E+03  0.26643503266E+03  0.80666943418E+02 0.  0.
        -13    1    5    5    0    0 -0.79039878074E+01  0.63673824324E+02 -0.79358543280E+02  0.10205198341E+03  0.00000000000E+00 0.  1.
         14    1    5    5    0    0  0.22449931515E+02  0.12825634045E+02 -0.16233696611E+03  0.16438304925E+03  0.00000000000E+00 0. -1.
         13    1    4    4    0    0  0.36608863537E+02 -0.13254214690E+02 -0.38917685975E+02  0.55049699165E+02  0.00000000000E+00 0. -1.
        -14    1    4    4    0    0  0.24486533707E+02 -0.13424049183E+03 -0.24624327673E+03  0.28152415761E+03  0.00000000000E+00 0.  1.
          5    1    3    3  501    0 -0.28537389372E+02  0.71660910753E+02 -0.56444880683E+03  0.56971009878E+03  0.41800000000E+01 0.  1.
         -5    1    3    3    0  501 -0.47103951580E+02 -0.66566259878E+00 -0.65034593282E+02  0.80412661220E+02  0.41800000000E+01 0.  1.
</event>
<event>
11    1  0.1704459E-009  0.7221926E+03  0.7561462E-02  0.9000225E-01
         22   -1    0    0    0    0  0.00000000000E+00  0.00000000000E+00  0.50236946336E+03  0.50236946336E+03  0.00000000000E+00 0.  1.
         22   -1    0    0    0    0 -0.00000000000E+00 -0.00000000000E+00 -0.12786025701E+04  0.12786025701E+04  0.00000000000E+00 0.  1.
         25    2    1    2    0    0 -0.10243145065E+03 -0.69836205977E+03 -0.58976717186E+03  0.92826420775E+03  0.12508938310E+03 0.  0.
         24    2    1    2    0    0  0.84996220170E+02  0.71501538839E+03 -0.22284343502E+03  0.75827711517E+03  0.82786616048E+02 0.  0.
        -24    2    1    2    0    0  0.17435230476E+02 -0.16653328612E+02  0.36377500115E+02  0.94430710559E+02  0.83740766454E+02 0.  0.
        -11    1    4    4    0    0  0.53551643976E+01  0.39419110897E+03 -0.11994394674E+03  0.41207021069E+03  0.00000000000E+00 0.  1.
         12    1    4    4    0    0  0.79641055772E+02  0.32082427942E+03 -0.10289948827E+03  0.34620690449E+03  0.00000000000E+00 0. -1.
         13    1    5    5    0    0  0.22233447556E+01  0.31863737719E+02  0.50855071190E-01  0.31941252786E+02  0.00000000000E+00 0. -1.
        -14    1    5    5    0    0  0.15211885721E+02 -0.48517066331E+02  0.36326645044E+02  0.62489457772E+02  0.00000000000E+00 0.  1.
          5    1    3    3  501    0 -0.10935976897E+03 -0.49117656524E+03 -0.47131852382E+03  0.68947269751E+03  0.41800000000E+01 0.  1.
         -5    1    3    3    0  501  0.69283183276E+01 -0.20718549453E+03 -0.11844864804E+03  0.23879151024E+03  0.41800000000E+01 0.  1.
</event>
<event>
11    1  0.1704459E-009  0.4262430E+03  0.7561462E-02  0.9575350E-01
         22   -1    0    0    0    0  0.00000000000E+00  0.00000000000E+00  0.39699765921E+04  0.39699765921E+04  0.00000000000E+00 0. -1.
         22   -1    0    0    0    0 -0.00000000000E+00 -0.00000000000E+00 -0.16676401404E+03  0.16676401404E+03  0.00000000000E+00 0. -1.
         25    2    1    2    0    0 -0.36645325463E+03 -0.17014854780E+03  0.21405594890E+03  0.47403160295E+03  0.12508994841E+03 0.  0.
        -24    2    1    2    0    0  0.31689903369E+03  0.34824872407E+03  0.30487512980E+04  0.30859274326E+04  0.79758829997E+02 0.  0.
         24    2    1    2    0    0  0.49554220933E+02 -0.17810017627E+03  0.54040533119E+03  0.57678157059E+03  0.80397540970E+02 0.  0.
        -13    1    5    5    0    0  0.81528242121E+01 -0.61101726428E+01  0.24398322380E+01  0.10476427526E+02  0.00000000000E+00 0.  1.
         14    1    5    5    0    0  0.41401396721E+02 -0.17199000363E+03  0.53796549895E+03  0.56630514307E+03  0.00000000000E+00 0. -1.
         11    1    4    4    0    0  0.11140186657E+03  0.15651864651E+03  0.10379418085E+04  0.10555717220E+04  0.00000000000E+00 0. -1.
        -12    1    4    4    0    0  0.20549716712E+03  0.19173007757E+03  0.20108094895E+04  0.20303557105E+04  0.00000000000E+00 0.  1.
          5    1    3    3  501    0 -0.19811726475E+02  0.88606839369E+01  0.42334366631E+02  0.47756541163E+02  0.41800000000E+01 0.  1.
         -5    1    3    3    0  501 -0.34664152815E+03 -0.17900923174E+03  0.17172158227E+03  0.42627506179E+03  0.41800000000E+01 0.  1.
</event>
<event>
11    1  0.1704459E-009  0.2023320E+03  0.7561462E-02  0.1052887E+00
         22   -1    0    0    0    0  0.00000000000E+00  0.00000000000E+00  0.66001271101E+02  0.66001271101E+02  0.00000000000E+00 0. -1.
         22   -1    0    0    0    0 -0.00000000000E+00 -0.00000000000E+00 -0.11110420456E+04  0.11110420456E+04  0.00000000000E+00 0. -1.
         25    2    1    2    0    0  0.46868302797E+02  0.12010416480E+03 -0.66616039979E+03  0.68995492518E+03  0.12508585977E+03 0.  0.
         24    2    1    2    0    0 -0.82869616310E+01 -0.16977622154E+03 -0.16628969114E+03  0.25126629385E+03  0.81177890535E+02 0.  0.
        -24    2    1    2    0    0 -0.38581341166E+02  0.49672056744E+02 -0.21259068357E+03  0.23582209768E+03  0.80383020016E+02 0.  0.
        -11    1    4    4    0    0  0.48824342064E+01 -0.48270671014E+02 -0.48164431529E+01  0.48755450655E+02  0.00000000000E+00 0.  1.
         12    1    4    4    0    0 -0.13169395837E+02 -0.12150555053E+03 -0.16147324799E+03  0.20251084320E+03  0.00000000000E+00 0. -1.
         13    1    5    5    0    0  0.76415533287E+01  0.33805333142E+02 -0.27082618865E+02  0.43984794312E+02  0.00000000000E+00 0. -1.
        -14    1    5    5    0    0 -0.46222894495E+02  0.15866723602E+02 -0.18550806470E+03  0.19183730337E+03  0.00000000000E+00 0.  1.
          5    1    3    3  501    0  0.35069444317E+01  0.12203942188E+03 -0.58702165155E+03  0.59959804114E+03  0.41800000000E+01 0.  1.
         -5    1    3    3    0  501  0.43361358366E+02 -0.19352570792E+01 -0.79138748248E+02  0.90356884040E+02  0.41800000000E+01 0.  1.
</event>
<event>
11    1  0.1704459E-009  0.2396263E+03  0.7561462E-02  0.1029575E+00
         22   -1    0    0    0    0  0.00000000000E+00  0.00000000000E+00  0.44163517575E+03  0.44163517575E+03  0.00000000000E+00 0.  1.
         22   -1    0    0    0    0 -0.00000000000E+00 -0.00000000000E+00 -0.27342212039E+03  0.27342212039E+03  0.00000000000E+00 0. -1.
         25    2    1    2    0    0 -0.34721645717E+02  0.38324917145E+01  0.51618015770E+02  0.13975718425E+03  0.12508944929E+03 0.  0.
         24    2    1    2    0    0  0.14220619716E+03  0.18049458978E+03 -0.97861676680E+02  0.26258361285E+03  0.81070009996E+02 0.  0.
        -24    2    1    2    0    0 -0.10748455145E+03 -0.18432708150E+03  0.21445671627E+03  0.31271649904E+03  0.79186639313E+02 0.  0.
        -13    1    4    4    0    0  0.12979501945E+01  0.28420140190E+02  0.83367880807E+01  0.29646097190E+02  0.00000000000E+00 0.  1.
         14    1    4    4    0    0  0.14090824697E+03  0.15207444959E+03 -0.10619846476E+03  0.23293751566E+03  0.00000000000E+00 0. -1.
         11    1    5    5    0    0 -0.16119858882E+00 -0.36571016159E+02  0.86735189054E+01  0.37585836935E+02  0.00000000000E+00 0. -1.
        -12    1    5    5    0    0 -0.10732335286E+03 -0.14775606534E+03  0.20578319736E+03  0.27513066210E+03  0.00000000000E+00 0.  1.
          5    1    3    3  501    0 -0.27772967539E+02 -0.56117870076E+02  0.48265477652E+02  0.79168060483E+02  0.41800000000E+01 0.  1.
         -5    1    3    3    0  501 -0.69486781779E+01  0.59950361790E+02  0.33525381187E+01  0.60589123768E+02  0.41800000000E+01 0.  1.
</event>
<event>
11    1  0.1704459E-009  0.1235908E+04  0.7561462E-02  0.8482205E-01
         22   -1    0    0    0    0  0.00000000000E+00  0.00000000000E+00  0.68585606899E+03  0.68585606899E+03  0.00000000000E+00 0. -1.
         22   -1    0    0    0    0 -0.00000000000E+00 -0.00000000000E+00 -0.55677421252E+03  0.55677421252E+03  0.00000000000E+00 0. -1.
         25    2    1    2    0    0  0.46314327590E+03  0.15552788403E+03 -0.28148966953E+03  0.57755967452E+03  0.12509247319E+03 0.  0.
        -24    2    1    2    0    0 -0.32761868956E+03 -0.12441428461E+03  0.25173657555E+03  0.43904989318E+03  0.81120806602E+02 0.  0.
         24    2    1    2    0    0 -0.13552458635E+03 -0.31113599420E+02  0.15883495045E+03  0.22602071382E+03  0.80757984240E+02 0.  0.
        -11    1    5    5    0    0 -0.85737653805E+02 -0.55668802842E+02  0.81044490964E+02  0.13045370982E+03  0.00000000000E+00 0.  1.
         12    1    5    5    0    0 -0.49786932541E+02  0.24555203422E+02  0.77790459486E+02  0.95567004002E+02  0.00000000000E+00 0. -1.
         13    1    4    4    0    0 -0.14999246499E+03 -0.57447502717E+02  0.16524910699E+03  0.23044570398E+03  0.00000000000E+00 0. -1.
        -14    1    4    4    0    0 -0.17762622456E+03 -0.66966781894E+02  0.86487468563E+02  0.20860418919E+03  0.00000000000E+00 0.  1.
          5    1    3    3  501    0  0.14855612806E+03  0.10454237320E+02 -0.13626802503E+03  0.20190260352E+03  0.41800000000E+01 0.  1.
         -5    1    3    3    0  501  0.31458714784E+03  0.14507364671E+03 -0.14522164450E+03  0.37565707099E+03  0.41800000000E+01 0.  1.
</event>
<event>
11    1  0.1704459E-009  0.1465009E+03  0.7561462E-02  0.1100509E+00
         22   -1    0    0    0    0  0.00000000000E+00  0.00000000000E+00  0.13324214792E+03  0.13324214792E+03  0.00000000000E+00 0.  1.
         22   -1    0    0    0    0 -0.00000000000E+00 -0.00000000000E+00 -0.35680328603E+03  0.35680328603E+03  0.00000000000E+00 0. -1.
         25    2    1    2    0    0  0.54905021662E+02 -0.13255113988E+02 -0.12974997853E+03  0.18887280589E+03  0.12509044897E+03 0.  0.
         24    2    1    2    0    0  0.53567185531E+02  0.87337543523E+02 -0.32373880544E+02  0.13380743430E+03  0.79743786335E+02 0.  0.
        -24    2    1    2    0    0 -0.10847220719E+03 -0.74082429534E+02 -0.61437279037E+02  0.16736519376E+03  0.83559216897E+02 0.  0.
        -13    1    4    4    0    0  0.13437532920E+02 -0.13968910389E+02  0.21552268018E+01  0.19502378086E+02  0.00000000000E+00 0.  1.
         14    1    4    4    0    0  0.40129652610E+02  0.10130645391E+03 -0.34529107346E+02  0.11430505622E+03  0.00000000000E+00 0. -1.
         13    1    5    5    0    0 -0.38367402208E+02 -0.52171559795E+02 -0.67653870421E+02  0.93653485716E+02  0.00000000000E+00 0. -1.
        -14    1    5    5    0    0 -0.70104804984E+02 -0.21910869739E+02  0.62165913841E+01  0.73711708046E+02  0.00000000000E+00 0.  1.
          5    1    3    3  501    0  0.43405035035E+02 -0.51657047150E+02 -0.13221331930E+03  0.14849337287E+03  0.41800000000E+01 0. -1.
         -5    1    3    3    0  501  0.11499986627E+02  0.38401933162E+02  0.24633407666E+01  0.40379433016E+02  0.41800000000E+01 0. -1.
</event>
<event>
11    1  0.1704459E-009  0.3475029E+03  0.7561462E-02  0.9818767E-01
         22   -1    0    0    0    0  0.00000000000E+00  0.00000000000E+00  0.16282503871E+04  0.16282503871E+04  0.00000000000E+00 0. -1.
         22   -1    0    0    0    0 -0.00000000000E+00 -0.00000000000E+00 -0.16996105110E+03  0.16996105110E+03  0.00000000000E+00 0. -1.
         25    2    1    2    0    0  0.21691036984E+03  0.24020197959E+03  0.15547859906E+03  0.38022143236E+03  0.12509054049E+03 0.  0.
        -24    2    1    2    0    0 -0.31092205572E+03 -0.14698868703E+03  0.58268501770E+03  0.68131360580E+03  0.79926220675E+02 0.  0.
         24    2    1    2    0    0  0.94011685880E+02 -0.93213292553E+02  0.72012571926E+03  0.73667640004E+03  0.81142786846E+02 0.  0.
        -13    1    5    5    0    0  0.87567118818E+02 -0.31407085501E+02  0.44503837404E+03  0.45465762908E+03  0.00000000000E+00 0.  1.
         14    1    5    5    0    0  0.64445670619E+01 -0.61806207052E+02  0.27508734522E+03  0.28201877096E+03  0.00000000000E+00 0. -1.
         11    1    4    4    0    0 -0.26981276936E+03 -0.15275078693E+03  0.53246701596E+03  0.61615976540E+03  0.00000000000E+00 0. -1.
        -12    1    4    4    0    0 -0.41109286358E+02  0.57620998919E+01  0.50218001742E+02  0.65153840401E+02  0.00000000000E+00 0.  1.
          5    1    3    3  501    0  0.73768161553E+01  0.20080693530E+02  0.56530716070E+02  0.60587506374E+02  0.41800000000E+01 0. -1.
         -5    1    3    3    0  501  0.20953355368E+03  0.22012128606E+03  0.98947882992E+02  0.31963392599E+03  0.41800000000E+01 0. -1.
</event>
<event>
11    1  0.1704459E-009  0.1644386E+04  0.7561462E-02  0.8230784E-01
         22   -1    0    0    0    0  0.00000000000E+00  0.00000000000E+00  0.54664495706E+03  0.54664495706E+03  0.00000000000E+00 0. -1.
         22   -1    0    0    0    0 -0.00000000000E+00 -0.00000000000E+00 -0.12366372345E+04  0.12366372345E+04  0.00000000000E+00 0. -1.
         25    2    1    2    0    0 -0.51901370677E+02 -0.52300030989E+03 -0.10028026507E+04  0.11390670121E+04  0.12504969182E+03 0.  0.
         24    2    1    2    0    0  0.58966206568E+02  0.27779252131E+03  0.10412128552E+03  0.31258948630E+03  0.78900230882E+02 0.  0.
        -24    2    1    2    0    0 -0.70648358910E+01  0.24520778857E+03  0.20868908774E+03  0.33162569313E+03  0.79042352680E+02 0.  0.
        -11    1    4    4    0    0  0.34181896550E+01  0.40919842120E+02  0.47501612201E+02  0.62789494832E+02  0.00000000000E+00 0.  1.
         12    1    4    4    0    0  0.55548016913E+02  0.23687267919E+03  0.56619673323E+02  0.24979999147E+03  0.00000000000E+00 0. -1.
         13    1    5    5    0    0 -0.22135458411E+02  0.23787652374E+03  0.18293764800E+03  0.30090098392E+03  0.00000000000E+00 0. -1.
        -14    1    5    5    0    0  0.15070622521E+02  0.73312648283E+01  0.25751439745E+02  0.30724709211E+02  0.00000000000E+00 0.  1.
          5    1    3    3  501    0 -0.83354716578E+02 -0.25029395038E+03 -0.44437672033E+03  0.51680094073E+03  0.41800000000E+01 0. -1.
         -5    1    3    3    0  501  0.31453345901E+02 -0.27270635951E+03 -0.55842593041E+03  0.62226607142E+03  0.41800000000E+01 0. -1.
</event>
<event>
11    1  0.1704459E-009  0.4126087E+03  0.7561462E-02  0.9613271E-01
         22   -1    0    0    0    0  0.00000000000E+00  0.00000000000E+00  0.36298936786E+03  0.36298936786E+03  0.00000000000E+00 0.  1.
         22   -1    0    0    0    0 -0.00000000000E+00 -0.00000000000E+00 -0.95848411921E+03  0.95848411921E+03  0.00000000000E+00 0.  1.
         25    2    1    2    0    0  0.16588511222E+03  0.18281762227E+02 -0.36838581823E+03  0.42333150093E+03  0.12509738333E+03 0.  0.
        -24    2    1    2    0    0  0.21104176746E+03  0.24245578601E+03 -0.27495970558E+03  0.43062175133E+03  0.80677241218E+02 0.  0.
         24    2    1    2    0    0 -0.37692687969E+03 -0.26073754823E+03  0.47850772454E+02  0.46752023481E+03  0.78914712474E+02 0.  0.
        -11    1    5    5    0    0 -0.13529779147E+03 -0.11481389442E+03 -0.15830664469E+02  0.17815255448E+03  0.00000000000E+00 0.  1.
         12    1    5    5    0    0 -0.24162908821E+03 -0.14592365381E+03  0.63681436923E+02  0.28936768033E+03  0.00000000000E+00 0. -1.
         13    1    4    4    0    0  0.14100057647E+03  0.21228064129E+03 -0.20373508558E+03  0.32627016156E+03  0.00000000000E+00 0. -1.
        -14    1    4    4    0    0  0.70041190990E+02  0.30175144721E+02 -0.71224619998E+02  0.10435158977E+03  0.00000000000E+00 0.  1.
          5    1    3    3  501    0  0.34242292033E+02 -0.35779971936E+02 -0.18273724418E+03  0.18937558915E+03  0.41800000000E+01 0. -1.
         -5    1    3    3    0  501  0.13164282019E+03  0.54061734163E+02 -0.18564857405E+03  0.23395591178E+03  0.41800000000E+01 0. -1.
</event>
<event>
11    1  0.1704459E-009  0.2070334E+03  0.7561462E-02  0.1049658E+00
         22   -1    0    0    0    0  0.00000000000E+00  0.00000000000E+00  0.38087075200E+03  0.38087075200E+03  0.00000000000E+00 0.  1.
         22   -1    0    0    0    0 -0.00000000000E+00 -0.00000000000E+00 -0.14295233199E+04  0.14295233199E+04  0.00000000000E+00 0.  1.
         25    2    1    2    0    0 -0.37044160418E+02 -0.13581834307E+03 -0.12468244097E+04  0.12609669242E+04  0.12509030056E+03 0.  0.
         24    2    1    2    0    0 -0.10475690477E+03  0.49119911130E+02 -0.11675761057E+03  0.18452917662E+03  0.83856440618E+02 0.  0.
        -24    2    1    2    0    0  0.14180106518E+03  0.86698431943E+02  0.31492945236E+03  0.36489797103E+03  0.79660586941E+02 0.  0.
        -11    1    4    4    0    0 -0.83935358957E+02  0.36527229768E+02 -0.32995388371E+02  0.97304052595E+02  0.00000000000E+00 0.  1.
         12    1    4    4    0    0 -0.20821545808E+02  0.12592681362E+02 -0.83762222196E+02  0.87225124023E+02  0.00000000000E+00 0. -1.
         11    1    5    5    0    0  0.15312540704E+02  0.16776716496E+02  0.12057315236E+03  0.12269399818E+03  0.00000000000E+00 0. -1.
        -12    1    5    5    0    0  0.12648852448E+03  0.69921715448E+02  0.19435629999E+03  0.24220397285E+03  0.00000000000E+00 0.  1.
          5    1    3    3  501    0 -0.19366962048E+02 -0.15810941147E+03 -0.10330150427E+04  0.10452326134E+04  0.41800000000E+01 0.  1.
         -5    1    3    3    0  501 -0.17677198370E+02  0.22291068399E+02 -0.21380936698E+03  0.21573431086E+03  0.41800000000E+01 0.  1.
</event>
<event>
11    1  0.1704459E-009  0.2150481E+03  0.7561462E-02  0.1044365E+00
         22   -1    0    0    0    0  0.00000000000E+00  0.00000000000E+00  0.30401169995E+03  0.30401169995E+03  0.00000000000E+00 0.  1.
         22   -1    0    0    0    0 -0.00000000000E+00 -0.00000000000E+00 -0.18655358653E+04  0.18655358653E+04  0.00000000000E+00 0.  1.
         25    2    1    2    0    0  0.10001018315E+02 -0.19898931997E+03 -0.13976900040E+04  0.14173500342E+04  0.12508797808E+03 0.  0.
        -24    2    1    2    0    0  0.35362339563E+02  0.13764406795E+03 -0.43184931487E+03  0.46193504771E+03  0.81815481708E+02 0.  0.
         24    2    1    2    0    0 -0.45363357878E+02  0.61345252012E+02  0.26801515353E+03  0.29026248337E+03  0.81234921965E+02 0.  0.
        -11    1    5    5    0    0 -0.52607149248E+02  0.76171963352E+02  0.24529686911E+03  0.26218358863E+03  0.00000000000E+00 0.  1.
         12    1    5    5    0    0  0.72437913693E+01 -0.14826711340E+02  0.22718284415E+02  0.28078894731E+02  0.00000000000E+00 0. -1.
         11    1    4    4    0    0 -0.52135906014E+01  0.11362828893E+03 -0.26122752261E+03  0.28491821307E+03  0.00000000000E+00 0. -1.
        -12    1    4    4    0    0  0.40575930165E+02  0.24015779025E+02 -0.17062179226E+03  0.17701683463E+03  0.00000000000E+00 0.  1.
          5    1    3    3  501    0 -0.38693336213E+02 -0.17660078212E+03 -0.10307632709E+04  0.10465062845E+04  0.41800000000E+01 0. -1.
         -5    1    3    3    0  501  0.48694354528E+02 -0.22388537843E+02 -0.36692673308E+03  0.37084374963E+03  0.41800000000E+01 0. -1.
</event>
<event>
11    1  0.1704459E-009  0.1902655E+03  0.7561462E-02  0.1061629E+00
         22   -1    0    0    0    0  0.00000000000E+00  0.00000000000E+00  0.13635299422E+04  0.13635299422E+04  0.00000000000E+00 0.  1.
         22   -1    0    0    0    0 -0.00000000000E+00 -0.00000000000E+00 -0.44239041672E+03  0.44239041672E+03  0.00000000000E+00 0. -1.
         25    2    1    2    0    0  0.11992458500E+03 -0.55510862168E+02 -0.18070513881E+03  0.25645452505E+03  0.12510481335E+03 0.  0.
         24    2    1    2    0    0 -0.13654574453E+03  0.70349787269E+02 -0.18791851956E+03  0.25682581701E+03  0.83977957658E+02 0.  0.
        -24    2    1    2    0    0  0.16621159531E+02 -0.14838925101E+02  0.12897631838E+04  0.12926400168E+04  0.83262753716E+02 0.  0.
        -11    1    4    4    0    0 -0.12121985606E+03  0.71284381506E+02 -0.11314584449E+03  0.18049293248E+03  0.00000000000E+00 0.  1.
         12    1    4    4    0    0 -0.15325888468E+02 -0.93459423674E+00 -0.74772675069E+02  0.76332884530E+02  0.00000000000E+00 0. -1.
         13    1    5    5    0    0  0.23365797212E+02 -0.19486513192E+02  0.16114204298E+03  0.16398915419E+03  0.00000000000E+00 0. -1.
        -14    1    5    5    0    0 -0.67446376811E+01  0.46475880911E+01  0.11286211408E+04  0.11286508627E+04  0.00000000000E+00 0.  1.
          5    1    3    3  501    0  0.10926093357E+02 -0.43441708465E+02 -0.12608120159E+03  0.13386748427E+03  0.41800000000E+01 0. -1.
         -5    1    3    3    0  501  0.10899849164E+03 -0.12069153703E+02 -0.54623937216E+02  0.12258704078E+03  0.41800000000E+01 0. -1.
</event>
<event>
11    1  0.1704459E-009  0.2848776E+03  0.7561462E-02  0.1006803E+00
         22   -1    0    0    0    0  0.00000000000E+00  0.00000000000E+00  0.12529867786E+03  0.12529867786E+03  0.00000000000E+00 0. -1.
         22   -1    0    0    0    0 -0.00000000000E+00 -0.00000000000E+00 -0.15293130436E+04  0.15293130436E+04  0.00000000000E+00 0. -1.
         25    2    1    2    0    0 -0.22464756121E+03  0.10230436776E+03 -0.68685165673E+03  0.74050360237E+03  0.12509067251E+03 0.  0.
        -24    2    1    2    0    0  0.25308208451E+03 -0.79029337468E+02 -0.76641163110E+03  0.81504196289E+03  0.81304583584E+02 0.  0.
         24    2    1    2    0    0 -0.28434523297E+02 -0.23275030293E+02  0.49248922060E+02  0.99066156233E+02  0.77707128607E+02 0.  0.
        -11    1    5    5    0    0 -0.55160170945E+02 -0.12039448055E+02  0.37537599301E+02  0.67798703007E+02  0.00000000000E+00 0.  1.
         12    1    5    5    0    0  0.26725647648E+02 -0.11235582238E+02  0.11711322759E+02  0.31267453225E+02  0.00000000000E+00 0. -1.
         11    1    4    4    0    0  0.23808175821E+03 -0.91377677988E+02 -0.67448340592E+03  0.72108298309E+03  0.00000000000E+00 0. -1.
        -12    1    4    4    0    0  0.15000326296E+02  0.12348340521E+02 -0.91928225173E+02  0.93958979806E+02  0.00000000000E+00 0.  1.
          5    1    3    3  501    0 -0.26403474597E+02 -0.91811467575E+00 -0.11499762714E+02  0.29115345573E+02  0.41800000000E+01 0. -1.
         -5    1    3    3    0  501 -0.19824408661E+03  0.10322248244E+03 -0.67535189402E+03  0.71138825680E+03  0.41800000000E+01 0. -1.
</event>
<event>
11    1  0.1704459E-009  0.2276909E+03  0.7561462E-02  0.1036504E+00
         22   -1    0    0    0    0  0.00000000000E+00  0.00000000000E+00  0.42829070766E+03  0.42829070766E+03  0.00000000000E+00 0. -1.
         22   -1    0    0    0    0 -0.00000000000E+00 -0.00000000000E+00 -0.32535345255E+03  0.32535345255E+03  0.00000000000E+00 0. -1.
         25    2    1    2    0    0  0.32980479920E+02 -0.19489038901E+03 -0.21824334946E+03  0.31991871349E+03  0.12509135811E+03 0.  0.
        -24    2    1    2    0    0  0.30282565042E+02  0.16277405482E+03  0.19099205812E+03  0.26524728971E+03  0.80409774089E+02 0.  0.
         24    2    1    2    0    0 -0.63263044961E+02  0.32116334193E+02  0.13018854646E+03  0.16847815701E+03  0.80013498737E+02 0.  0.
        -11    1    5    5    0    0  0.87287970113E+01 -0.12578868712E+02  0.48182626611E+02  0.50556753678E+02  0.00000000000E+00 0.  1.
         12    1    5    5    0    0 -0.71991841973E+02  0.44695202904E+02  0.82005919845E+02  0.11792140333E+03  0.00000000000E+00 0. -1.
         11    1    4    4    0    0  0.43845674226E+02  0.12992469214E+03  0.10662445650E+03  0.17369986615E+03  0.00000000000E+00 0. -1.
        -12    1    4    4    0    0 -0.13563109185E+02  0.32849362681E+02  0.84367601613E+02  0.91547423564E+02  0.00000000000E+00 0.  1.
          5    1    3    3  501    0 -0.28929667705E+02 -0.11157302320E+01 -0.39064722524E+02  0.48802617484E+02  0.41800000000E+01 0. -1.
         -5    1    3    3    0  501  0.61910147624E+02 -0.19377465878E+03 -0.17917862693E+03  0.27111609601E+03  0.41800000000E+01 0. -1.
</event>
<event>
11    1  0.1704459E-009  0.1383873E+03  0.7561462E-02  0.1109373E+00
         22   -1    0    0    0    0  0.00000000000E+00  0.00000000000E+00  0.36135888656E+02  0.36135888656E+02  0.00000000000E+00 0.  1.
         22   -1    0    0    0    0 -0.00000000000E+00 -0.00000000000E+00 -0.35120110034E+04  0.35120110034E+04  0.00000000000E+00 0. -1.
         25    2    1    2    0    0  0.46100380983E+02 -0.30037926125E+02 -0.18752317322E+04  0.18802044746E+04  0.12508914800E+03 0.  0.
         24    2    1    2    0    0 -0.10009520554E+02 -0.17253666778E+02 -0.15560361353E+04  0.15581819354E+04  0.79275532527E+02 0.  0.
        -24    2    1    2    0    0 -0.36090860429E+02  0.47291592903E+02 -0.44607247328E+02  0.10976048204E+03  0.80737302020E+02 0.  0.
        -13    1    4    4    0    0 -0.19837815839E+02  0.21917917843E+02 -0.29022924981E+03  0.29173095740E+03  0.00000000000E+00 0.  1.
         14    1    4    4    0    0  0.98282952851E+01 -0.39171584621E+02 -0.12658068855E+04  0.12664509780E+04  0.00000000000E+00 0. -1.
         13    1    5    5    0    0  0.20365848165E+02  0.32114375481E+02 -0.32578743492E+02  0.50074698317E+02  0.00000000000E+00 0. -1.
        -14    1    5    5    0    0 -0.56456708594E+02  0.15177217422E+02 -0.12028503836E+02  0.59685783722E+02  0.00000000000E+00 0.  1.
          5    1    3    3  501    0 -0.34077943020E+02 -0.43321719133E+02 -0.75959134689E+03  0.76160000277E+03  0.41800000000E+01 0. -1.
         -5    1    3    3    0  501  0.80178324002E+02  0.13283793008E+02 -0.11156403853E+04  0.11186044718E+04  0.41800000000E+01 0. -1.
</event>
<event>
11    1  0.1704459E-009  0.5219802E+03  0.7561462E-02  0.9345704E-01
         22   -1    0    0    0    0  0.00000000000E+00  0.00000000000E+00  0.26401601255E+04  0.26401601255E+04  0.00000000000E+00 0. -1.
         22   -1    0    0    0    0 -0.00000000000E+00 -0.00000000000E+00 -0.28328197667E+03  0.28328197667E+03  0.00000000000E+00 0.  1.
         25    2    1    2    0    0  0.95226615575E+02 -0.20281775345E+02 -0.14026928591E+03  0.21166674861E+03  0.12509149121E+03 0.  0.
        -24    2    1    2    0    0 -0.50890960636E+03 -0.23100304691E+03  0.12540739011E+04  0.13753387095E+04  0.80646271958E+02 0.  0.
         24    2    1    2    0    0  0.41368299079E+03  0.25128482225E+03  0.12430735336E+04  0.13364366441E+04  0.80953165062E+02 0.  0.
        -11    1    5    5    0    0  0.22644333081E+03  0.92680725063E+02  0.58536552013E+03  0.63444392268E+03  0.00000000000E+00 0.  1.
         12    1    5    5    0    0  0.18723965998E+03  0.15860409719E+03  0.65770801350E+03  0.70199272142E+03  0.00000000000E+00 0. -1.
         11    1    4    4    0    0 -0.30562987298E+03 -0.17789713032E+03  0.74786690650E+03  0.82726169866E+03  0.00000000000E+00 0. -1.
        -12    1    4    4    0    0 -0.20327973338E+03 -0.53105916588E+02  0.50620699460E+03  0.54807701079E+03  0.00000000000E+00 0.  1.
          5    1    3    3  501    0 -0.85604289857E+01 -0.43963224135E+02 -0.72757029253E+02  0.85540070882E+02  0.41800000000E+01 0. -1.
         -5    1    3    3    0  501  0.10378704456E+03  0.23681448790E+02 -0.67512256653E+02  0.12612667772E+03  0.41800000000E+01 0. -1.
</event>
<event>
11    1  0.1704459E-009  0.3618506E+03  0.7561462E-02  0.9769551E-01
         22   -1    0    0    0    0  0.00000000000E+00  0.00000000000E+00  0.59283327401E+03  0.59283327401E+03  0.00000000000E+00 0. -1.
         22   -1    0    0    0    0 -0.00000000000E+00 -0.00000000000E+00 -0.70274334636E+03  0.70274334636E+03  0.00000000000E+00 0. -1.
         25    2    1    2    0    0  0.11037804316E+03  0.19562182685E+01 -0.40119769176E+03  0.43450190100E+03  0.12508067354E+03 0.  0.
         24    2    1    2    0    0 -0.41548442755E+03  0.75016589577E+02  0.18846966607E+02  0.43028086068E+03  0.80818393157E+02 0.  0.
        -24    2    1    2    0    0  0.30510638439E+03 -0.76972807846E+02  0.27244065281E+03  0.43079385869E+03  0.11110679745E+03 0.  0.
        -11    1    4    4    0    0 -0.66125704975E+02 -0.15751281114E+02 -0.73607369407E+01  0.68373183073E+02  0.00000000000E+00 0.  1.
         12    1    4    4    0    0 -0.34935872258E+03  0.90767870691E+02  0.26207703548E+02  0.36190767761E+03  0.00000000000E+00 0. -1.
         13    1    5    5    0    0  0.98349299723E+02 -0.80105410374E+02  0.99002745722E+02  0.16090682145E+03  0.00000000000E+00 0. -1.
        -14    1    5    5    0    0  0.20675708467E+03  0.31326025277E+01  0.17343790709E+03  0.26988703725E+03  0.00000000000E+00 0.  1.
          5    1    3    3  501    0  0.32120486754E+02  0.38725047261E+02 -0.28590445183E+03  0.29032771644E+03  0.41800000000E+01 0.  1.
         -5    1    3    3    0  501  0.78257556406E+02 -0.36768828993E+02 -0.11529323994E+03  0.14417418456E+03  0.41800000000E+01 0.  1.
</event>
<event>
11    1  0.1704459E-009  0.3075361E+03  0.7561462E-02  0.9970513E-01
         22   -1    0    0    0    0  0.00000000000E+00  0.00000000000E+00  0.51604703195E+03  0.51604703195E+03  0.00000000000E+00 0.  1.
         22   -1    0    0    0    0 -0.00000000000E+00 -0.00000000000E+00 -0.18747692540E+04  0.18747692540E+04  0.00000000000E+00 0. -1.
         25    2    1    2    0    0 -0.90517683716E+02  0.30890247950E+03 -0.11833318098E+04  0.12326958686E+04  0.12510291476E+03 0.  0.
         24    2    1    2    0    0  0.75391411547E+02 -0.22859111251E+03 -0.63560712160E+03  0.68420467234E+03  0.78751882255E+02 0.  0.
        -24    2    1    2    0    0  0.15126272169E+02 -0.80311366985E+02  0.46021670936E+03  0.47391574508E+03  0.78217607286E+02 0.  0.
        -11    1    4    4    0    0  0.37753707783E+02 -0.34853980013E+02 -0.85329523554E+02  0.99605571953E+02  0.00000000000E+00 0.  1.
         12    1    4    4    0    0  0.37637703764E+02 -0.19373713250E+03 -0.55027759805E+03  0.58459910039E+03  0.00000000000E+00 0. -1.
         13    1    5    5    0    0  0.16988778260E+02  0.10714719130E+02  0.53828031210E+02  0.57453291783E+02  0.00000000000E+00 0. -1.
        -14    1    5    5    0    0 -0.18625060907E+01 -0.91026086116E+02  0.40638867815E+03  0.41646245330E+03  0.00000000000E+00 0.  1.
          5    1    3    3  501    0 -0.66370286907E+02  0.52039847648E+02 -0.22813089894E+03  0.24325776489E+03  0.41800000000E+01 0. -1.
         -5    1    3    3    0  501 -0.24147396809E+02  0.25686263185E+03 -0.95520091091E+03  0.98943810368E+03  0.41800000000E+01 0. -1.
</event>
<event>
11    1  0.1704459E-009  0.3304220E+03  0.7561462E-02  0.9880792E-01
         22   -1    0    0    0    0  0.00000000000E+00  0.00000000000E+00  0.91607907149E+03  0.91607907149E+03  0.00000000000E+00 0. -1.
         22   -1    0    0    0    0 -0.00000000000E+00 -0.00000000000E+00 -0.24791391936E+03  0.24791391936E+03  0.00000000000E+00 0. -1.
         25    2    1    2    0    0 -0.40665591954E+02  0.10149590416E+01 -0.44971624947E+02  0.13900904605E+03  0.12508536015E+03 0.  0.
         24    2    1    2    0    0 -0.65059364762E+02 -0.30259096778E+03  0.11443733648E+03  0.33962913963E+03  0.80361892614E+02 0.  0.
        -24    2    1    2    0    0  0.10572495672E+03  0.30157600874E+03  0.59869944060E+03  0.68535480516E+03  0.95626007246E+02 0.  0.
        -13    1    4    4    0    0 -0.48455709158E+02 -0.87433473227E+02  0.61735489638E+02  0.11748973858E+03  0.00000000000E+00 0.  1.
         14    1    4    4    0    0 -0.16603655604E+02 -0.21515749455E+03  0.52701846840E+02  0.22213940105E+03  0.00000000000E+00 0. -1.
         11    1    5    5    0    0  0.64136429610E+02  0.26728758189E+03  0.53817646043E+03  0.60430955279E+03  0.00000000000E+00 0. -1.
        -12    1    5    5    0    0  0.41588527107E+02  0.34288426844E+02  0.60522980172E+02  0.81045252367E+02  0.00000000000E+00 0.  1.
          5    1    3    3  501    0 -0.49143973143E+02 -0.39721722057E+02  0.15771716164E+02  0.65262276471E+02  0.41800000000E+01 0. -1.
         -5    1    3    3    0  501  0.84783811888E+01  0.40736681098E+02 -0.60743341111E+02  0.73746769582E+02  0.41800000000E+01 0. -1.
</event>
<event>
11    1  0.1704459E-009  0.3253569E+03  0.7561462E-02  0.9899962E-01
         22   -1    0    0    0    0  0.00000000000E+00  0.00000000000E+00  0.21723507963E+04  0.21723507963E+04  0.00000000000E+00 0. -1.
         22   -1    0    0    0    0 -0.00000000000E+00 -0.00000000000E+00 -0.95230203627E+02  0.95230203627E+02  0.00000000000E+00 0.  1.
         25    2    1    2    0    0 -0.27794253192E+03 -0.12405069829E+03  0.30311342410E+03  0.44739930281E+03  0.12509101282E+03 0.  0.
        -24    2    1    2    0    0  0.28590808102E+03  0.58793509462E+02  0.12721375010E+04  0.13076742838E+04  0.80486666566E+02 0.  0.
         24    2    1    2    0    0 -0.79655490994E+01  0.65257188826E+02  0.50186966756E+03  0.51250741331E+03  0.80428445327E+02 0.  0.
        -13    1    5    5    0    0  0.13599358912E+02 -0.98764847923E+01  0.31659098583E+02  0.35843912144E+02  0.00000000000E+00 0.  1.
         14    1    5    5    0    0 -0.21564908012E+02  0.75133673618E+02  0.47021056898E+03  0.47666350117E+03  0.00000000000E+00 0. -1.
         13    1    4    4    0    0  0.28397391981E+03  0.69046922831E+02  0.12216705652E+04  0.12561399741E+04  0.00000000000E+00 0. -1.
        -14    1    4    4    0    0  0.19341612128E+01 -0.10253413368E+02  0.50466935879E+02  0.51534309758E+02  0.00000000000E+00 0.  1.
          5    1    3    3  501    0 -0.37711759832E+02 -0.12984284282E+02  0.11737704441E+03  0.12403874968E+03  0.41800000000E+01 0.  1.
         -5    1    3    3    0  501 -0.24023077209E+03 -0.11106641401E+03  0.18573637968E+03  0.32336055312E+03  0.41800000000E+01 0.  1.
</event>
<event>
11    1  0.1704459E-009  0.1983816E+03  0.7561462E-02  0.1055674E+00
         22   -1    0    0    0    0  0.00000000000E+00  0.00000000000E+00  0.23962674017E+03  0.23962674017E+03  0.00000000000E+00 0.  1.
         22   -1    0    0    0    0 -0.00000000000E+00 -0.00000000000E+00 -0.74439325103E+03  0.74439325103E+03  0.00000000000E+00 0.  1.
         25    2    1    2    0    0  0.15073097940E+03  0.29474588589E+02 -0.65070814026E+03  0.68018898633E+03  0.12508954315E+03 0.  0.
         24    2    1    2    0    0 -0.15678109770E+03 -0.24454010500E+02  0.12933110361E+03  0.22001803443E+03  0.80641737885E+02 0.  0.
        -24    2    1    2    0    0  0.60501182992E+01 -0.50205780887E+01  0.16610525784E+02  0.83812970432E+02  0.81773432788E+02 0.  0.
        -11    1    4    4    0    0 -0.12353232895E+03 -0.40813651050E+02  0.64187062259E+02  0.14507229015E+03  0.00000000000E+00 0.  1.
         12    1    4    4    0    0 -0.33248768746E+02  0.16359640550E+02  0.65144041355E+02  0.74945744283E+02  0.00000000000E+00 0. -1.
         11    1    5    5    0    0 -0.32714711598E+02  0.16723316083E+02  0.11674101289E+01  0.36759821846E+02  0.00000000000E+00 0. -1.
        -12    1    5    5    0    0  0.38764829897E+02 -0.21743894172E+02  0.15443115655E+02  0.47053148586E+02  0.00000000000E+00 0.  1.
          5    1    3    3  501    0  0.46235765297E+02  0.71359178148E+02 -0.26184472766E+03  0.27533618015E+03  0.41800000000E+01 0. -1.
         -5    1    3    3    0  501  0.10449521410E+03 -0.41884589560E+02 -0.38886341260E+03  0.40485280618E+03  0.41800000000E+01 0. -1.
</event>
<event>
11    1  0.1704459E-009  0.1561088E+03  0.7561462E-02  0.1090795E+00
         22   -1    0    0    0    0  0.00000000000E+00  0.00000000000E+00  0.68442193313E+02  0.68442193313E+02  0.00000000000E+00 0.  1.
         22   -1    0    0    0    0 -0.00000000000E+00 -0.00000000000E+00 -0.10827696416E+04  0.10827696416E+04  0.00000000000E+00 0.  1.
         25    2    1    2    0    0 -0.17517884344E+02 -0.14784980124E+03 -0.67450183655E+03  0.70197363611E+03  0.12509123985E+03 0.  0.
        -24    2    1    2    0    0 -0.99319895229E+00  0.62291581779E+02 -0.31335913431E+03  0.32897188554E+03  0.78404890257E+02 0.  0.
         24    2    1    2    0    0  0.18511083297E+02  0.85558219458E+02 -0.26466477465E+02  0.12026631330E+03  0.78106610242E+02 0.  0.
        -13    1    5    5    0    0  0.38247649073E+02  0.85453948057E+02 -0.92556237638E+01  0.94079362612E+02  0.00000000000E+00 0.  1.
         14    1    5    5    0    0 -0.19736565777E+02  0.10427140140E+00 -0.17210853701E+02  0.26186950688E+02  0.00000000000E+00 0. -1.
         11    1    4    4    0    0  0.14890429796E+02 -0.90324324023E+01 -0.19415424115E+02  0.26081955989E+02  0.00000000000E+00 0. -1.
        -12    1    4    4    0    0 -0.15883628749E+02  0.71324014182E+02 -0.29394371019E+03  0.30288992955E+03  0.00000000000E+00 0.  1.
          5    1    3    3  501    0  0.87809157065E+01  0.20845805746E+02 -0.10078420346E+03  0.10337591675E+03  0.41800000000E+01 0. -1.
         -5    1    3    3    0  501 -0.26298800051E+02 -0.16869560698E+03 -0.57371763309E+03  0.59859771936E+03  0.41800000000E+01 0. -1.
</event>
<event>
11    1  0.1704459E-009  0.9091142E+03  0.7561462E-02  0.8770615E-01
         22   -1    0    0    0    0  0.00000000000E+00  0.00000000000E+00  0.29893511348E+04  0.29893511348E+04  0.00000000000E+00 0. -1.
         22   -1    0    0    0    0 -0.00000000000E+00 -0.00000000000E+00 -0.13585380500E+04  0.13585380500E+04  0.00000000000E+00 0. -1.
         25    2    1    2    0    0  0.68306855528E+03 -0.58233000933E+03 -0.10183565454E+04  0.13632270546E+04  0.12508819986E+03 0.  0.
        -24    2    1    2    0    0 -0.56527175061E+03  0.75712254238E+03  0.12580640478E+04  0.15754050664E+04  0.80057970068E+02 0.  0.
         24    2    1    2    0    0 -0.11779680467E+03 -0.17479253305E+03  0.13911055824E+04  0.14092570638E+04  0.80013834983E+02 0.  0.
        -11    1    5    5    0    0 -0.60689478590E+02 -0.32796349918E+02  0.55363947816E+03  0.55792067998E+03  0.00000000000E+00 0.  1.
         12    1    5    5    0    0 -0.57107326083E+02 -0.14199618313E+03  0.83746610423E+03  0.85133638384E+03  0.00000000000E+00 0. -1.
         13    1    4    4    0    0 -0.37210069086E+03  0.48154692804E+03  0.87035071012E+03  0.10620059918E+04  0.00000000000E+00 0. -1.
        -14    1    4    4    0    0 -0.19317105975E+03  0.27557561434E+03  0.38771333768E+03  0.51339907456E+03  0.00000000000E+00 0.  1.
          5    1    3    3  501    0  0.62690285822E+03 -0.57227070072E+03 -0.96131912731E+03  0.12824402074E+04  0.41800000000E+01 0. -1.
         -5    1    3    3    0  501  0.56165697069E+02 -0.10059308605E+02 -0.57037418106E+02  0.80786847203E+02  0.41800000000E+01 0. -1.
</event>
<event>
11    1  0.1704459E-009  0.6597110E+03  0.7561462E-02  0.9093878E-01
         22   -1    0    0    0    0  0.00000000000E+00  0.00000000000E+00  0.18798465649E+04  0.18798465649E+04  0.00000000000E+00 0. -1.
         22   -1    0    0    0    0 -0.00000000000E+00 -0.00000000000E+00 -0.85522478200E+03  0.85522478200E+03  0.00000000000E+00 0. -1.
         25    2    1    2    0    0 -0.44948349549E+02  0.68580186193E+03 -0.43880591804E+03  0.82494991369E+03  0.12508868230E+03 0.  0.
         24    2    1    2    0    0  0.18807318554E+03 -0.54892753578E+03  0.18555004644E+03  0.61442183892E+03  0.79952571914E+02 0.  0.
        -24    2    1    2    0    0 -0.14312483599E+03 -0.13687432615E+03  0.12778776545E+04  0.12956995942E+04  0.81528147880E+02 0.  0.
        -13    1    4    4    0    0  0.32757302203E+01  0.25266062752E+01  0.11259513123E+01  0.42874134515E+01  0.00000000000E+00 0.  1.
         14    1    4    4    0    0  0.18479745532E+03 -0.55145414206E+03  0.18442409512E+03  0.61013442547E+03  0.00000000000E+00 0. -1.
         13    1    5    5    0    0 -0.11262660331E+03 -0.86127761585E+02  0.66373776697E+03  0.67871243277E+03  0.00000000000E+00 0. -1.
        -14    1    5    5    0    0 -0.30498232681E+02 -0.50746564562E+02  0.61413988749E+03  0.61698716147E+03  0.00000000000E+00 0.  1.
          5    1    3    3  501    0 -0.17252083412E+02  0.19608714680E+03 -0.62022729300E+02  0.20642697225E+03  0.41800000000E+01 0.  1.
         -5    1    3    3    0  501 -0.27696266136E+02  0.48971471513E+03 -0.37678318874E+03  0.61852294144E+03  0.41800000000E+01 0. -1.
</event>
<event>
11    1  0.1704459E-009  0.1546705E+03  0.7561462E-02  0.1092200E+00
         22   -1    0    0    0    0  0.00000000000E+00  0.00000000000E+00  0.46984478247E+02  0.46984478247E+02  0.00000000000E+00 0.  1.
         22   -1    0    0    0    0 -0.00000000000E+00 -0.00000000000E+00 -0.95356015540E+03  0.95356015540E+03  0.00000000000E+00 0. -1.
         25    2    1    2    0    0  0.54656734884E+02  0.35293516975E+01 -0.34754795774E+03  0.37341184171E+03  0.12508799146E+03 0.  0.
        -24    2    1    2    0    0  0.24326296552E+02  0.94736136158E+02 -0.32958981353E+03  0.35308020980E+03  0.80433109894E+02 0.  0.
         24    2    1    2    0    0 -0.78983031436E+02 -0.98265487855E+02 -0.22943790589E+03  0.27405258215E+03  0.81047145329E+02 0.  0.
        -13    1    5    5    0    0 -0.45563500802E+02 -0.10636252858E+02 -0.35852278595E+02  0.58945299733E+02  0.00000000000E+00 0.  1.
         14    1    5    5    0    0 -0.33419530635E+02 -0.87629234997E+02 -0.19358562729E+03  0.21510728241E+03  0.00000000000E+00 0. -1.
         11    1    4    4    0    0  0.80778568818E+01  0.75355456370E+02 -0.31477458259E+03  0.32376956994E+03  0.00000000000E+00 0. -1.
        -12    1    4    4    0    0  0.16248439670E+02  0.19380679788E+02 -0.14815230945E+02  0.29310639855E+02  0.00000000000E+00 0.  1.
          5    1    3    3  501    0 -0.33263359944E+01  0.31839063081E+02 -0.27226497176E+03  0.27417235035E+03  0.41800000000E+01 0. -1.
         -5    1    3    3    0  501  0.57983070879E+02 -0.28309711383E+02 -0.75282985980E+02  0.99239491359E+02  0.41800000000E+01 0. -1.
</event>
<event>
11    1  0.1704459E-009  0.2133706E+04  0.7561462E-02  0.8014283E-01
         22   -1    0    0    0    0  0.00000000000E+00  0.00000000000E+00  0.58959142879E+03  0.58959142879E+03  0.00000000000E+00 0. -1.
         22   -1    0    0    0    0 -0.00000000000E+00 -0.00000000000E+00 -0.19304466779E+04  0.19304466779E+04  0.00000000000E+00 0. -1.
         25    2    1    2    0    0  0.30529024933E+02 -0.17036408895E+03 -0.18969432255E+04  0.19089256828E+04  0.12509083800E+03 0.  0.
         24    2    1    2    0    0 -0.33784827880E+02  0.68363435998E+02  0.16496162441E+03  0.19892823104E+03  0.80901975279E+02 0.  0.
        -24    2    1    2    0    0  0.32558029471E+01  0.10200065295E+03  0.39112635199E+03  0.41218419278E+03  0.80630342295E+02 0.  0.
        -13    1    4    4    0    0 -0.54595918248E+02  0.70463099712E+02  0.14370529463E+03  0.16910639969E+03  0.00000000000E+00 0.  1.
         14    1    4    4    0    0  0.20811090368E+02 -0.20996637145E+01  0.21256329775E+02  0.29821831358E+02  0.00000000000E+00 0. -1.
         11    1    5    5    0    0 -0.51447126286E+01  0.49973979782E+02  0.31857767995E+03  0.32251450337E+03  0.00000000000E+00 0. -1.
        -12    1    5    5    0    0  0.84005155757E+01  0.52026673170E+02  0.72548672040E+02  0.89669689404E+02  0.00000000000E+00 0.  1.
          5    1    3    3  501    0  0.70327793122E+02 -0.13943766577E+03 -0.11959858929E+04  0.12061461725E+04  0.41800000000E+01 0. -1.
         -5    1    3    3    0  501 -0.39798768188E+02 -0.30926423177E+02 -0.70095733257E+03  0.70277951029E+03  0.41800000000E+01 0. -1.
</event>
<event>
11    1  0.1704459E-009  0.2771891E+03  0.7561462E-02  0.1010336E+00
         22   -1    0    0    0    0  0.00000000000E+00  0.00000000000E+00  0.63496392030E+03  0.63496392030E+03  0.00000000000E+00 0.  1.
         22   -1    0    0    0    0 -0.00000000000E+00 -0.00000000000E+00 -0.10414986509E+04  0.10414986509E+04  0.00000000000E+00 0. -1.
         25    2    1    2    0    0  0.10385335856E+03  0.24585599995E+03 -0.60647689146E+03  0.67430952327E+03  0.12509364691E+03 0.  0.
         24    2    1    2    0    0 -0.26243401868E+03 -0.85966606083E+02 -0.32040261027E+03  0.43046052319E+03  0.79853352087E+02 0.  0.
        -24    2    1    2    0    0  0.15858066012E+03 -0.15988939387E+03  0.52034477110E+03  0.57169252476E+03  0.73220338850E+02 0.  0.
        -11    1    4    4    0    0 -0.12959858862E+03 -0.67191642859E+02 -0.11836390149E+03  0.18793755404E+03  0.00000000000E+00 0.  1.
         12    1    4    4    0    0 -0.13283543007E+03 -0.18774963223E+02 -0.20203870877E+03  0.24252296916E+03  0.00000000000E+00 0. -1.
         13    1    5    5    0    0  0.64541762446E+02 -0.11066711916E+03  0.32565973026E+03  0.34995301153E+03  0.00000000000E+00 0. -1.
        -14    1    5    5    0    0  0.94038897676E+02 -0.49222274716E+02  0.19468504083E+03  0.22173951323E+03  0.00000000000E+00 0.  1.
          5    1    3    3  501    0  0.13037808045E+03  0.17801111821E+03 -0.42949458611E+03  0.48287625120E+03  0.41800000000E+01 0.  1.
         -5    1    3    3    0  501 -0.26524721890E+02  0.67844881743E+02 -0.17698230535E+03  0.19143327207E+03  0.41800000000E+01 0.  1.
</event>
<event>
11    1  0.1704459E-009  0.2443155E+03  0.7561462E-02  0.1026972E+00
         22   -1    0    0    0    0  0.00000000000E+00  0.00000000000E+00  0.11943671956E+04  0.11943671956E+04  0.00000000000E+00 0.  1.
         22   -1    0    0    0    0 -0.00000000000E+00 -0.00000000000E+00 -0.14705685040E+03  0.14705685040E+03  0.00000000000E+00 0. -1.
         25    2    1    2    0    0  0.31015112850E+00  0.22575004384E+03  0.15500564894E+03  0.30105986252E+03  0.12508841327E+03 0.  0.
         24    2    1    2    0    0  0.13372976300E+03 -0.17253852167E+03  0.14271278375E+03  0.27283863377E+03  0.80129835018E+02 0.  0.
        -24    2    1    2    0    0 -0.13403991413E+03 -0.53211522170E+02  0.74959191251E+03  0.76752554970E+03  0.80057913216E+02 0.  0.
        -11    1    4    4    0    0  0.95577599894E+01 -0.67337305607E+02  0.27120555523E+02  0.73220134077E+02  0.00000000000E+00 0.  1.
         12    1    4    4    0    0  0.12417200301E+03 -0.10520121606E+03  0.11559222823E+03  0.19961849969E+03  0.00000000000E+00 0. -1.
         13    1    5    5    0    0 -0.51430827948E+01  0.17281410417E+02  0.80620792513E+02  0.82612412095E+02  0.00000000000E+00 0. -1.
        -14    1    5    5    0    0 -0.12889683134E+03 -0.70492932588E+02  0.66897112000E+03  0.68491313760E+03  0.00000000000E+00 0.  1.
          5    1    3    3  501    0  0.38392311048E+02  0.95604692476E+02  0.12513503077E+03  0.16214337821E+03  0.41800000000E+01 0.  1.
         -5    1    3    3    0  501 -0.38082159919E+02  0.13014535136E+03  0.29870618167E+02  0.13891648431E+03  0.41800000000E+01 0.  1.
</event>
<event>
11    1  0.1704459E-009  0.2772282E+03  0.7561462E-02  0.1010317E+00
         22   -1    0    0    0    0  0.00000000000E+00  0.00000000000E+00  0.60808547321E+03  0.60808547321E+03  0.00000000000E+00 0. -1.
         22   -1    0    0    0    0 -0.00000000000E+00 -0.00000000000E+00 -0.10503036550E+04  0.10503036550E+04  0.00000000000E+00 0.  1.
         25    2    1    2    0    0  0.62306333855E+02  0.24279178635E+03 -0.94821903238E+03  0.98873521982E+03  0.12509224914E+03 0.  0.
         24    2    1    2    0    0  0.94412115976E+02 -0.10648400018E+03  0.64584753283E+02  0.17516771080E+03  0.79120456346E+02 0.  0.
        -24    2    1    2    0    0 -0.15671844983E+03 -0.13630778616E+03  0.44141609728E+03  0.49448619761E+03  0.80795690540E+02 0.  0.
        -13    1    4    4    0    0  0.36121209982E+02  0.39012475155E+01  0.25405724879E+02  0.44332971921E+02  0.00000000000E+00 0.  1.
         14    1    4    4    0    0  0.58290905994E+02 -0.11038524770E+03  0.39179028404E+02  0.13083473888E+03  0.00000000000E+00 0. -1.
         11    1    5    5    0    0 -0.15894289812E+03 -0.12244076036E+03  0.36240498195E+03  0.41423659375E+03  0.00000000000E+00 0. -1.
        -12    1    5    5    0    0  0.22244482908E+01 -0.13867025804E+02  0.79011115332E+02  0.80249603867E+02  0.00000000000E+00 0.  1.
          5    1    3    3  501    0  0.38418292887E+02  0.67827665657E+02 -0.51511034948E+03  0.52099203641E+03  0.41800000000E+01 0.  1.
         -5    1    3    3    0  501  0.23888040968E+02  0.17496412069E+03 -0.43310868289E+03  0.46774318341E+03  0.41800000000E+01 0.  1.
</event>
<event>
11    1  0.1704459E-009  0.4389762E+03  0.7561462E-02  0.9541277E-01
         22   -1    0    0    0    0  0.00000000000E+00  0.00000000000E+00  0.30239533582E+03  0.30239533582E+03  0.00000000000E+00 0. -1.
         22   -1    0    0    0    0 -0.00000000000E+00 -0.00000000000E+00 -0.54632660798E+03  0.54632660798E+03  0.00000000000E+00 0. -1.
         25    2    1    2    0    0  0.15114904696E+03 -0.42654316728E+02 -0.59422394182E+02  0.20939127339E+03  0.12509300264E+03 0.  0.
        -24    2    1    2    0    0  0.19956131237E+03  0.92693278119E+02 -0.14247559927E+03  0.27378868171E+03  0.79020153387E+02 0.  0.
         24    2    1    2    0    0 -0.35071035933E+03 -0.50038961391E+02 -0.42033278705E+02  0.36554198870E+03  0.79702541885E+02 0.  0.
        -13    1    5    5    0    0 -0.28198957306E+02  0.16258182317E+02 -0.12854884160E+02  0.34996538860E+02  0.00000000000E+00 0.  1.
         14    1    5    5    0    0 -0.32251140203E+03 -0.66297143708E+02 -0.29178394545E+02  0.33054544984E+03  0.00000000000E+00 0. -1.
         13    1    4    4    0    0  0.14341907642E+03  0.24943329843E+02 -0.94727535451E+02  0.17367932277E+03  0.00000000000E+00 0. -1.
        -14    1    4    4    0    0  0.56142235949E+02  0.67749948276E+02 -0.47748063817E+02  0.10010935894E+03  0.00000000000E+00 0.  1.
          5    1    3    3  501    0  0.10799668160E+03  0.33003402700E+02 -0.41399483907E+02  0.12034906519E+03  0.41800000000E+01 0.  1.
         -5    1    3    3    0  501  0.43152365367E+02 -0.75657719428E+02 -0.18022910275E+02  0.89042208197E+02  0.41800000000E+01 0.  1.
</event>
<event>
11    1  0.1704459E-009  0.2460998E+03  0.7561462E-02  0.1025998E+00
         22   -1    0    0    0    0  0.00000000000E+00  0.00000000000E+00  0.46255641844E+03  0.46255641844E+03  0.00000000000E+00 0.  1.
         22   -1    0    0    0    0 -0.00000000000E+00 -0.00000000000E+00 -0.40172733494E+03  0.40172733494E+03  0.00000000000E+00 0.  1.
         25    2    1    2    0    0  0.12261810797E+03 -0.39396597515E+02 -0.26474445038E+03  0.31987936222E+03  0.12508353236E+03 0.  0.
         24    2    1    2    0    0  0.53211107842E+02 -0.99148931334E+02 -0.45953399227E+01  0.13744389014E+03  0.78789423189E+02 0.  0.
        -24    2    1    2    0    0 -0.17582921581E+03  0.13854552885E+03  0.33016887380E+03  0.40696050102E+03  0.80589003379E+02 0.  0.
        -11    1    4    4    0    0  0.46546776554E+02 -0.11000522209E+03 -0.15788107749E+02  0.12048657868E+03  0.00000000000E+00 0.  1.
         12    1    4    4    0    0  0.66643312877E+01  0.10856290758E+02  0.11192767826E+02  0.16957311466E+02  0.00000000000E+00 0. -1.
         13    1    5    5    0    0 -0.22459811683E+02  0.56864393648E+02  0.59481632136E+02  0.85299864990E+02  0.00000000000E+00 0. -1.
        -14    1    5    5    0    0 -0.15336940413E+03  0.81681135201E+02  0.27068724166E+03  0.32166063603E+03  0.00000000000E+00 0.  1.
          5    1    3    3  501    0  0.12478836141E+03 -0.72336689609E+02 -0.23186669130E+03  0.27310138546E+03  0.41800000000E+01 0. -1.
         -5    1    3    3    0  501 -0.21702534428E+01  0.32940092095E+02 -0.32877759079E+02  0.46777976755E+02  0.41800000000E+01 0. -1.
</event>
<event>
11    1  0.1704459E-009  0.1916229E+03  0.7561462E-02  0.1060611E+00
         22   -1    0    0    0    0  0.00000000000E+00  0.00000000000E+00  0.22688621250E+04  0.22688621250E+04  0.00000000000E+00 0. -1.
         22   -1    0    0    0    0 -0.00000000000E+00 -0.00000000000E+00 -0.35277208521E+02  0.35277208521E+02  0.00000000000E+00 0.  1.
         25    2    1    2    0    0 -0.32134023901E+02  0.10835036351E+03  0.57190905570E+03  0.59623846986E+03  0.12509175908E+03 0.  0.
         24    2    1    2    0    0  0.15812531505E+03  0.44423766595E+02  0.67779270381E+03  0.70205711218E+03  0.80648329947E+02 0.  0.
        -24    2    1    2    0    0 -0.12599129115E+03 -0.15277413010E+03  0.98388315699E+03  0.10058437515E+04  0.66946587301E+02 0.  0.
        -11    1    4    4    0    0  0.31203957671E+02 -0.21246159137E+02  0.10097013307E+03  0.10779635441E+03  0.00000000000E+00 0.  1.
         12    1    4    4    0    0  0.12692135738E+03  0.65669925733E+02  0.57682257074E+03  0.59426075777E+03  0.00000000000E+00 0. -1.
         13    1    5    5    0    0 -0.97772405512E+02 -0.95251592961E+02  0.78837437144E+03  0.80010402998E+03  0.00000000000E+00 0. -1.
        -14    1    5    5    0    0 -0.28218885635E+02 -0.57522537141E+02  0.19550878555E+03  0.20573972152E+03  0.00000000000E+00 0.  1.
          5    1    3    3  501    0  0.40271966231E+02  0.36782305855E+02  0.31760312855E+03  0.32227936477E+03  0.41800000000E+01 0.  1.
         -5    1    3    3    0  501 -0.72405990132E+02  0.71568057651E+02  0.25430592715E+03  0.27395910510E+03  0.41800000000E+01 0.  1.
</event>
<event>
11    1  0.1704459E-009  0.2407840E+03  0.7561462E-02  0.1028926E+00
         22   -1    0    0    0    0  0.00000000000E+00  0.00000000000E+00  0.10236824470E+04  0.10236824470E+04  0.00000000000E+00 0.  1.
         22   -1    0    0    0    0 -0.00000000000E+00 -0.00000000000E+00 -0.74927451249E+03  0.74927451249E+03  0.00000000000E+00 0.  1.
         25    2    1    2    0    0 -0.23054616912E+03 -0.12933561218E+03 -0.62401420678E+03  0.68914444812E+03  0.12508838250E+03 0.  0.
         24    2    1    2    0    0  0.25494273150E+02  0.14145225602E+03  0.41296742789E+01  0.16482776189E+03  0.80575667440E+02 0.  0.
        -24    2    1    2    0    0  0.20505189597E+03 -0.12116643838E+02  0.89429246704E+03  0.91898474950E+03  0.50802166488E+02 0.  0.
        -11    1    4    4    0    0 -0.26242243006E+02  0.20985869981E+02 -0.10701704917E+01  0.33618556211E+02  0.00000000000E+00 0.  1.
         12    1    4    4    0    0  0.51736516156E+02  0.12046638604E+03  0.51998447706E+01  0.13120920568E+03  0.00000000000E+00 0. -1.
         11    1    5    5    0    0  0.12435749200E+03  0.12217626085E+02  0.59927628153E+03  0.61216510666E+03  0.00000000000E+00 0. -1.
        -12    1    5    5    0    0  0.80694403970E+02 -0.24334269923E+02  0.29501618551E+03  0.30681964285E+03  0.00000000000E+00 0.  1.
          5    1    3    3  501    0 -0.34218349276E+02 -0.57585037569E+01 -0.22400574673E+03  0.22671590761E+03  0.41800000000E+01 0. -1.
         -5    1    3    3    0  501 -0.19632781984E+03 -0.12357710842E+03 -0.40000846005E+03  0.46242854051E+03  0.41800000000E+01 0. -1.
</event>
<event>
11    1  0.1704459E-009  0.2422388E+03  0.7561462E-02  0.1028117E+00
         22   -1    0    0    0    0  0.00000000000E+00  0.00000000000E+00  0.57794970089E+02  0.57794970089E+02  0.00000000000E+00 0.  1.
         22   -1    0    0    0    0 -0.00000000000E+00 -0.00000000000E+00 -0.26696205387E+04  0.26696205387E+04  0.00000000000E+00 0.  1.
         25    2    1    2    0    0  0.18943985570E+03 -0.10857532579E+03 -0.17055767641E+04  0.17240406750E+04  0.12509232689E+03 0.  0.
         24    2    1    2    0    0 -0.13081795609E+03 -0.11080589266E+03 -0.38480331277E+03  0.42939575653E+03  0.83161545919E+02 0.  0.
        -24    2    1    2    0    0 -0.58621899609E+02  0.21938121845E+03 -0.52144549173E+03  0.57397907733E+03  0.77342965097E+02 0.  0.
        -13    1    4    4    0    0 -0.19209307209E+02 -0.36765603098E+02 -0.17976787209E+03  0.18449172039E+03  0.00000000000E+00 0.  1.
         14    1    4    4    0    0 -0.11160864888E+03 -0.74040289561E+02 -0.20503544068E+03  0.24490403614E+03  0.00000000000E+00 0. -1.
         13    1    5    5    0    0 -0.68725312110E+00  0.13760392087E+03 -0.26390344349E+03  0.29762449301E+03  0.00000000000E+00 0. -1.
        -14    1    5    5    0    0 -0.57934646488E+02  0.81777297574E+02 -0.25754204824E+03  0.27635458432E+03  0.00000000000E+00 0.  1.
          5    1    3    3  501    0  0.11842611664E+02 -0.12364186293E+02 -0.59353419992E+03  0.59379578933E+03  0.41800000000E+01 0.  1.
         -5    1    3    3    0  501  0.17759724403E+03 -0.96211139495E+02 -0.11120425642E+04  0.11302448856E+04  0.41800000000E+01 0.  1.
</event>
<event>
11    1  0.1704459E-009  0.1640892E+03  0.7561462E-02  0.1083293E+00
         22   -1    0    0    0    0  0.00000000000E+00  0.00000000000E+00  0.79716504399E+03  0.79716504399E+03  0.00000000000E+00 0. -1.
         22   -1    0    0    0    0 -0.00000000000E+00 -0.00000000000E+00 -0.99437357671E+02  0.99437357671E+02  0.00000000000E+00 0. -1.
         25    2    1    2    0    0 -0.34115153614E+02 -0.61575816450E+01  0.34702365543E+02  0.13436665501E+03  0.12509350218E+03 0.  0.
         24    2    1    2    0    0 -0.55214239768E+02  0.12282668794E+03  0.13023044147E+03  0.20384017475E+03  0.80348250838E+02 0.  0.
        -24    2    1    2    0    0  0.89329393382E+02 -0.11666910630E+03  0.53279487931E+03  0.55839557190E+03  0.79648040883E+02 0.  0.
        -11    1    4    4    0    0  0.19406656937E+02  0.29944405849E+02  0.44591000135E+02  0.57110796423E+02  0.00000000000E+00 0.  1.
         12    1    4    4    0    0 -0.74620896705E+02  0.92882282094E+02  0.85639441339E+02  0.14672937833E+03  0.00000000000E+00 0. -1.
         11    1    5    5    0    0  0.72204945751E+02 -0.54221332409E+02  0.20114086545E+03  0.22047937507E+03  0.00000000000E+00 0. -1.
        -12    1    5    5    0    0  0.17124447631E+02 -0.62447773889E+02  0.33165401386E+03  0.33791619683E+03  0.00000000000E+00 0.  1.
          5    1    3    3  501    0 -0.50059125403E+02 -0.38344161343E+02 -0.22169950976E+02  0.66971410852E+02  0.41800000000E+01 0.  1.
         -5    1    3    3    0  501  0.15943971789E+02  0.32186579698E+02  0.56872316519E+02  0.67395244160E+02  0.41800000000E+01 0.  1.
</event>
<event>
11    1  0.1704459E-009  0.1731179E+03  0.7561462E-02  0.1075350E+00
         22   -1    0    0    0    0  0.00000000000E+00  0.00000000000E+00  0.15081995592E+04  0.15081995592E+04  0.00000000000E+00 0.  1.
         22   -1    0    0    0    0 -0.00000000000E+00 -0.00000000000E+00 -0.96680152131E+02  0.96680152131E+02  0.00000000000E+00 0.  1.
         25    2    1    2    0    0 -0.96620716732E+02  0.81923699631E+02  0.68366548486E+02  0.19070674243E+03  0.12509205087E+03 0.  0.
         24    2    1    2    0    0  0.24167008530E+02 -0.12433651259E+03  0.14157875857E+03  0.20706841187E+03  0.82396417709E+02 0.  0.
        -24    2    1    2    0    0  0.72453708202E+02  0.42412812959E+02  0.12015741000E+04  0.12071045570E+04  0.79200424663E+02 0.  0.
        -11    1    4    4    0    0  0.51851294983E+02 -0.10569624486E+03  0.11002848715E+03  0.16114130740E+03  0.00000000000E+00 0.  1.
         12    1    4    4    0    0 -0.27684286453E+02 -0.18640267734E+02  0.31550271427E+02  0.45927104467E+02  0.00000000000E+00 0. -1.
         11    1    5    5    0    0 -0.10089588760E+02  0.54110210196E+01  0.31102949739E+02  0.33143210953E+02  0.00000000000E+00 0. -1.
        -12    1    5    5    0    0  0.82543296962E+02  0.37001791939E+02  0.11704711503E+04  0.11739613461E+04  0.00000000000E+00 0.  1.
          5    1    3    3  501    0 -0.54365882393E+02 -0.24096064309E+02  0.43251042345E+01  0.59769962441E+02  0.41800000000E+01 0.  1.
         -5    1    3    3    0  501 -0.42254834339E+02  0.10601976394E+03  0.64041444251E+02  0.13093677998E+03  0.41800000000E+01 0.  1.
</event>
<event>
11    1  0.1704459E-009  0.2605679E+03  0.7561462E-02  0.1018415E+00
         22   -1    0    0    0    0  0.00000000000E+00  0.00000000000E+00  0.17920590432E+04  0.17920590432E+04  0.00000000000E+00 0.  1.
         22   -1    0    0    0    0 -0.00000000000E+00 -0.00000000000E+00 -0.23530124390E+03  0.23530124390E+03  0.00000000000E+00 0. -1.
         25    2    1    2    0    0  0.23129396153E+03 -0.42756367526E+02 -0.10308634254E+03  0.28565584696E+03  0.12508982885E+03 0.  0.
         24    2    1    2    0    0 -0.78535191037E+02  0.17544587791E+03  0.30563912644E+03  0.37024265608E+03  0.81947034472E+02 0.  0.
        -24    2    1    2    0    0 -0.15275877049E+03 -0.13268951039E+03  0.13542050154E+04  0.13714617841E+04  0.78066979466E+02 0.  0.
        -11    1    4    4    0    0 -0.28580059424E+01 -0.88277880041E+01  0.19424789000E+02  0.21527202947E+02  0.00000000000E+00 0.  1.
         12    1    4    4    0    0 -0.75677185095E+02  0.18427366592E+03  0.28621433744E+03  0.34871545313E+03  0.00000000000E+00 0. -1.
         11    1    5    5    0    0 -0.38610884884E+01 -0.56446563240E+01  0.59250236058E+01  0.90485387804E+01  0.00000000000E+00 0. -1.
        -12    1    5    5    0    0 -0.14889768200E+03 -0.12704485406E+03  0.13482799918E+04  0.13624132453E+04  0.00000000000E+00 0.  1.
          5    1    3    3  501    0  0.21197804016E+03 -0.76046930329E+02 -0.73511632426E+02  0.23693724406E+03  0.41800000000E+01 0. -1.
         -5    1    3    3    0  501  0.19315921368E+02  0.33290562803E+02 -0.29574710110E+02  0.48718602896E+02  0.41800000000E+01 0. -1.
</event>
<event>
11    1  0.1704459E-009  0.1403159E+03  0.7561462E-02  0.1107206E+00
         22   -1    0    0    0    0  0.00000000000E+00  0.00000000000E+00  0.65719558037E+03  0.65719558037E+03  0.00000000000E+00 0. -1.
         22   -1    0    0    0    0 -0.00000000000E+00 -0.00000000000E+00 -0.30302885856E+03  0.30302885856E+03  0.00000000000E+00 0.  1.
         25    2    1    2    0    0  0.35288824245E+02 -0.45949647834E+01 -0.77727258093E+02  0.15151009794E+03  0.12508944124E+03 0.  0.
        -24    2    1    2    0    0 -0.64951248839E+02  0.42645575052E+02 -0.16782036509E+03  0.20150016550E+03  0.80008324313E+02 0.  0.
         24    2    1    2    0    0  0.29662424593E+02 -0.38050610269E+02  0.59971434500E+03  0.60721417549E+03  0.82000310623E+02 0.  0.
        -11    1    5    5    0    0  0.22570059762E+02 -0.11908647266E+02  0.44185116591E+02  0.51024974331E+02  0.00000000000E+00 0.  1.
         12    1    5    5    0    0  0.70923648319E+01 -0.26141963003E+02  0.55552922841E+03  0.55618920116E+03  0.00000000000E+00 0. -1.
         13    1    4    4    0    0 -0.26783016214E+02 -0.16233101727E+02 -0.18148440520E+02  0.36196815364E+02  0.00000000000E+00 0. -1.
        -14    1    4    4    0    0 -0.38168232625E+02  0.58878676779E+02 -0.14967192457E+03  0.16530335013E+03  0.00000000000E+00 0.  1.
          5    1    3    3  501    0  0.18579587191E+02  0.35712300368E+02 -0.95875865269E+02  0.10406835926E+03  0.41800000000E+01 0. -1.
         -5    1    3    3    0  501  0.16709237054E+02 -0.40307265152E+02  0.18148607176E+02  0.47441738684E+02  0.41800000000E+01 0. -1.
</event>
<event>
11    1  0.1704459E-009  0.2890793E+03  0.7561462E-02  0.1004922E+00
         22   -1    0    0    0    0  0.00000000000E+00  0.00000000000E+00  0.16838132800E+04  0.16838132800E+04  0.00000000000E+00 0.  1.
         22   -1    0    0    0    0 -0.00000000000E+00 -0.00000000000E+00 -0.80644793248E+02  0.80644793248E+02  0.00000000000E+00 0.  1.
         25    2    1    2    0    0  0.31999143053E+02 -0.26743792197E+03  0.10148886616E+04  0.10574462055E+04  0.12508594949E+03 0.  0.
        -24    2    1    2    0    0 -0.75996006671E+02  0.24728832058E+03  0.30559488605E+03  0.40807574502E+03  0.78807821764E+02 0.  0.
         24    2    1    2    0    0  0.43996863618E+02  0.20149601392E+02  0.28268493911E+03  0.29893612276E+03  0.84322596290E+02 0.  0.
        -11    1    5    5    0    0 -0.15251332026E+02 -0.16883174736E+02  0.36342635600E+02  0.42876938791E+02  0.00000000000E+00 0.  1.
         12    1    5    5    0    0  0.59248195644E+02  0.37032776127E+02  0.24634230351E+03  0.25605918397E+03  0.00000000000E+00 0. -1.
         13    1    4    4    0    0 -0.65921261521E+02  0.11075532292E+03  0.11070328063E+03  0.16990459269E+03  0.00000000000E+00 0. -1.
        -14    1    4    4    0    0 -0.10074745150E+02  0.13653299766E+03  0.19489160542E+03  0.23817115233E+03  0.00000000000E+00 0.  1.
          5    1    3    3  501    0 -0.82484222383E+01  0.69547949534E+01  0.11066348521E+02  0.16010687426E+02  0.41800000000E+01 0. -1.
         -5    1    3    3    0  501  0.40247565291E+02 -0.27439271693E+03  0.10038223131E+04  0.10414355180E+04  0.41800000000E+01 0. -1.
</event>
<event>
11    1  0.1704459E-009  0.1324739E+03  0.7561462E-02  0.1116266E+00
         22   -1    0    0    0    0  0.00000000000E+00  0.00000000000E+00  0.25088204866E+02  0.25088204866E+02  0.00000000000E+00 0.  1.
         22   -1    0    0    0    0 -0.00000000000E+00 -0.00000000000E+00 -0.15338287679E+04  0.15338287679E+04  0.00000000000E+00 0.  1.
         25    2    1    2    0    0 -0.18020172920E+02  0.51219404086E+01 -0.52637786465E+03  0.54136128176E+03  0.12508964819E+03 0.  0.
        -24    2    1    2    0    0 -0.37549239940E+02 -0.93484260603E+02 -0.54690612076E+03  0.56193399348E+03  0.80710939170E+02 0.  0.
         24    2    1    2    0    0  0.55569412860E+02  0.88362320194E+02 -0.43545657757E+03  0.45562169748E+03  0.84100184240E+02 0.  0.
        -13    1    5    5    0    0  0.62365441947E+02  0.69597358903E+02 -0.42029237766E+03  0.43055652757E+03  0.00000000000E+00 0.  1.
         14    1    5    5    0    0 -0.67960290864E+01  0.18764961291E+02 -0.15164199910E+02  0.25065169908E+02  0.00000000000E+00 0. -1.
         11    1    4    4    0    0 -0.27433140154E+02 -0.14407127695E+02 -0.31871647983E+03  0.32021920152E+03  0.00000000000E+00 0. -1.
        -12    1    4    4    0    0 -0.10116099786E+02 -0.79077132907E+02 -0.22818964093E+03  0.24171479196E+03  0.00000000000E+00 0.  1.
          5    1    3    3  501    0  0.46023467719E+02  0.27796718293E+02 -0.16379162011E+03  0.17244124897E+03  0.41800000000E+01 0.  1.
         -5    1    3    3    0  501 -0.64043640639E+02 -0.22674777885E+02 -0.36258624455E+03  0.36892003279E+03  0.41800000000E+01 0.  1.
</event>
<event>
11    1  0.1704459E-009  0.6920058E+03  0.7561462E-02  0.9044169E-01
         22   -1    0    0    0    0  0.00000000000E+00  0.00000000000E+00  0.52619873461E+03  0.52619873461E+03  0.00000000000E+00 0. -1.
         22   -1    0    0    0    0 -0.00000000000E+00 -0.00000000000E+00 -0.22751479356E+03  0.22751479356E+03  0.00000000000E+00 0. -1.
         25    2    1    2    0    0 -0.30833611436E+03  0.19590575153E+02  0.78353386742E+02  0.34240072978E+03  0.12507620270E+03 0.  0.
        -24    2    1    2    0    0  0.18728947711E+03 -0.13560725952E+02  0.16076437417E+03  0.25306152238E+03  0.54163720153E+02 0.  0.
         24    2    1    2    0    0  0.12104663725E+03 -0.60298492007E+01  0.59566180135E+02  0.15825127602E+03  0.82502661015E+02 0.  0.
        -11    1    5    5    0    0 -0.90167270166E+00  0.10000828627E+01  0.33276149843E+02  0.33303383128E+02  0.00000000000E+00 0.  1.
         12    1    5    5    0    0  0.12194830995E+03 -0.70299320634E+01  0.26290030292E+02  0.12494789289E+03  0.00000000000E+00 0. -1.
         13    1    4    4    0    0  0.32909192375E+02 -0.16823580481E+02  0.53584562079E+02  0.65094954461E+02  0.00000000000E+00 0. -1.
        -14    1    4    4    0    0  0.15438028473E+03  0.32628545288E+01  0.10717981209E+03  0.18796656792E+03  0.00000000000E+00 0.  1.
          5    1    3    3  501    0 -0.11129140987E+03  0.65375178103E+02  0.48136429812E+02  0.13781973769E+03  0.41800000000E+01 0.  1.
         -5    1    3    3    0  501 -0.19704470449E+03 -0.45784602951E+02  0.30216956930E+02  0.20458099208E+03  0.41800000000E+01 0.  1.
</event>
<event>
11    1  0.1704459E-009  0.3541801E+03  0.7561462E-02  0.9795552E-01
         22   -1    0    0    0    0  0.00000000000E+00  0.00000000000E+00  0.41130684230E+03  0.41130684230E+03  0.00000000000E+00 0. -1.
         22   -1    0    0    0    0 -0.00000000000E+00 -0.00000000000E+00 -0.94194781051E+03  0.94194781051E+03  0.00000000000E+00 0. -1.
         25    2    1    2    0    0 -0.35066336019E+02 -0.31843027742E+02 -0.26946168210E+03  0.30083179800E+03  0.12508615523E+03 0.  0.
        -24    2    1    2    0    0 -0.30460865761E+03 -0.54624519883E+02 -0.51959286475E+03  0.60936599062E+03  0.74698681209E+02 0.  0.
         24    2    1    2    0    0  0.33967499363E+03  0.86467547625E+02  0.25841357863E+03  0.44305686418E+03  0.81645999234E+02 0.  0.
        -11    1    5    5    0    0  0.18763058558E+03  0.82463526682E+02  0.12054949989E+03  0.23777647445E+03  0.00000000000E+00 0.  1.
         12    1    5    5    0    0  0.15204440804E+03  0.40040209423E+01  0.13786407874E+03  0.20528038973E+03  0.00000000000E+00 0. -1.
         13    1    4    4    0    0 -0.28901166290E+03 -0.33420669980E+02 -0.48903515153E+03  0.56903432402E+03  0.00000000000E+00 0. -1.
        -14    1    4    4    0    0 -0.15596994703E+02 -0.21203849903E+02 -0.30557713213E+02  0.40331666607E+02  0.00000000000E+00 0.  1.
          5    1    3    3  501    0 -0.11246933956E+02 -0.40285413224E+02 -0.14318512699E+02  0.44406083457E+02  0.41800000000E+01 0. -1.
         -5    1    3    3    0  501 -0.23819402063E+02  0.84423854820E+01 -0.25514316940E+03  0.25642571454E+03  0.41800000000E+01 0. -1.
</event>
<event>
11    1  0.1704459E-009  0.2074920E+03  0.7561462E-02  0.1049349E+00
         22   -1    0    0    0    0  0.00000000000E+00  0.00000000000E+00  0.10060710904E+04  0.10060710904E+04  0.00000000000E+00 0. -1.
         22   -1    0    0    0    0 -0.00000000000E+00 -0.00000000000E+00 -0.12185648844E+04  0.12185648844E+04  0.00000000000E+00 0.  1.
         25    2    1    2    0    0 -0.16840961540E+03  0.34463276825E+02 -0.65153793658E+03  0.68534567573E+03  0.12508995333E+03 0.  0.
        -24    2    1    2    0    0  0.15675205518E+03 -0.32146030026E+02 -0.53373965836E+03  0.56317202581E+03  0.81732084837E+02 0.  0.
         24    2    1    2    0    0  0.11657560217E+02 -0.23172467986E+01  0.97278380089E+03  0.97611827328E+03  0.79732626990E+02 0.  0.
        -13    1    5    5    0    0  0.41171102029E+02 -0.16929386288E+01  0.31652545253E+03  0.31919631543E+03  0.00000000000E+00 0.  1.
         14    1    5    5    0    0 -0.29513541812E+02 -0.62430816985E+00  0.65625834836E+03  0.65692195785E+03  0.00000000000E+00 0. -1.
         11    1    4    4    0    0  0.27429046582E+02  0.18073822400E+02 -0.49161045529E+02  0.59125494078E+02  0.00000000000E+00 0. -1.
        -12    1    4    4    0    0  0.12932300860E+03 -0.50219852426E+02 -0.48457861283E+03  0.50404653173E+03  0.00000000000E+00 0.  1.
          5    1    3    3  501    0 -0.92225177718E+02 -0.44064449502E+02 -0.28494402143E+03  0.30275027145E+03  0.41800000000E+01 0. -1.
         -5    1    3    3    0  501 -0.76184437684E+02  0.78527726327E+02 -0.36659391515E+03  0.38259540427E+03  0.41800000000E+01 0. -1.
</event>
<event>
11    1  0.1704459E-009  0.6513094E+03  0.7561462E-02  0.9107303E-01
         22   -1    0    0    0    0  0.00000000000E+00  0.00000000000E+00  0.11484259373E+04  0.11484259373E+04  0.00000000000E+00 0. -1.
         22   -1    0    0    0    0 -0.00000000000E+00 -0.00000000000E+00 -0.62676696347E+03  0.62676696347E+03  0.00000000000E+00 0. -1.
         25    2    1    2    0    0  0.22072469944E+03  0.57667970954E+02 -0.96151006443E+02  0.27737685425E+03  0.12509162808E+03 0.  0.
         24    2    1    2    0    0  0.63890413323E+02 -0.65014092749E+03  0.11860015169E+03  0.66871159787E+03  0.79649197298E+02 0.  0.
        -24    2    1    2    0    0 -0.28461511276E+03  0.59247295653E+03  0.49920982862E+03  0.82910444869E+03  0.78573323844E+02 0.  0.
        -11    1    4    4    0    0  0.29751799378E+02 -0.73406804457E+02  0.15050085743E+01  0.79221168621E+02  0.00000000000E+00 0.  1.
         12    1    4    4    0    0  0.34138613945E+02 -0.57673412303E+03  0.11709514312E+03  0.58949042924E+03  0.00000000000E+00 0. -1.
         13    1    5    5    0    0 -0.16277607318E+03  0.41822545129E+03  0.32258630178E+03  0.55269385758E+03  0.00000000000E+00 0. -1.
        -14    1    5    5    0    0 -0.12183903958E+03  0.17424750524E+03  0.17662352684E+03  0.27641059112E+03  0.00000000000E+00 0.  1.
          5    1    3    3  501    0  0.11091759164E+03  0.85350191141E+02 -0.21450466447E+02  0.14165084601E+03  0.41800000000E+01 0.  1.
         -5    1    3    3    0  501  0.10980710780E+03 -0.27682220186E+02 -0.74700539996E+02  0.13572600824E+03  0.41800000000E+01 0.  1.
</event>
<event>
11    1  0.1704459E-009  0.1349725E+03  0.7561462E-02  0.1113306E+00
         22   -1    0    0    0    0  0.00000000000E+00  0.00000000000E+00  0.36424500052E+02  0.36424500052E+02  0.00000000000E+00 0. -1.
         22   -1    0    0    0    0 -0.00000000000E+00 -0.00000000000E+00 -0.91162716001E+03  0.91162716001E+03  0.00000000000E+00 0. -1.
         25    2    1    2    0    0  0.10305829031E+02 -0.10607063501E+02 -0.34271629769E+03  0.36513243094E+03  0.12509401071E+03 0.  0.
        -24    2    1    2    0    0  0.95262578582E+01  0.87966362217E+02 -0.32738078408E+03  0.34823168966E+03  0.79109426953E+02 0.  0.
         24    2    1    2    0    0 -0.19832086890E+02 -0.77359298716E+02 -0.20510557819E+03  0.23468753946E+03  0.81438137274E+02 0.  0.
        -11    1    5    5    0    0  0.21942169391E+02 -0.35892531741E+02 -0.35124593818E+02  0.54803920693E+02  0.00000000000E+00 0.  1.
         12    1    5    5    0    0 -0.41774256281E+02 -0.41466766975E+02 -0.16998098437E+03  0.17988361876E+03  0.00000000000E+00 0. -1.
         13    1    4    4    0    0  0.20309349010E+02  0.98874470311E+02 -0.30354013437E+03  0.31988317197E+03  0.00000000000E+00 0. -1.
        -14    1    4    4    0    0 -0.10783091152E+02 -0.10908108094E+02 -0.23840649710E+02  0.28348517696E+02  0.00000000000E+00 0.  1.
          5    1    3    3  501    0 -0.54466643223E+02 -0.17191599145E+02 -0.20320144948E+03  0.21111718967E+03  0.41800000000E+01 0. -1.
         -5    1    3    3    0  501  0.64772472254E+02  0.65845356441E+01 -0.13951484822E+03  0.15401524127E+03  0.41800000000E+01 0. -1.
</event>
<event>
11    1  0.1704459E-009  0.2872582E+03  0.7561462E-02  0.1005733E+00
         22   -1    0    0    0    0  0.00000000000E+00  0.00000000000E+00  0.15659934291E+04  0.15659934291E+04  0.00000000000E+00 0.  1.
         22   -1    0    0    0    0 -0.00000000000E+00 -0.00000000000E+00 -0.10750460629E+03  0.10750460629E+03  0.00000000000E+00 0.  1.
         25    2    1    2    0    0  0.24200185682E+03  0.47253177623E+02  0.35522827236E+03  0.45014880874E+03  0.12509621506E+03 0.  0.
        -24    2    1    2    0    0 -0.26328999494E+03 -0.52836809910E+02  0.27461270713E+03  0.39216287469E+03  0.79159531614E+02 0.  0.
         24    2    1    2    0    0  0.21288138123E+02  0.55836322873E+01  0.82864784333E+03  0.83118635198E+03  0.61066698707E+02 0.  0.
        -11    1    5    5    0    0  0.65386199649E+00 -0.26531327047E+02  0.37233518748E+03  0.37327982893E+03  0.00000000000E+00 0.  1.
         12    1    5    5    0    0  0.20634276126E+02  0.32114959334E+02  0.45631265585E+03  0.45790652305E+03  0.00000000000E+00 0. -1.
         11    1    4    4    0    0 -0.29564604072E+02  0.98234255359E+01  0.64756177861E+02  0.71860476441E+02  0.00000000000E+00 0. -1.
        -12    1    4    4    0    0 -0.23372539087E+03 -0.62660235446E+02  0.20985652927E+03  0.32030239825E+03  0.00000000000E+00 0.  1.
          5    1    3    3  501    0  0.23753357661E+03  0.17265626983E+02  0.27244701973E+03  0.36189107871E+03  0.41800000000E+01 0. -1.
         -5    1    3    3    0  501  0.44682802098E+01  0.29987550640E+02  0.82781252635E+02  0.88257730025E+02  0.41800000000E+01 0. -1.
</event>
<event>
11    1  0.1704459E-009  0.1814505E+03  0.7561462E-02  0.1068476E+00
         22   -1    0    0    0    0  0.00000000000E+00  0.00000000000E+00  0.62486309618E+03  0.62486309618E+03  0.00000000000E+00 0. -1.
         22   -1    0    0    0    0 -0.00000000000E+00 -0.00000000000E+00 -0.24387213123E+03  0.24387213123E+03  0.00000000000E+00 0. -1.
         25    2    1    2    0    0 -0.12380783421E+02 -0.12518120674E+03 -0.16171494358E+03  0.24004713346E+03  0.12508910819E+03 0.  0.
        -24    2    1    2    0    0 -0.11251313990E+02  0.19182279160E+03  0.37952860893E+03  0.43352410549E+03  0.83538072794E+02 0.  0.
         24    2    1    2    0    0  0.23632097411E+02 -0.66641584860E+02  0.16317729961E+03  0.19516398846E+03  0.80390138833E+02 0.  0.
        -11    1    5    5    0    0  0.52523743487E+02 -0.32351030781E+02  0.10398291945E+03  0.12090401301E+03  0.00000000000E+00 0.  1.
         12    1    5    5    0    0 -0.28891646076E+02 -0.34290554080E+02  0.59194380155E+02  0.74259975451E+02  0.00000000000E+00 0. -1.
         13    1    4    4    0    0  0.28860551839E+02  0.81389879241E+02  0.21189536009E+03  0.22881627460E+03  0.00000000000E+00 0. -1.
        -14    1    4    4    0    0 -0.40111865829E+02  0.11043291236E+03  0.16763324883E+03  0.20470783089E+03  0.00000000000E+00 0.  1.
          5    1    3    3  501    0 -0.40982318186E+02 -0.10856209802E+03 -0.55453202004E+02  0.12867715237E+03  0.41800000000E+01 0. -1.
         -5    1    3    3    0  501  0.28601534765E+02 -0.16619108720E+02 -0.10626174157E+03  0.11136998109E+03  0.41800000000E+01 0. -1.
</event>
<event>
11    1  0.1704459E-009  0.1923385E+03  0.7561462E-02  0.1060078E+00
         22   -1    0    0    0    0  0.00000000000E+00  0.00000000000E+00  0.80156805673E+03  0.80156805673E+03  0.00000000000E+00 0. -1.
         22   -1    0    0    0    0 -0.00000000000E+00 -0.00000000000E+00 -0.96841015947E+02  0.96841015947E+02  0.00000000000E+00 0. -1.
         25    2    1    2    0    0  0.72861647671E+02  0.10884994921E+03  0.10418905092E+03  0.20894910666E+03  0.12508892716E+03 0.  0.
        -24    2    1    2    0    0 -0.15201354183E+03 -0.10250477480E+03  0.26825809262E+03  0.33793994739E+03  0.92874420735E+02 0.  0.
         24    2    1    2    0    0  0.79151894157E+02 -0.63451744127E+01  0.33227989725E+03  0.35152001864E+03  0.82771431069E+02 0.  0.
        -11    1    5    5    0    0  0.38133200459E+01  0.27251838914E+02  0.13344847129E+03  0.13625600399E+03  0.00000000000E+00 0.  1.
         12    1    5    5    0    0  0.75338574111E+02 -0.33597013326E+02  0.19883142596E+03  0.21526401465E+03  0.00000000000E+00 0. -1.
         11    1    4    4    0    0 -0.20316563311E+02 -0.61549103492E+02  0.11301241845E+03  0.13027993556E+03  0.00000000000E+00 0. -1.
        -12    1    4    4    0    0 -0.13169697852E+03 -0.40955671305E+02  0.15524567417E+03  0.20766001183E+03  0.00000000000E+00 0.  1.
          5    1    3    3  501    0  0.59263194373E+02  0.12460738628E+03  0.11965354403E+03  0.18268434504E+03  0.41800000000E+01 0. -1.
         -5    1    3    3    0  501  0.13598453298E+02 -0.15757437074E+02 -0.15464493117E+02  0.26264761613E+02  0.41800000000E+01 0. -1.
</event>
<event>
11    1  0.1704459E-009  0.3010262E+03  0.7561462E-02  0.9997578E-01
         22   -1    0    0    0    0  0.00000000000E+00  0.00000000000E+00  0.20394831117E+03  0.20394831117E+03  0.00000000000E+00 0. -1.
         22   -1    0    0    0    0 -0.00000000000E+00 -0.00000000000E+00 -0.10565656941E+04  0.10565656941E+04  0.00000000000E+00 0. -1.
         25    2    1    2    0    0  0.19537492451E+03  0.11716547227E+03 -0.41706069679E+03  0.49140882178E+03  0.12507556232E+03 0.  0.
        -24    2    1    2    0    0 -0.39259394319E+03 -0.12235771209E+03 -0.31147173452E+03  0.52207900389E+03  0.80314574964E+02 0.  0.
         24    2    1    2    0    0  0.19721901868E+03  0.51922398166E+01 -0.12408495158E+03  0.24702617957E+03  0.81869148655E+02 0.  0.
        -11    1    5    5    0    0  0.92480589992E+02  0.35413084394E+02 -0.31252617210E+02  0.10384349837E+03  0.00000000000E+00 0.  1.
         12    1    5    5    0    0  0.10473842869E+03 -0.30220844578E+02 -0.92832334369E+02  0.14318268120E+03  0.00000000000E+00 0. -1.
         11    1    4    4    0    0 -0.31626064356E+03 -0.10533319149E+03 -0.21003536059E+03  0.39399331034E+03  0.00000000000E+00 0. -1.
        -12    1    4    4    0    0 -0.76333299632E+02 -0.17024520600E+02 -0.10143637393E+03  0.12808569354E+03  0.00000000000E+00 0.  1.
          5    1    3    3  501    0  0.20150481933E+03  0.74226299876E+02 -0.36514163347E+03  0.42362674691E+03  0.41800000000E+01 0. -1.
         -5    1    3    3    0  501 -0.61298948226E+01  0.42939172393E+02 -0.51919063325E+02  0.67782074864E+02  0.41800000000E+01 0. -1.
</event>
<event>
11    1  0.1704459E-009  0.4427045E+03  0.7561462E-02  0.9531533E-01
         22   -1    0    0    0    0  0.00000000000E+00  0.00000000000E+00  0.51084418261E+03  0.51084418261E+03  0.00000000000E+00 0.  1.
         22   -1    0    0    0    0 -0.00000000000E+00 -0.00000000000E+00 -0.16022466472E+04  0.16022466472E+04  0.00000000000E+00 0.  1.
         25    2    1    2    0    0 -0.61823709968E+02 -0.70093036988E+02 -0.25275187064E+03  0.29709664076E+03  0.12509077062E+03 0.  0.
        -24    2    1    2    0    0 -0.37132582965E+03  0.13931965288E+03 -0.11843013374E+04  0.12517947287E+04  0.84424804033E+02 0.  0.
         24    2    1    2    0    0  0.43314953962E+03 -0.69226615890E+02  0.34565074340E+03  0.56419946040E+03  0.80223105683E+02 0.  0.
        -13    1    5    5    0    0  0.39171946253E+03 -0.41757816018E+02  0.28746938515E+03  0.48767458404E+03  0.00000000000E+00 0.  1.
         14    1    5    5    0    0  0.41430077091E+02 -0.27468799872E+02  0.58181358250E+02  0.76524876360E+02  0.00000000000E+00 0. -1.
         11    1    4    4    0    0 -0.24865044548E+03  0.10954280285E+03 -0.68850134164E+03  0.74017617304E+03  0.00000000000E+00 0. -1.
        -12    1    4    4    0    0 -0.12267538417E+03  0.29776850026E+02 -0.49579999577E+03  0.51161855565E+03  0.00000000000E+00 0.  1.
          5    1    3    3  501    0 -0.19661073459E+02  0.31179382220E+02 -0.11568489377E+03  0.12148736037E+03  0.41800000000E+01 0. -1.
         -5    1    3    3    0  501 -0.42162636509E+02 -0.10127241921E+03 -0.13706697687E+03  0.17560928039E+03  0.41800000000E+01 0. -1.
</event>
<event>
11    1  0.1704459E-009  0.2966631E+03  0.7561462E-02  0.1001613E+00
         22   -1    0    0    0    0  0.00000000000E+00  0.00000000000E+00  0.20568706071E+03  0.20568706071E+03  0.00000000000E+00 0. -1.
         22   -1    0    0    0    0 -0.00000000000E+00 -0.00000000000E+00 -0.12629790115E+04  0.12629790115E+04  0.00000000000E+00 0.  1.
         25    2    1    2    0    0 -0.20893787997E+03  0.77630366505E+02 -0.53226820899E+03  0.59045621454E+03  0.12509030140E+03 0.  0.
        -24    2    1    2    0    0  0.43994350505E+03 -0.32361303318E+02 -0.39369447251E+03  0.59679760747E+03  0.81083321436E+02 0.  0.
         24    2    1    2    0    0 -0.23100562508E+03 -0.45269063187E+02 -0.13132926935E+03  0.28141225024E+03  0.80824443676E+02 0.  0.
        -11    1    5    5    0    0 -0.58142183384E+02 -0.13047162582E+02 -0.77011404830E+02  0.97372986058E+02  0.00000000000E+00 0.  1.
         12    1    5    5    0    0 -0.17286344170E+03 -0.32221900605E+02 -0.54317864520E+02  0.18403926418E+03  0.00000000000E+00 0. -1.
         11    1    4    4    0    0  0.18764468275E+01 -0.91434723594E+01 -0.45284109088E+01  0.10374519017E+02  0.00000000000E+00 0. -1.
        -12    1    4    4    0    0  0.43806705822E+03 -0.23217830959E+02 -0.38916606160E+03  0.58642308846E+03  0.00000000000E+00 0.  1.
          5    1    3    3  501    0 -0.18046174550E+03  0.10984491881E+03 -0.41989174492E+03  0.47006265288E+03  0.41800000000E+01 0. -1.
         -5    1    3    3    0  501 -0.28476134470E+02 -0.32214552306E+02 -0.11237646407E+03  0.12039356167E+03  0.41800000000E+01 0. -1.
</event>
<event>
11    1  0.1704459E-009  0.2784484E+03  0.7561462E-02  0.1009749E+00
         22   -1    0    0    0    0  0.00000000000E+00  0.00000000000E+00  0.67087924573E+03  0.67087924573E+03  0.00000000000E+00 0.  1.
         22   -1    0    0    0    0 -0.00000000000E+00 -0.00000000000E+00 -0.44750968406E+03  0.44750968406E+03  0.00000000000E+00 0.  1.
         25    2    1    2    0    0  0.10626320084E+03 -0.90001042798E+02 -0.22124193921E+03  0.28980743127E+03  0.12509314928E+03 0.  0.
         24    2    1    2    0    0  0.17843361300E+03  0.26562500383E+02 -0.87597907118E+02  0.21637390471E+03  0.81241323432E+02 0.  0.
        -24    2    1    2    0    0 -0.28469681384E+03  0.63438542415E+02  0.53220940800E+03  0.61220759381E+03  0.80464647437E+02 0.  0.
        -13    1    4    4    0    0  0.79185147621E+02 -0.27398967786E+02 -0.48583103568E+02  0.96857157669E+02  0.00000000000E+00 0.  1.
         14    1    4    4    0    0  0.99248465383E+02  0.53961468169E+02 -0.39014803550E+02  0.11951674704E+03  0.00000000000E+00 0. -1.
         11    1    5    5    0    0 -0.57063549247E+02  0.17935160998E+02  0.18595654585E+03  0.19534010238E+03  0.00000000000E+00 0. -1.
        -12    1    5    5    0    0 -0.22763326460E+03  0.45503381418E+02  0.34625286215E+03  0.41686749144E+03  0.00000000000E+00 0.  1.
          5    1    3    3  501    0 -0.26204689891E+02 -0.58499017517E+01 -0.53835775301E+02  0.60304810961E+02  0.41800000000E+01 0. -1.
         -5    1    3    3    0  501  0.13246789073E+03 -0.84151141046E+02 -0.16740616391E+03  0.22950262031E+03  0.41800000000E+01 0. -1.
</event>
<event>
11    1  0.1704459E-009  0.3217736E+03  0.7561462E-02  0.9913752E-01
         22   -1    0    0    0    0  0.00000000000E+00  0.00000000000E+00  0.90827607859E+03  0.90827607859E+03  0.00000000000E+00 0.  1.
         22   -1    0    0    0    0 -0.00000000000E+00 -0.00000000000E+00 -0.16867536282E+04  0.16867536282E+04  0.00000000000E+00 0. -1.
         25    2    1    2    0    0 -0.28859828432E+03  0.51487914343E+02 -0.15600992485E+04  0.15923243921E+04  0.12508928651E+03 0.  0.
         24    2    1    2    0    0  0.43675185950E+03 -0.61379644658E+02  0.63106363062E+03  0.77420607154E+03  0.81449909552E+02 0.  0.
        -24    2    1    2    0    0 -0.14815357518E+03  0.98917303154E+01  0.15055806827E+03  0.22849924311E+03  0.86584317374E+02 0.  0.
        -13    1    4    4    0    0  0.36265670357E+03 -0.19121252853E+02  0.51518080183E+03  0.63031481462E+03  0.00000000000E+00 0.  1.
         14    1    4    4    0    0  0.74095155929E+02 -0.42258391805E+02  0.11588282879E+03  0.14389125692E+03  0.00000000000E+00 0. -1.
         13    1    5    5    0    0 -0.14283518216E+03 -0.17328495384E+02  0.12137799024E+03  0.18824128806E+03  0.00000000000E+00 0. -1.
        -14    1    5    5    0    0 -0.53183930199E+01  0.27220225700E+02  0.29180078025E+02  0.40257955053E+02  0.00000000000E+00 0.  1.
          5    1    3    3  501    0 -0.20378249155E+03 -0.10901231555E+02 -0.11956339284E+04  0.12129320277E+04  0.41800000000E+01 0.  1.
         -5    1    3    3    0  501 -0.84815792768E+02  0.62389145898E+02 -0.36446532005E+03  0.37939236438E+03  0.41800000000E+01 0.  1.
</event>
<event>
11    1  0.1704459E-009  0.3292299E+03  0.7561462E-02  0.9885270E-01
         22   -1    0    0    0    0  0.00000000000E+00  0.00000000000E+00  0.67677157099E+03  0.67677157099E+03  0.00000000000E+00 0. -1.
         22   -1    0    0    0    0 -0.00000000000E+00 -0.00000000000E+00 -0.79294111153E+03  0.79294111153E+03  0.00000000000E+00 0. -1.
         25    2    1    2    0    0  0.11189524029E+03  0.13070681753E+03 -0.33391812347E+03  0.39592191510E+03  0.12509209695E+03 0.  0.
        -24    2    1    2    0    0 -0.12077602330E+03 -0.43405320878E+03 -0.24131287189E+03  0.51760160163E+03  0.81795354453E+02 0.  0.
         24    2    1    2    0    0  0.88807830097E+01  0.30334639125E+03  0.45906145482E+03  0.55618916579E+03  0.80691185692E+02 0.  0.
        -11    1    5    5    0    0 -0.21976603696E+02  0.19103046188E+03  0.33317145678E+03  0.38468016337E+03  0.00000000000E+00 0.  1.
         12    1    5    5    0    0  0.30857386705E+02  0.11231592937E+03  0.12588999804E+03  0.17150900242E+03  0.00000000000E+00 0. -1.
         13    1    4    4    0    0 -0.88802758842E+02 -0.20208980440E+03 -0.14676182821E+03  0.26507593863E+03  0.00000000000E+00 0. -1.
        -14    1    4    4    0    0 -0.31973264457E+02 -0.23196340438E+03 -0.94551043680E+02  0.25252566299E+03  0.00000000000E+00 0.  1.
          5    1    3    3  501    0  0.52338021318E+02  0.12831251092E+03 -0.29104990389E+03  0.32238313835E+03  0.41800000000E+01 0.  1.
         -5    1    3    3    0  501  0.59557218972E+02  0.23943066105E+01 -0.42868219582E+02  0.73538776750E+02  0.41800000000E+01 0.  1.
</event>
<event>
11    1  0.1704459E-009  0.1536438E+03  0.7561462E-02  0.1093213E+00
         22   -1    0    0    0    0  0.00000000000E+00  0.00000000000E+00  0.14442590380E+04  0.14442590380E+04  0.00000000000E+00 0.  1.
         22   -1    0    0    0    0 -0.00000000000E+00 -0.00000000000E+00 -0.21975340994E+03  0.21975340994E+03  0.00000000000E+00 0.  1.
         25    2    1    2    0    0  0.47532982943E+02  0.74430130945E+02 -0.16365739514E+03  0.22413061396E+03  0.12510619597E+03 0.  0.
        -24    2    1    2    0    0 -0.15359354122E+03 -0.12563987627E+02  0.34340951217E+03  0.38474691414E+03  0.79694825429E+02 0.  0.
         24    2    1    2    0    0  0.10606055828E+03 -0.61866143319E+02  0.10447535110E+04  0.10551349199E+04  0.81997186220E+02 0.  0.
        -13    1    5    5    0    0  0.81009738625E+02 -0.27318642381E+02  0.40321271500E+03  0.41217639368E+03  0.00000000000E+00 0.  1.
         14    1    5    5    0    0  0.25050819656E+02 -0.34547500937E+02  0.64154079605E+03  0.64295852618E+03  0.00000000000E+00 0. -1.
         13    1    4    4    0    0 -0.79471779114E+02  0.33399962118E+01  0.26064015423E+03  0.27250726458E+03  0.00000000000E+00 0. -1.
        -14    1    4    4    0    0 -0.74121762110E+02 -0.15903983838E+02  0.82769357943E+02  0.11223964957E+03  0.00000000000E+00 0.  1.
          5    1    3    3  501    0  0.46226449513E+01  0.56169924189E+02 -0.27849812396E+01  0.56583193179E+02  0.41800000000E+01 0.  1.
         -5    1    3    3    0  501  0.42910337991E+02  0.18260206756E+02 -0.16087241390E+03  0.16754742078E+03  0.41800000000E+01 0.  1.
</event>
<event>
11    1  0.1704459E-009  0.4567911E+03  0.7561462E-02  0.9495619E-01
         22   -1    0    0    0    0  0.00000000000E+00  0.00000000000E+00  0.59447165763E+03  0.59447165763E+03  0.00000000000E+00 0.  1.
         22   -1    0    0    0    0 -0.00000000000E+00 -0.00000000000E+00 -0.11657248416E+04  0.11657248416E+04  0.00000000000E+00 0.  1.
         25    2    1    2    0    0 -0.23665033895E+03 -0.12625391655E+03 -0.10209135267E+03  0.31307091527E+03  0.12508924545E+03 0.  0.
        -24    2    1    2    0    0  0.60169251195E+03 -0.10230114725E+03 -0.71663062448E+03  0.94387720391E+03  0.69608336000E+02 0.  0.
         24    2    1    2    0    0 -0.36504217300E+03  0.22855506380E+03  0.24746879316E+03  0.50324838007E+03  0.80776996719E+02 0.  0.
        -13    1    5    5    0    0 -0.24544260290E+03  0.15899322303E+03  0.12339709455E+03  0.31740787519E+03  0.00000000000E+00 0.  1.
         14    1    5    5    0    0 -0.11959957009E+03  0.69561840770E+02  0.12407169861E+03  0.18584050488E+03  0.00000000000E+00 0. -1.
         13    1    4    4    0    0  0.29423717297E+03 -0.16996991131E+02 -0.36288886977E+03  0.46749624968E+03  0.00000000000E+00 0. -1.
        -14    1    4    4    0    0  0.30745533898E+03 -0.85304156121E+02 -0.35374175471E+03  0.47638095422E+03  0.00000000000E+00 0.  1.
          5    1    3    3  501    0 -0.23810954468E+01 -0.95088599328E+01 -0.43536492124E+02  0.44821719950E+02  0.41800000000E+01 0.  1.
         -5    1    3    3    0  501 -0.23426924350E+03 -0.11674505661E+03 -0.58554860545E+02  0.26824919532E+03  0.41800000000E+01 0.  1.
</event>
<event>
11    1  0.1704459E-009  0.1549748E+03  0.7561462E-02  0.1091901E+00
         22   -1    0    0    0    0  0.00000000000E+00  0.00000000000E+00  0.11055636762E+04  0.11055636762E+04  0.00000000000E+00 0.  1.
         22   -1    0    0    0    0 -0.00000000000E+00 -0.00000000000E+00 -0.12830494947E+03  0.12830494947E+03  0.00000000000E+00 0.  1.
         25    2    1    2    0    0 -0.50437856581E+02  0.79200007947E+02 -0.58084073346E+02  0.16684687730E+03  0.12508997663E+03 0.  0.
        -24    2    1    2    0    0  0.10394720160E+03 -0.15012335414E+02  0.42022626651E+03  0.44117009327E+03  0.83728998579E+02 0.  0.
         24    2    1    2    0    0 -0.53509345023E+02 -0.64187672533E+02  0.61511653354E+03  0.62585165506E+03  0.79615557553E+02 0.  0.
        -11    1    5    5    0    0 -0.22182100891E+02 -0.74928019846E+02  0.49987872804E+03  0.50594959878E+03  0.00000000000E+00 0.  1.
         12    1    5    5    0    0 -0.31327244132E+02  0.10740347313E+02  0.11523780550E+03  0.11990205628E+03  0.00000000000E+00 0. -1.
         13    1    4    4    0    0  0.17242972379E+02  0.21933599451E+02  0.19549903062E+03  0.19747980619E+03  0.00000000000E+00 0. -1.
        -14    1    4    4    0    0  0.86704229225E+02 -0.36945934864E+02  0.22472723589E+03  0.24369028708E+03  0.00000000000E+00 0.  1.
          5    1    3    3  501    0  0.21910157924E+02  0.49132486800E+02 -0.69042669544E+02  0.87626587844E+02  0.41800000000E+01 0. -1.
         -5    1    3    3    0  501 -0.72348014505E+02  0.30067521147E+02  0.10958596198E+02  0.79220289455E+02  0.41800000000E+01 0. -1.
</event>
<event>
11    1  0.1704459E-009  0.1820106E+03  0.7561462E-02  0.1068028E+00
         22   -1    0    0    0    0  0.00000000000E+00  0.00000000000E+00  0.85622422574E+03  0.85622422574E+03  0.00000000000E+00 0.  1.
         22   -1    0    0    0    0 -0.00000000000E+00 -0.00000000000E+00 -0.17224312921E+03  0.17224312921E+03  0.00000000000E+00 0.  1.
         25    2    1    2    0    0  0.12297459247E+03 -0.43399343336E+02 -0.98430486881E+02  0.20577610517E+03  0.12509592845E+03 0.  0.
        -24    2    1    2    0    0 -0.13839947858E+03  0.56533937198E+02  0.49678394002E+03  0.52535388932E+03  0.82776350676E+02 0.  0.
         24    2    1    2    0    0  0.15424886104E+02 -0.13134593862E+02  0.28562764339E+03  0.29733736047E+03  0.80099379511E+02 0.  0.
        -13    1    5    5    0    0 -0.12199582904E+02 -0.41137436024E+02  0.16315565191E+03  0.16870354240E+03  0.00000000000E+00 0.  1.
         14    1    5    5    0    0  0.27624469008E+02  0.28002842162E+02  0.12247199147E+03  0.12863381807E+03  0.00000000000E+00 0. -1.
         13    1    4    4    0    0  0.92381633927E+01  0.43175661693E+01  0.70148930690E+02  0.70886229392E+02  0.00000000000E+00 0. -1.
        -14    1    4    4    0    0 -0.14763764197E+03  0.52216371029E+02  0.42663500933E+03  0.45446765993E+03  0.00000000000E+00 0.  1.
          5    1    3    3  501    0  0.84883202897E+01 -0.54410594378E+02 -0.14058590821E+01  0.55245028750E+02  0.41800000000E+01 0.  1.
         -5    1    3    3    0  501  0.11448627218E+03  0.11011251041E+02 -0.97024627799E+02  0.15053107642E+03  0.41800000000E+01 0.  1.
</event>
<event>
11    1  0.1704459E-009  0.1655861E+03  0.7561462E-02  0.1081938E+00
         22   -1    0    0    0    0  0.00000000000E+00  0.00000000000E+00  0.12656979796E+03  0.12656979796E+03  0.00000000000E+00 0. -1.
         22   -1    0    0    0    0 -0.00000000000E+00 -0.00000000000E+00 -0.12937539962E+04  0.12937539962E+04  0.00000000000E+00 0. -1.
         25    2    1    2    0    0 -0.71343408714E+02 -0.82579558006E+02 -0.10689698080E+04  0.10817832623E+04  0.12509720504E+03 0.  0.
         24    2    1    2    0    0 -0.52254803470E+02  0.61681834401E+02 -0.14411141652E+03  0.18272550456E+03  0.78008310235E+02 0.  0.
        -24    2    1    2    0    0  0.12359821218E+03  0.20897723605E+02  0.45897026296E+02  0.15581502732E+03  0.80365121843E+02 0.  0.
        -11    1    4    4    0    0 -0.19046369188E+02 -0.17878840191E+02 -0.32800980841E+02  0.41932343721E+02  0.00000000000E+00 0.  1.
         12    1    4    4    0    0 -0.33208434283E+02  0.79560674591E+02 -0.11131043568E+03  0.14079316084E+03  0.00000000000E+00 0. -1.
         13    1    5    5    0    0  0.61388111150E+02 -0.29717177766E+02  0.14749370949E+02  0.69779329234E+02  0.00000000000E+00 0. -1.
        -14    1    5    5    0    0  0.62210101035E+02  0.50614901371E+02  0.31147655346E+02  0.86035698086E+02  0.00000000000E+00 0.  1.
          5    1    3    3  501    0 -0.85962689299E+02 -0.10214226918E+03 -0.99128343524E+03  0.10002414451E+04  0.41800000000E+01 0.  1.
         -5    1    3    3    0  501  0.14619280585E+02  0.19562711170E+02 -0.77686372784E+02  0.81541817182E+02  0.41800000000E+01 0.  1.
</event>
<event>
11    1  0.1704459E-009  0.3214976E+03  0.7561462E-02  0.9914822E-01
         22   -1    0    0    0    0  0.00000000000E+00  0.00000000000E+00  0.18812152139E+03  0.18812152139E+03  0.00000000000E+00 0.  1.
         22   -1    0    0    0    0 -0.00000000000E+00 -0.00000000000E+00 -0.29407158554E+04  0.29407158554E+04  0.00000000000E+00 0.  1.
         25    2    1    2    0    0 -0.13291556939E+03 -0.26079105654E+03 -0.23551094592E+04  0.23765242219E+04  0.12509311962E+03 0.  0.
         24    2    1    2    0    0 -0.10510639159E+02  0.35448029089E+03 -0.42731546574E+03  0.56150279804E+03  0.83187347439E+02 0.  0.
        -24    2    1    2    0    0  0.14342620855E+03 -0.93689234352E+02  0.29830590957E+02  0.19081035686E+03  0.78549208745E+02 0.  0.
        -13    1    4    4    0    0 -0.10089575742E+02  0.34248330853E+03 -0.42937145045E+03  0.54932363741E+03  0.00000000000E+00 0.  1.
         14    1    4    4    0    0 -0.42106341767E+00  0.11996982369E+02  0.20559847119E+01  0.12179160623E+02  0.00000000000E+00 0. -1.
         13    1    5    5    0    0  0.28512540729E+02  0.44218512102E+01  0.27252908204E+02  0.39689277550E+02  0.00000000000E+00 0. -1.
        -14    1    5    5    0    0  0.11491366782E+03 -0.98111085562E+02  0.25776827532E+01  0.15112107931E+03  0.00000000000E+00 0.  1.
          5    1    3    3  501    0 -0.12274909233E+03 -0.22640855541E+03 -0.22627215929E+04  0.22773349892E+04  0.41800000000E+01 0.  1.
         -5    1    3    3    0  501 -0.10166477058E+02 -0.34382501130E+02 -0.92387866284E+02  0.99189232663E+02  0.41800000000E+01 0.  1.
</event>
<event>
11    1  0.1704459E-009  0.2871018E+03  0.7561462E-02  0.1005803E+00
         22   -1    0    0    0    0  0.00000000000E+00  0.00000000000E+00  0.34989068799E+03  0.34989068799E+03  0.00000000000E+00 0.  1.
         22   -1    0    0    0    0 -0.00000000000E+00 -0.00000000000E+00 -0.94337597597E+03  0.94337597597E+03  0.00000000000E+00 0.  1.
         25    2    1    2    0    0  0.19199525772E+03  0.20959201272E+03 -0.49952329211E+03  0.58818617982E+03  0.12509385271E+03 0.  0.
         24    2    1    2    0    0 -0.35892629121E+02 -0.25265112861E+03 -0.31722901862E+03  0.41454153639E+03  0.78035642633E+02 0.  0.
        -24    2    1    2    0    0 -0.15610262860E+03  0.43059115888E+02  0.22326702275E+03  0.29053894775E+03  0.91337826760E+02 0.  0.
        -11    1    4    4    0    0 -0.18107967254E+02 -0.60619414730E+02 -0.33816654095E+02  0.71736866494E+02  0.00000000000E+00 0.  1.
         12    1    4    4    0    0 -0.17784661867E+02 -0.19203171388E+03 -0.28341236453E+03  0.34280466989E+03  0.00000000000E+00 0. -1.
         11    1    5    5    0    0 -0.28384981397E+02 -0.25729647031E+02  0.68003895443E+02  0.78052877593E+02  0.00000000000E+00 0. -1.
        -12    1    5    5    0    0 -0.12771764720E+03  0.68788762919E+02  0.15526312731E+03  0.21248607016E+03  0.00000000000E+00 0.  1.
          5    1    3    3  501    0  0.93939114643E+02  0.12415047364E+03 -0.38322985796E+03  0.41366712922E+03  0.41800000000E+01 0.  1.
         -5    1    3    3    0  501  0.98056143074E+02  0.85441539081E+02 -0.11629343415E+03  0.17451905060E+03  0.41800000000E+01 0.  1.
</event>
<event>
11    1  0.1704459E-009  0.1380863E+04  0.7561462E-02  0.8382729E-01
         22   -1    0    0    0    0  0.00000000000E+00  0.00000000000E+00  0.30489452995E+03  0.30489452995E+03  0.00000000000E+00 0. -1.
         22   -1    0    0    0    0 -0.00000000000E+00 -0.00000000000E+00 -0.15634771253E+04  0.15634771253E+04  0.00000000000E+00 0. -1.
         25    2    1    2    0    0  0.14280579135E+03 -0.49608134587E+03 -0.11996429603E+04  0.13119754198E+04  0.12508426770E+03 0.  0.
        -24    2    1    2    0    0 -0.99514456299E+02  0.37683109834E+03 -0.71943840399E+02  0.40406543786E+03  0.78664847365E+02 0.  0.
         24    2    1    2    0    0 -0.43291335055E+02  0.11925024753E+03  0.13004205392E+02  0.15233079760E+03  0.83311471680E+02 0.  0.
        -13    1    5    5    0    0  0.13465535042E+02  0.33274502026E+02  0.31387508481E+02  0.47683213059E+02  0.00000000000E+00 0.  1.
         14    1    5    5    0    0 -0.56756870098E+02  0.85975745504E+02 -0.18383303089E+02  0.10464758454E+03  0.00000000000E+00 0. -1.
         13    1    4    4    0    0 -0.10205781524E+02  0.83469803218E+02  0.14787869739E+02  0.85381772745E+02  0.00000000000E+00 0. -1.
        -14    1    4    4    0    0 -0.89308674775E+02  0.29336129513E+03 -0.86731710137E+02  0.31868366512E+03  0.00000000000E+00 0.  1.
          5    1    3    3  501    0 -0.28073412740E+01 -0.13245637938E+03 -0.21899913466E+03  0.25598958374E+03  0.41800000000E+01 0. -1.
         -5    1    3    3    0  501  0.14561313263E+03 -0.36362496650E+03 -0.98064382568E+03  0.10559858360E+04  0.41800000000E+01 0. -1.
</event>
<event>
11    1  0.1704459E-009  0.1769258E+03  0.7561462E-02  0.1072157E+00
         22   -1    0    0    0    0  0.00000000000E+00  0.00000000000E+00  0.26263581176E+04  0.26263581176E+04  0.00000000000E+00 0.  1.
         22   -1    0    0    0    0 -0.00000000000E+00 -0.00000000000E+00 -0.64299561049E+02  0.64299561049E+02  0.00000000000E+00 0.  1.
         25    2    1    2    0    0  0.14580865026E+02  0.42789168272E+02  0.17410918267E+03  0.21910145818E+03  0.12509167414E+03 0.  0.
         24    2    1    2    0    0  0.36938408046E+02 -0.18640981854E+03  0.24055414632E+03  0.31709961789E+03  0.81072830928E+02 0.  0.
        -24    2    1    2    0    0 -0.51519273072E+02  0.14362065026E+03  0.21473952276E+04  0.21544566026E+04  0.84236941973E+02 0.  0.
        -11    1    4    4    0    0  0.68938994476E+01 -0.17378172945E+03  0.20605118394E+03  0.26963810143E+03  0.00000000000E+00 0.  1.
         12    1    4    4    0    0  0.30044508599E+02 -0.12628089082E+02  0.34502962382E+02  0.47461516452E+02  0.00000000000E+00 0. -1.
         11    1    5    5    0    0  0.15482254142E+02  0.76143951975E+02  0.11076704029E+04  0.11103924185E+04  0.00000000000E+00 0. -1.
        -12    1    5    5    0    0 -0.67001527214E+02  0.67476698288E+02  0.10397248247E+04  0.10440641841E+04  0.00000000000E+00 0.  1.
          5    1    3    3  501    0 -0.45175579431E+02  0.45389499407E+02  0.12895627498E+03  0.14404246905E+03  0.41800000000E+01 0.  1.
         -5    1    3    3    0  501  0.59756444457E+02 -0.26003311352E+01  0.45152907688E+02  0.75058989128E+02  0.41800000000E+01 0.  1.
</event>
<event>
11    1  0.1704459E-009  0.6045215E+03  0.7561462E-02  0.9186197E-01
         22   -1    0    0    0    0  0.00000000000E+00  0.00000000000E+00  0.13416876765E+04  0.13416876765E+04  0.00000000000E+00 0.  1.
         22   -1    0    0    0    0 -0.00000000000E+00 -0.00000000000E+00 -0.77332132803E+03  0.77332132803E+03  0.00000000000E+00 0.  1.
         25    2    1    2    0    0 -0.31324695146E+03 -0.48669140368E+03 -0.24948856799E+03  0.64256035551E+03  0.12508832840E+03 0.  0.
         24    2    1    2    0    0  0.70133091285E+03  0.24913895502E+03  0.39624699660E+03  0.84696556877E+03  0.80023272441E+02 0.  0.
        -24    2    1    2    0    0 -0.38808396140E+03  0.23755244866E+03  0.42160791988E+03  0.62548308027E+03  0.80221684315E+02 0.  0.
        -11    1    4    4    0    0  0.20497073937E+03  0.10938161259E+03  0.10793132177E+03  0.25617671907E+03  0.00000000000E+00 0.  1.
         12    1    4    4    0    0  0.49636017348E+03  0.13975734243E+03  0.28831567483E+03  0.59078884970E+03  0.00000000000E+00 0. -1.
         13    1    5    5    0    0 -0.18496996477E+03  0.15795702853E+03  0.20574637067E+03  0.31858418004E+03  0.00000000000E+00 0. -1.
        -14    1    5    5    0    0 -0.20311399663E+03  0.79595420135E+02  0.21586154921E+03  0.30689890023E+03  0.00000000000E+00 0.  1.
          5    1    3    3  501    0 -0.80140055525E+02 -0.93711597191E+02 -0.30685635704E+01  0.12341466862E+03  0.41800000000E+01 0. -1.
         -5    1    3    3    0  501 -0.23310689593E+03 -0.39297980649E+03 -0.24642000442E+03  0.51914568689E+03  0.41800000000E+01 0. -1.
</event>
<event>
11    1  0.1704459E-009  0.1068413E+04  0.7561462E-02  0.8616535E-01
         22   -1    0    0    0    0  0.00000000000E+00  0.00000000000E+00  0.99192049142E+03  0.99192049142E+03  0.00000000000E+00 0.  1.
         22   -1    0    0    0    0 -0.00000000000E+00 -0.00000000000E+00 -0.28770094347E+03  0.28770094347E+03  0.00000000000E+00 0.  1.
         25    2    1    2    0    0 -0.33255919260E+03 -0.34872503659E+03  0.21529407524E+03  0.54240457485E+03  0.12508563571E+03 0.  0.
         24    2    1    2    0    0  0.29389406635E+03  0.34482423834E+03  0.42680969900E+03  0.62780363969E+03  0.81813282959E+02 0.  0.
        -24    2    1    2    0    0  0.38665126245E+02  0.39007982521E+01  0.62115773715E+02  0.10941322035E+03  0.81256847273E+02 0.  0.
        -11    1    4    4    0    0  0.23480978828E+03  0.21808108886E+03  0.30324321124E+03  0.44119320389E+03  0.00000000000E+00 0.  1.
         12    1    4    4    0    0  0.59084278074E+02  0.12674314948E+03  0.12356648775E+03  0.18661043581E+03  0.00000000000E+00 0. -1.
         11    1    5    5    0    0  0.63749795292E+01 -0.30645404439E+02  0.52553031103E+02  0.61168637841E+02  0.00000000000E+00 0. -1.
        -12    1    5    5    0    0  0.32290146715E+02  0.34546202691E+02  0.95627426123E+01  0.48244582510E+02  0.00000000000E+00 0.  1.
          5    1    3    3  501    0 -0.16897825716E+03 -0.25471059856E+03  0.10185794901E+03  0.32221678198E+03  0.41800000000E+01 0. -1.
         -5    1    3    3    0  501 -0.16358093544E+03 -0.94014438029E+02  0.11343612623E+03  0.22018779287E+03  0.41800000000E+01 0. -1.
</event>
<event>
11    1  0.1704459E-009  0.2092762E+03  0.7561462E-02  0.1048151E+00
         22   -1    0    0    0    0  0.00000000000E+00  0.00000000000E+00  0.60870268153E+03  0.60870268153E+03  0.00000000000E+00 0. -1.
         22   -1    0    0    0    0 -0.00000000000E+00 -0.00000000000E+00 -0.12429729742E+04  0.12429729742E+04  0.00000000000E+00 0.  1.
         25    2    1    2    0    0 -0.74422631145E+02 -0.27130233401E+03 -0.98826919319E+03  0.10351165179E+04  0.12508606233E+03 0.  0.
         24    2    1    2    0    0  0.46831821279E+02  0.10751112228E+03 -0.19273120532E+03  0.23950325396E+03  0.80402924415E+02 0.  0.
        -24    2    1    2    0    0  0.27590809866E+02  0.16379121173E+03  0.54673010587E+03  0.57705588382E+03  0.80565939203E+02 0.  0.
        -11    1    4    4    0    0  0.67307507456E+02  0.77749740843E+02 -0.16294540161E+03  0.19268245033E+03  0.00000000000E+00 0.  1.
         12    1    4    4    0    0 -0.20475686177E+02  0.29761381436E+02 -0.29785803712E+02  0.46820803625E+02  0.00000000000E+00 0. -1.
         13    1    5    5    0    0  0.84120768155E+00  0.11470551087E+03  0.45830874586E+03  0.47244573063E+03  0.00000000000E+00 0. -1.
        -14    1    5    5    0    0  0.26749602185E+02  0.49085700852E+02  0.88421360005E+02  0.10461015319E+03  0.00000000000E+00 0.  1.
          5    1    3    3  501    0  0.18167956477E+02 -0.12762672944E+03 -0.31290654230E+03  0.33844738635E+03  0.41800000000E+01 0.  1.
         -5    1    3    3    0  501 -0.92590587622E+02 -0.14367560456E+03 -0.67536265089E+03  0.69666913157E+03  0.41800000000E+01 0.  1.
</event>
<event>
11    1  0.1704459E-009  0.5948646E+03  0.7561462E-02  0.9203422E-01
         22   -1    0    0    0    0  0.00000000000E+00  0.00000000000E+00  0.44675432345E+03  0.44675432345E+03  0.00000000000E+00 0.  1.
         22   -1    0    0    0    0 -0.00000000000E+00 -0.00000000000E+00 -0.10303061680E+04  0.10303061680E+04  0.00000000000E+00 0.  1.
         25    2    1    2    0    0 -0.59245357276E+01 -0.57629097551E+03 -0.45142140675E+03  0.74268238444E+03  0.12509775820E+03 0.  0.
         24    2    1    2    0    0  0.40316895845E+02  0.58865306663E+03 -0.18751100923E+03  0.62533485992E+03  0.88008087702E+02 0.  0.
        -24    2    1    2    0    0 -0.34392360117E+02 -0.12362091124E+02  0.55380571407E+02  0.10904324712E+03  0.86531880381E+02 0.  0.
        -11    1    4    4    0    0 -0.71345408605E+01  0.48580791041E+02  0.64647009154E+01  0.49525622554E+02  0.00000000000E+00 0.  1.
         12    1    4    4    0    0  0.47451436705E+02  0.54007227559E+03 -0.19397571015E+03  0.57580923736E+03  0.00000000000E+00 0. -1.
         13    1    5    5    0    0 -0.96235568926E+01 -0.44298754204E+02  0.51242184468E+02  0.68416035696E+02  0.00000000000E+00 0. -1.
        -14    1    5    5    0    0 -0.24768803225E+02  0.31936663080E+02  0.41383869382E+01  0.40627211427E+02  0.00000000000E+00 0.  1.
          5    1    3    3  501    0 -0.10144233398E+02 -0.15922981527E+03 -0.19917837325E+03  0.25523819525E+03  0.41800000000E+01 0.  1.
         -5    1    3    3    0  501  0.42196976709E+01 -0.41706116023E+03 -0.25224303349E+03  0.48744418918E+03  0.41800000000E+01 0.  1.
</event>
<event>
11    1  0.1704459E-009  0.1638501E+03  0.7561462E-02  0.1083511E+00
         22   -1    0    0    0    0  0.00000000000E+00  0.00000000000E+00  0.50488167589E+03  0.50488167589E+03  0.00000000000E+00 0. -1.
         22   -1    0    0    0    0 -0.00000000000E+00 -0.00000000000E+00 -0.19314637556E+03  0.19314637556E+03  0.00000000000E+00 0. -1.
         25    2    1    2    0    0 -0.90141171878E+02  0.95735025028E+02  0.26063040375E+01  0.18150455194E+03  0.12508590516E+03 0.  0.
        -24    2    1    2    0    0  0.12946377506E+02 -0.10039785071E+03 -0.51916381996E+02  0.13860530549E+03  0.79175645711E+02 0.  0.
         24    2    1    2    0    0  0.77194794372E+02  0.46628256832E+01  0.36104537829E+03  0.37791819402E+03  0.80545750739E+02 0.  0.
        -11    1    5    5    0    0 -0.28964470982E+01 -0.17137732169E+02  0.18192971704E+02  0.25160991417E+02  0.00000000000E+00 0.  1.
         12    1    5    5    0    0  0.80091241470E+02  0.21800557852E+02  0.34285240659E+03  0.35275720260E+03  0.00000000000E+00 0. -1.
         11    1    4    4    0    0  0.34501251267E+02 -0.65868024045E+02 -0.61835769122E+02  0.96708816938E+02  0.00000000000E+00 0. -1.
        -12    1    4    4    0    0 -0.21554873761E+02 -0.34529826665E+02  0.99193871253E+01  0.41896488556E+02  0.00000000000E+00 0.  1.
          5    1    3    3  501    0  0.22324328169E+02 -0.11757802983E+02 -0.31481527470E+01  0.25768291075E+02  0.41800000000E+01 0. -1.
         -5    1    3    3    0  501 -0.11246550005E+03  0.10749282801E+03  0.57544567845E+01  0.15573626086E+03  0.41800000000E+01 0. -1.
</event>
<event>
11    1  0.1704459E-009  0.2202392E+03  0.7561462E-02  0.1041068E+00
         22   -1    0    0    0    0  0.00000000000E+00  0.00000000000E+00  0.64347516828E+03  0.64347516828E+03  0.00000000000E+00 0. -1.
         22   -1    0    0    0    0 -0.00000000000E+00 -0.00000000000E+00 -0.21103472178E+03  0.21103472178E+03  0.00000000000E+00 0. -1.
         25    2    1    2    0    0 -0.12218491784E+03 -0.10662399625E+03 -0.97627216303E+02  0.22688305310E+03  0.12508803179E+03 0.  0.
        -24    2    1    2    0    0 -0.22764928470E+02 -0.60188904315E+01  0.29884435436E+02  0.88783619559E+02  0.80218343354E+02 0.  0.
         24    2    1    2    0    0  0.14494984631E+03  0.11264288668E+03  0.50018322736E+03  0.53884321740E+03  0.80435527874E+02 0.  0.
        -11    1    5    5    0    0  0.39444974748E+02  0.17363307599E+02  0.46463339078E+02  0.63373751365E+02  0.00000000000E+00 0.  1.
         12    1    5    5    0    0  0.10550487156E+03  0.95279579080E+02  0.45371988828E+03  0.47546946604E+03  0.00000000000E+00 0. -1.
         11    1    4    4    0    0  0.27410703822E+02  0.55552859538E+01 -0.22956111048E+01  0.28062033362E+02  0.00000000000E+00 0. -1.
        -12    1    4    4    0    0 -0.50175632292E+02 -0.11574176385E+02  0.32180046541E+02  0.60721586197E+02  0.00000000000E+00 0.  1.
          5    1    3    3  501    0 -0.35310373962E+02 -0.55162303279E+02  0.22977191579E+02  0.69535069895E+02  0.41800000000E+01 0.  1.
         -5    1    3    3    0  501 -0.86874543882E+02 -0.51461692969E+02 -0.12060440788E+03  0.15734798320E+03  0.41800000000E+01 0.  1.
</event>
<event>
11    1  0.1704459E-009  0.2117692E+03  0.7561462E-02  0.1046499E+00
         22   -1    0    0    0    0  0.00000000000E+00  0.00000000000E+00  0.13768448000E+04  0.13768448000E+04  0.00000000000E+00 0.  1.
         22   -1    0    0    0    0 -0.00000000000E+00 -0.00000000000E+00 -0.87080070921E+02  0.87080070921E+02  0.00000000000E+00 0. -1.
         25    2    1    2    0    0  0.95401742976E+00 -0.18760525412E+02  0.29360624373E+02  0.12984324697E+03  0.12507739626E+03 0.  0.
         24    2    1    2    0    0 -0.12161842568E+03  0.16531820095E+03  0.50551363612E+03  0.55145827633E+03  0.80256122544E+02 0.  0.
        -24    2    1    2    0    0  0.12066440825E+03 -0.14655767554E+03  0.75489046856E+03  0.78262334760E+03  0.81244279806E+02 0.  0.
        -11    1    4    4    0    0 -0.12286035448E+03  0.13870121068E+03  0.48018701433E+03  0.51469628061E+03  0.00000000000E+00 0.  1.
         12    1    4    4    0    0  0.12419288000E+01  0.26616990269E+02  0.25326621790E+02  0.36761995721E+02  0.00000000000E+00 0. -1.
         11    1    5    5    0    0  0.52811305781E+02 -0.61947791737E+02  0.17943752264E+03  0.19703905057E+03  0.00000000000E+00 0. -1.
        -12    1    5    5    0    0  0.67853102468E+02 -0.84609883800E+02  0.57545294592E+03  0.58558429703E+03  0.00000000000E+00 0.  1.
          5    1    3    3  501    0  0.41367395022E+02 -0.45951667356E+02  0.47098223324E+02  0.77836573306E+02  0.41800000000E+01 0.  1.
         -5    1    3    3    0  501 -0.40413377592E+02  0.27191141944E+02 -0.17737598951E+02  0.52006673660E+02  0.41800000000E+01 0.  1.
</event>
<event>
11    1  0.1704459E-009  0.2398430E+03  0.7561462E-02  0.1029453E+00
         22   -1    0    0    0    0  0.00000000000E+00  0.00000000000E+00  0.12308229814E+04  0.12308229814E+04  0.00000000000E+00 0. -1.
         22   -1    0    0    0    0 -0.00000000000E+00 -0.00000000000E+00 -0.64836744524E+03  0.64836744524E+03  0.00000000000E+00 0.  1.
         25    2    1    2    0    0 -0.19778103588E+03 -0.47885180065E+02 -0.58878861876E+03  0.63539755801E+03  0.12509072917E+03 0.  0.
        -24    2    1    2    0    0  0.25293468237E+03 -0.46196735151E+02  0.60870950083E+03  0.66569601383E+03  0.80708330115E+02 0.  0.
         24    2    1    2    0    0 -0.55153646493E+02  0.94081915216E+02  0.56253465411E+03  0.57809685482E+03  0.76533685289E+02 0.  0.
        -13    1    5    5    0    0 -0.15344391191E+02 -0.43919573472E+01  0.21738181453E+02  0.26968280688E+02  0.00000000000E+00 0.  1.
         14    1    5    5    0    0 -0.39809255302E+02  0.98473872563E+02  0.54079647266E+03  0.55112857413E+03  0.00000000000E+00 0. -1.
         13    1    4    4    0    0  0.16985456255E+03 -0.65683734963E+02  0.37466622470E+03  0.41658097098E+03  0.00000000000E+00 0. -1.
        -14    1    4    4    0    0  0.83080119818E+02  0.19486999812E+02  0.23404327613E+03  0.24911504285E+03  0.00000000000E+00 0.  1.
          5    1    3    3  501    0 -0.58586384434E+01 -0.41265620141E+02 -0.16285207751E+03  0.16815304517E+03  0.41800000000E+01 0.  1.
         -5    1    3    3    0  501 -0.19192239743E+03 -0.66195599241E+01 -0.42593654124E+03  0.46724451284E+03  0.41800000000E+01 0.  1.
</event>
<event>
11    1  0.1704459E-009  0.2441845E+03  0.7561462E-02  0.1027044E+00
         22   -1    0    0    0    0  0.00000000000E+00  0.00000000000E+00  0.12272848781E+04  0.12272848781E+04  0.00000000000E+00 0. -1.
         22   -1    0    0    0    0 -0.00000000000E+00 -0.00000000000E+00 -0.36070562536E+03  0.36070562536E+03  0.00000000000E+00 0.  1.
         25    2    1    2    0    0  0.16816525499E+03 -0.14599948935E+03 -0.28099843946E+03  0.37974033160E+03  0.12508873884E+03 0.  0.
         24    2    1    2    0    0 -0.54021061253E+02  0.13839537010E+03  0.26605095472E+03  0.31578722581E+03  0.82866808498E+02 0.  0.
        -24    2    1    2    0    0 -0.11414419374E+03  0.76041192461E+01  0.88152673751E+03  0.89246294608E+03  0.79460692087E+02 0.  0.
        -11    1    4    4    0    0 -0.34450605090E+02  0.11591473571E+03  0.25796871780E+03  0.28490512370E+03  0.00000000000E+00 0.  1.
         12    1    4    4    0    0 -0.19570456163E+02  0.22480634394E+02  0.80822369222E+01  0.30882102112E+02  0.00000000000E+00 0. -1.
         13    1    5    5    0    0 -0.78316254386E+02 -0.26356526899E+02  0.67885912717E+03  0.68386973669E+03  0.00000000000E+00 0. -1.
        -14    1    5    5    0    0 -0.35827939353E+02  0.33960646145E+02  0.20266761034E+03  0.20859320939E+03  0.00000000000E+00 0.  1.
          5    1    3    3  501    0  0.17889081707E+02 -0.18838072743E+02 -0.12719602307E+03  0.12988915626E+03  0.41800000000E+01 0.  1.
         -5    1    3    3    0  501  0.15027617328E+03 -0.12716141661E+03 -0.15380241640E+03  0.24985117534E+03  0.41800000000E+01 0.  1.
</event>
<event>
11    1  0.1704459E-009  0.1479208E+03  0.7561462E-02  0.1099022E+00
         22   -1    0    0    0    0  0.00000000000E+00  0.00000000000E+00  0.63365807431E+03  0.63365807431E+03  0.00000000000E+00 0.  1.
         22   -1    0    0    0    0 -0.00000000000E+00 -0.00000000000E+00 -0.23033413909E+03  0.23033413909E+03  0.00000000000E+00 0.  1.
         25    2    1    2    0    0 -0.50571919178E+02 -0.71402087211E+02 -0.93062832701E+02  0.17878475692E+03  0.12509005320E+03 0.  0.
         24    2    1    2    0    0  0.16060315611E+02  0.74159132566E+00 -0.67986213648E+02  0.10947202935E+03  0.84282360368E+02 0.  0.
        -24    2    1    2    0    0  0.34511603567E+02  0.70660495885E+02  0.56437298157E+03  0.57573542713E+03  0.82282824850E+02 0.  0.
        -13    1    4    4    0    0  0.19881575978E+02 -0.67459254226E+01 -0.86567851622E+02  0.89077368100E+02  0.00000000000E+00 0.  1.
         14    1    4    4    0    0 -0.38212603671E+01  0.74875167482E+01  0.18581637973E+02  0.20394661253E+02  0.00000000000E+00 0. -1.
         13    1    5    5    0    0  0.67661375195E+01 -0.16144482015E+02  0.42474931704E+02  0.45940665426E+02  0.00000000000E+00 0. -1.
        -14    1    5    5    0    0  0.27745466048E+02  0.86804977900E+02  0.52189804986E+03  0.52979476170E+03  0.00000000000E+00 0.  1.
          5    1    3    3  501    0  0.33254175794E+02 -0.50296533487E+02 -0.15088068104E+02  0.62295294266E+02  0.41800000000E+01 0. -1.
         -5    1    3    3    0  501 -0.83826094972E+02 -0.21105553724E+02 -0.77974764597E+02  0.11648946266E+03  0.41800000000E+01 0. -1.
</event>
<event>
11    1  0.1704459E-009  0.1481742E+03  0.7561462E-02  0.1098759E+00
         22   -1    0    0    0    0  0.00000000000E+00  0.00000000000E+00  0.16026670682E+04  0.16026670682E+04  0.00000000000E+00 0.  1.
         22   -1    0    0    0    0 -0.00000000000E+00 -0.00000000000E+00 -0.29475330559E+03  0.29475330559E+03  0.00000000000E+00 0. -1.
         25    2    1    2    0    0  0.59983843142E+02 -0.50833319132E+02 -0.10240178156E+03  0.17974931063E+03  0.12506639050E+03 0.  0.
        -24    2    1    2    0    0 -0.79842332937E+02  0.21579986519E+02 -0.13054510120E+03  0.17432683493E+03  0.80668010897E+02 0.  0.
         24    2    1    2    0    0  0.19858489795E+02  0.29253332614E+02  0.15408606453E+04  0.15433442282E+04  0.80060984551E+02 0.  0.
        -13    1    5    5    0    0 -0.62327417245E+01  0.40157693299E+02  0.13269988316E+04  0.13276209498E+04  0.00000000000E+00 0.  1.
         14    1    5    5    0    0  0.26091231519E+02 -0.10904360685E+02  0.21386181376E+03  0.21572327836E+03  0.00000000000E+00 0. -1.
         11    1    4    4    0    0 -0.68951831233E+02  0.21954191522E+02 -0.14146602800E+03  0.15889927197E+03  0.00000000000E+00 0. -1.
        -12    1    4    4    0    0 -0.10890501704E+02 -0.37420500340E+00  0.10920926796E+02  0.15427562958E+02  0.00000000000E+00 0.  1.
          5    1    3    3  501    0  0.88857332004E+02 -0.31497057661E+02 -0.10895549118E+03  0.14414042303E+03  0.41800000000E+01 0. -1.
         -5    1    3    3    0  501 -0.28873488862E+02 -0.19336261471E+02  0.65537096166E+01  0.35608887605E+02  0.41800000000E+01 0. -1.
</event>
<event>
11    1  0.1704459E-009  0.4472994E+03  0.7561462E-02  0.9519664E-01
         22   -1    0    0    0    0  0.00000000000E+00  0.00000000000E+00  0.12211136251E+04  0.12211136251E+04  0.00000000000E+00 0. -1.
         22   -1    0    0    0    0 -0.00000000000E+00 -0.00000000000E+00 -0.10009693486E+04  0.10009693486E+04  0.00000000000E+00 0. -1.
         25    2    1    2    0    0  0.11489172105E+03 -0.41038796189E+03 -0.77998098096E+03  0.89757218864E+03  0.12508843401E+03 0.  0.
         24    2    1    2    0    0  0.15192440190E+03  0.71572773913E+02 -0.44600729826E+02  0.19156650562E+03  0.80652434035E+02 0.  0.
        -24    2    1    2    0    0 -0.26681612294E+03  0.33881518798E+03  0.10447259872E+04  0.11329442794E+04  0.78254564235E+02 0.  0.
        -13    1    4    4    0    0  0.17180862731E+02 -0.17545765145E+02 -0.89029609663E+01  0.26120846706E+02  0.00000000000E+00 0.  1.
         14    1    4    4    0    0  0.13474353917E+03  0.89118539057E+02 -0.35697768860E+02  0.16544565891E+03  0.00000000000E+00 0. -1.
         11    1    5    5    0    0 -0.21313921329E+03  0.29202304335E+03  0.79657822970E+03  0.87478149165E+03  0.00000000000E+00 0. -1.
        -12    1    5    5    0    0 -0.53676909649E+02  0.46792144629E+02  0.24814775752E+03  0.25816278778E+03  0.00000000000E+00 0.  1.
          5    1    3    3  501    0  0.13649653945E+03 -0.38958969513E+03 -0.74068205120E+03  0.84796156116E+03  0.41800000000E+01 0.  1.
         -5    1    3    3    0  501 -0.21604818401E+02 -0.20798266764E+02 -0.39298929761E+02  0.49610627480E+02  0.41800000000E+01 0.  1.
</event>
<event>
11    1  0.1704459E-009  0.1116832E+04  0.7561462E-02  0.8575197E-01
         22   -1    0    0    0    0  0.00000000000E+00  0.00000000000E+00  0.88679874080E+03  0.88679874080E+03  0.00000000000E+00 0. -1.
         22   -1    0    0    0    0 -0.00000000000E+00 -0.00000000000E+00 -0.35163390902E+03  0.35163390902E+03  0.00000000000E+00 0. -1.
         25    2    1    2    0    0  0.33064635622E+02 -0.41994756426E+03 -0.85188931475E+02  0.44760931871E+03  0.12509085215E+03 0.  0.
        -24    2    1    2    0    0 -0.62203411010E+02  0.38526420933E+03  0.50710332457E+03  0.64490491460E+03  0.80316821109E+02 0.  0.
         24    2    1    2    0    0  0.29138775388E+02  0.34683354924E+02  0.11325043869E+03  0.14591841651E+03  0.80090692802E+02 0.  0.
        -11    1    5    5    0    0  0.38848821622E+02  0.51842110076E+02  0.10727230420E+03  0.12531633001E+03  0.00000000000E+00 0.  1.
         12    1    5    5    0    0 -0.97100462340E+01 -0.17158755152E+02  0.59781344894E+01  0.20602086501E+02  0.00000000000E+00 0. -1.
         13    1    4    4    0    0 -0.64673317095E+02  0.37898455057E+03  0.47011240496E+03  0.60730354915E+03  0.00000000000E+00 0. -1.
        -14    1    4    4    0    0  0.24699060849E+01  0.62796587666E+01  0.36990919609E+02  0.37601365452E+02  0.00000000000E+00 0.  1.
          5    1    3    3  501    0 -0.20382810924E+02 -0.18849791628E+03  0.13996817078E+02  0.19015863565E+03  0.41800000000E+01 0. -1.
         -5    1    3    3    0  501  0.53447446546E+02 -0.23144964798E+03 -0.99185748553E+02  0.25745068306E+03  0.41800000000E+01 0. -1.
</event>
<event>
11    1  0.1704459E-009  0.1572055E+03  0.7561462E-02  0.1089735E+00
         22   -1    0    0    0    0  0.00000000000E+00  0.00000000000E+00  0.43598378855E+03  0.43598378855E+03  0.00000000000E+00 0.  1.
         22   -1    0    0    0    0 -0.00000000000E+00 -0.00000000000E+00 -0.12388781091E+04  0.12388781091E+04  0.00000000000E+00 0. -1.
         25    2    1    2    0    0  0.28079777948E+02  0.10303670054E+03 -0.62900549894E+03  0.65015410924E+03  0.12508961780E+03 0.  0.
         24    2    1    2    0    0  0.15461363594E+02 -0.90558377387E+02 -0.58781569937E+03  0.60039853871E+03  0.80692226222E+02 0.  0.
        -24    2    1    2    0    0 -0.43541141542E+02 -0.12478323153E+02  0.41392687778E+03  0.42430924968E+03  0.81555745770E+02 0.  0.
        -11    1    4    4    0    0  0.23365917143E+02 -0.83206672598E+00 -0.51333567655E+02  0.56407389473E+02  0.00000000000E+00 0.  1.
         12    1    4    4    0    0 -0.79045535491E+01 -0.89726310661E+02 -0.53648213172E+03  0.54399114924E+03  0.00000000000E+00 0. -1.
         13    1    5    5    0    0  0.38368782623E+01 -0.76848150725E+01  0.10020711856E+01  0.86476681342E+01  0.00000000000E+00 0. -1.
        -14    1    5    5    0    0 -0.47378019804E+02 -0.47935080801E+01  0.41292480659E+03  0.41566158155E+03  0.00000000000E+00 0.  1.
          5    1    3    3  501    0  0.62557245489E+02  0.12858868751E+02 -0.18511520948E+03  0.19586697692E+03  0.41800000000E+01 0. -1.
         -5    1    3    3    0  501 -0.34477467541E+02  0.90177831789E+02 -0.44389028946E+03  0.45428713232E+03  0.41800000000E+01 0. -1.
</event>
<event>
11    1  0.1704459E-009  0.1875739E+03  0.7561462E-02  0.1063676E+00
         22   -1    0    0    0    0  0.00000000000E+00  0.00000000000E+00  0.48522846179E+02  0.48522846179E+02  0.00000000000E+00 0.  1.
         22   -1    0    0    0    0 -0.00000000000E+00 -0.00000000000E+00 -0.24774903394E+04  0.24774903394E+04  0.00000000000E+00 0.  1.
         25    2    1    2    0    0 -0.67272120090E+02 -0.49043240966E+01 -0.94870982595E+03  0.95929496300E+03  0.12508757587E+03 0.  0.
        -24    2    1    2    0    0 -0.37911276056E+02 -0.13481948450E+03 -0.12723063267E+04  0.12824356249E+04  0.79146601859E+02 0.  0.
         24    2    1    2    0    0  0.10518339615E+03  0.13972380860E+03 -0.20795134056E+03  0.28428259776E+03  0.83585559947E+02 0.  0.
        -11    1    5    5    0    0  0.91616828557E+02  0.14884678168E+03 -0.20140962514E+03  0.26667366723E+03  0.00000000000E+00 0.  1.
         12    1    5    5    0    0  0.13566567589E+02 -0.91229730770E+01 -0.65417154198E+01  0.17608930534E+02  0.00000000000E+00 0. -1.
         11    1    4    4    0    0 -0.25564809302E+02 -0.81627173668E+00 -0.25153147660E+03  0.25282861684E+03  0.00000000000E+00 0. -1.
        -12    1    4    4    0    0 -0.12346466754E+02 -0.13400321277E+03 -0.10207748501E+04  0.10296070080E+04  0.00000000000E+00 0.  1.
          5    1    3    3  501    0  0.46395157798E+00 -0.50640385788E+02 -0.20976039288E+03  0.21582761349E+03  0.41800000000E+01 0.  1.
         -5    1    3    3    0  501 -0.67736071668E+02  0.45736061691E+02 -0.73894943307E+03  0.74346734951E+03  0.41800000000E+01 0.  1.
</event>
<event>
11    1  0.1704459E-009  0.1707070E+03  0.7561462E-02  0.1077418E+00
         22   -1    0    0    0    0  0.00000000000E+00  0.00000000000E+00  0.97062670587E+03  0.97062670587E+03  0.00000000000E+00 0.  1.
         22   -1    0    0    0    0 -0.00000000000E+00 -0.00000000000E+00 -0.14700613595E+03  0.14700613595E+03  0.00000000000E+00 0. -1.
         25    2    1    2    0    0 -0.67342636138E+02 -0.14824991154E+03 -0.19277486504E+02  0.20619665158E+03  0.12502947943E+03 0.  0.
        -24    2    1    2    0    0 -0.48851728928E+01  0.60195809360E+02  0.66038100138E+02  0.12187364065E+03  0.82733023854E+02 0.  0.
         24    2    1    2    0    0  0.72227809031E+02  0.88054102176E+02  0.77685995628E+03  0.78956254960E+03  0.83230083136E+02 0.  0.
        -11    1    5    5    0    0  0.84555982741E+02  0.55016379544E+02  0.47134768567E+03  0.48202194662E+03  0.00000000000E+00 0.  1.
         12    1    5    5    0    0 -0.12328173710E+02  0.33037722632E+02  0.30551227062E+03  0.30754060298E+03  0.00000000000E+00 0. -1.
         13    1    4    4    0    0  0.19883031593E+02  0.37494262361E+02  0.75812104384E+02  0.86882851164E+02  0.00000000000E+00 0. -1.
        -14    1    4    4    0    0 -0.24768204486E+02  0.22701546999E+02 -0.97740042465E+01  0.34990789483E+02  0.00000000000E+00 0.  1.
          5    1    3    3  501    0 -0.39882289557E+02 -0.16680672008E+03 -0.11797191397E+02  0.17196431318E+03  0.41800000000E+01 0.  1.
         -5    1    3    3    0  501 -0.27460346581E+02  0.18556808541E+02 -0.74802951071E+01  0.34232338402E+02  0.41800000000E+01 0.  1.
</event>
<event>
11    1  0.1831336E-009  0.4669125E+03  0.7561462E-02  0.9470656E-01
         22   -1    0    0    0    0  0.00000000000E+00  0.00000000000E+00  0.20326670101E+04  0.20326670101E+04  0.00000000000E+00 0.  1.
         22   -1    0    0    0    0 -0.00000000000E+00 -0.00000000000E+00 -0.55385474178E+03  0.55385474178E+03  0.00000000000E+00 0.  1.
         25    2    1    2    0    0  0.10678946832E+03 -0.43720543447E+03 -0.39846183933E+03  0.61398026010E+03  0.12508932772E+03 0.  0.
        -24    2    1    2    0    0 -0.50658288478E+02 -0.82881264056E+01  0.98792478562E+02  0.13649176658E+03  0.78962606935E+02 0.  0.
         24    2    1    2    0    0 -0.56131179844E+02  0.44549356088E+03  0.17784816290E+04  0.18360497252E+04  0.80414341017E+02 0.  0.
        -13    1    5    5    0    0 -0.33357845118E+02  0.34273754708E+03  0.12166188466E+04  0.12644141686E+04  0.00000000000E+00 0.  1.
         14    1    5    5    0    0 -0.22773334726E+02  0.10275601380E+03  0.56186278246E+03  0.57163555651E+03  0.00000000000E+00 0. -1.
         11    1    4    4    0    0  0.16321120483E+02  0.15968011169E+02  0.26887230713E+02  0.35274346626E+02  0.00000000000E+00 0. -1.
        -12    1    4    4    0    0 -0.66979408960E+02 -0.24256137574E+02  0.71905247849E+02  0.10121741996E+03  0.00000000000E+00 0.  1.
          5    1    3    3  501    0 -0.19802469855E+02 -0.85141563230E+02 -0.41483291343E+02  0.96848125755E+02  0.41800000000E+01 0.  1.
         -5    1    3    3    0  501  0.12659193818E+03 -0.35206387124E+03 -0.35697854799E+03  0.51713213434E+03  0.41800000000E+01 0.  1.
</event>
<event>
11    1  0.1704459E-009  0.6147956E+03  0.7561462E-02  0.9168240E-01
         22   -1    0    0    0    0  0.00000000000E+00  0.00000000000E+00  0.81286484331E+03  0.81286484331E+03  0.00000000000E+00 0.  1.
         22   -1    0    0    0    0 -0.00000000000E+00 -0.00000000000E+00 -0.11104160706E+04  0.11104160706E+04  0.00000000000E+00 0.  1.
         25    2    1    2    0    0 -0.55644324468E+03 -0.25839154383E+03 -0.75561264869E+03  0.98132244669E+03  0.12509194634E+03 0.  0.
         24    2    1    2    0    0  0.50754170407E+03  0.25165248378E+03  0.11111341631E+03  0.58250597929E+03  0.77714031291E+02 0.  0.
        -24    2    1    2    0    0  0.48901540610E+02  0.67390600584E+01  0.34694800507E+03  0.35945248796E+03  0.79977479815E+02 0.  0.
        -11    1    4    4    0    0  0.34611455811E+03  0.15880579949E+03  0.10963813789E+03  0.39627653295E+03  0.00000000000E+00 0.  1.
         12    1    4    4    0    0  0.16142714596E+03  0.92846684289E+02  0.14752784152E+01  0.18622944634E+03  0.00000000000E+00 0. -1.
         13    1    5    5    0    0 -0.71148427740E+01 -0.17203598813E+01 -0.57481096955E+00  0.73424133274E+01  0.00000000000E+00 0. -1.
        -14    1    5    5    0    0  0.56016383384E+02  0.84594199397E+01  0.34752281604E+03  0.35211007464E+03  0.00000000000E+00 0.  1.
          5    1    3    3  501    0 -0.28274413469E+03 -0.19962148441E+03 -0.41309902274E+03  0.53894457760E+03  0.41800000000E+01 0. -1.
         -5    1    3    3    0  501 -0.27369911000E+03 -0.58770059424E+02 -0.34251362596E+03  0.44237786909E+03  0.41800000000E+01 0. -1.
</event>
<event>
11    1  0.1704459E-009  0.1396009E+03  0.7561462E-02  0.1108005E+00
         22   -1    0    0    0    0  0.00000000000E+00  0.00000000000E+00  0.14305245713E+03  0.14305245713E+03  0.00000000000E+00 0. -1.
         22   -1    0    0    0    0 -0.00000000000E+00 -0.00000000000E+00 -0.18686395905E+03  0.18686395905E+03  0.00000000000E+00 0. -1.
         25    2    1    2    0    0  0.59638184447E+02 -0.32572932984E+01 -0.28590008604E+02  0.14153499788E+03  0.12508974390E+03 0.  0.
        -24    2    1    2    0    0 -0.63697367813E+02  0.36805519867E+01 -0.16764452109E+02  0.10857717259E+03  0.86238358196E+02 0.  0.
         24    2    1    2    0    0  0.40591833654E+01 -0.42325868827E+00  0.15429587912E+01  0.79804245710E+02  0.79684884351E+02 0.  0.
        -11    1    5    5    0    0 -0.73742968249E+01 -0.14332868562E+02  0.36822330676E+02  0.40195713842E+02  0.00000000000E+00 0.  1.
         12    1    5    5    0    0  0.11433480190E+02  0.13909609874E+02 -0.35279371885E+02  0.39608531867E+02  0.00000000000E+00 0. -1.
         11    1    4    4    0    0  0.20520479006E+01 -0.10746546484E+02  0.26424304740E+02  0.28599703546E+02  0.00000000000E+00 0. -1.
        -12    1    4    4    0    0 -0.65749415713E+02  0.14427098471E+02 -0.43188756849E+02  0.79977469046E+02  0.00000000000E+00 0.  1.
          5    1    3    3  501    0  0.74222947885E+02 -0.38614222538E+01  0.30558282663E+02  0.80468861144E+02  0.41800000000E+01 0. -1.
         -5    1    3    3    0  501 -0.14584763437E+02  0.60412895536E+00 -0.59148291267E+02  0.61066136738E+02  0.41800000000E+01 0. -1.
</event>
<event>
11    1  0.2595491E-009  0.7676187E+03  0.7561462E-02  0.8938191E-01
         22   -1    0    0    0    0  0.00000000000E+00  0.00000000000E+00  0.21530927697E+04  0.21530927697E+04  0.00000000000E+00 0.  1.
         22   -1    0    0    0    0 -0.00000000000E+00 -0.00000000000E+00 -0.49677593588E+03  0.49677593588E+03  0.00000000000E+00 0.  1.
         25    2    1    2    0    0 -0.36858157434E+03 -0.67600758593E+03 -0.16487166166E+01  0.78005720744E+03  0.12509154821E+03 0.  0.
        -24    2    1    2    0    0  0.40684766637E+03  0.59000100284E+03  0.12554291382E+04  0.14478251971E+04  0.80431792800E+02 0.  0.
         24    2    1    2    0    0 -0.38266092027E+02  0.86006583087E+02  0.40253641223E+03  0.42198630105E+03  0.84708021868E+02 0.  0.
        -11    1    5    5    0    0 -0.65405363235E+02  0.65811158772E+02  0.29136637365E+03  0.30578314842E+03  0.00000000000E+00 0.  1.
         12    1    5    5    0    0  0.27139271208E+02  0.20195424315E+02  0.11117003858E+03  0.11620315264E+03  0.00000000000E+00 0. -1.
         13    1    4    4    0    0  0.11269459945E+03  0.22529570127E+03  0.40848135795E+03  0.47991170599E+03  0.00000000000E+00 0. -1.
        -14    1    4    4    0    0  0.29415306692E+03  0.36470530158E+03  0.84694778022E+03  0.96791349107E+03  0.00000000000E+00 0.  1.
          5    1    3    3  501    0 -0.84556880565E+02 -0.85236311047E+02 -0.30368967348E+02  0.12391465349E+03  0.41800000000E+01 0.  1.
         -5    1    3    3    0  501 -0.28402469377E+03 -0.59077127488E+03  0.28720250731E+02  0.65614255395E+03  0.41800000000E+01 0.  1.
</event>
<event>
11    1  0.1704459E-009  0.3425163E+03  0.7561462E-02  0.9836473E-01
         22   -1    0    0    0    0  0.00000000000E+00  0.00000000000E+00  0.16423084650E+04  0.16423084650E+04  0.00000000000E+00 0.  1.
         22   -1    0    0    0    0 -0.00000000000E+00 -0.00000000000E+00 -0.36550612259E+03  0.36550612259E+03  0.00000000000E+00 0.  1.
         25    2    1    2    0    0 -0.16292997589E+03 -0.24028837788E+03 -0.14906309436E+03  0.34950240797E+03  0.12508974974E+03 0.  0.
        -24    2    1    2    0    0  0.27351962161E+03  0.44592511663E+03  0.61802245106E+03  0.81357658966E+03  0.79327953330E+02 0.  0.
         24    2    1    2    0    0 -0.11058964572E+03 -0.20563673875E+03  0.80784298568E+03  0.84473558994E+03  0.80320541192E+02 0.  0.
        -11    1    5    5    0    0 -0.11411848827E+03 -0.21133935120E+03  0.78371228436E+03  0.81969036556E+03  0.00000000000E+00 0.  1.
         12    1    5    5    0    0  0.35288425449E+01  0.57026124432E+01  0.24130701319E+02  0.25045224385E+02  0.00000000000E+00 0. -1.
         13    1    4    4    0    0  0.44560816350E+02  0.12838822311E+03  0.18904037996E+03  0.23282067658E+03  0.00000000000E+00 0. -1.
        -14    1    4    4    0    0  0.22895880526E+03  0.31753689352E+03  0.42898207110E+03  0.58075591308E+03  0.00000000000E+00 0.  1.
          5    1    3    3  501    0 -0.55903496711E+02 -0.18534526516E+03 -0.72105367968E+02  0.20662701845E+03  0.41800000000E+01 0. -1.
         -5    1    3    3    0  501 -0.10702647917E+03 -0.54943112716E+02 -0.76957726390E+02  0.14287538952E+03  0.41800000000E+01 0. -1.
</event>
<event>
11    1  0.1704459E-009  0.4553382E+03  0.7561462E-02  0.9499259E-01
         22   -1    0    0    0    0  0.00000000000E+00  0.00000000000E+00  0.13460348021E+04  0.13460348021E+04  0.00000000000E+00 0. -1.
         22   -1    0    0    0    0 -0.00000000000E+00 -0.00000000000E+00 -0.34868724308E+03  0.34868724308E+03  0.00000000000E+00 0. -1.
         25    2    1    2    0    0 -0.38161391791E+02 -0.17890111943E+03  0.53662148438E+02  0.22801172177E+03  0.12509123363E+03 0.  0.
        -24    2    1    2    0    0  0.90878445315E+01  0.58794391136E+03  0.22381915203E+03  0.63443046173E+03  0.81525248395E+02 0.  0.
         24    2    1    2    0    0  0.29073547259E+02 -0.40904279193E+03  0.71986625859E+03  0.83227986173E+03  0.79505101670E+02 0.  0.
        -11    1    5    5    0    0 -0.11233260229E+02 -0.95400252916E+01  0.14746584756E+02  0.20848500664E+02  0.00000000000E+00 0.  1.
         12    1    5    5    0    0  0.40306807489E+02 -0.39950276664E+03  0.70511967384E+03  0.81143136106E+03  0.00000000000E+00 0. -1.
         13    1    4    4    0    0  0.34925391311E+02  0.13335671223E+03  0.41517461832E+02  0.14397046673E+03  0.00000000000E+00 0. -1.
        -14    1    4    4    0    0 -0.25837546779E+02  0.45458719913E+03  0.18230169020E+03  0.49045999499E+03  0.00000000000E+00 0.  1.
          5    1    3    3  501    0 -0.54533189906E+02 -0.43378773358E+02 -0.20299223990E+02  0.72698814804E+02  0.41800000000E+01 0.  1.
         -5    1    3    3    0  501  0.16371798115E+02 -0.13552234607E+03  0.73961372428E+02  0.15531290696E+03  0.41800000000E+01 0.  1.
</event>
<event>
11    1  0.1704459E-009  0.1398753E+03  0.7561462E-02  0.1107698E+00
         22   -1    0    0    0    0  0.00000000000E+00  0.00000000000E+00  0.39796978362E+02  0.39796978362E+02  0.00000000000E+00 0.  1.
         22   -1    0    0    0    0 -0.00000000000E+00 -0.00000000000E+00 -0.32419776916E+04  0.32419776916E+04  0.00000000000E+00 0. -1.
         25    2    1    2    0    0  0.21776269636E+02  0.55067563485E+02 -0.22145943148E+04  0.22189146484E+04  0.12509034715E+03 0.  0.
        -24    2    1    2    0    0 -0.23716604687E+02 -0.62737151073E+02 -0.97519547152E+03  0.98092853170E+03  0.81952115077E+02 0.  0.
         24    2    1    2    0    0  0.19403350505E+01  0.76695875881E+01 -0.12390926867E+02  0.81931489884E+02  0.80601777227E+02 0.  0.
        -13    1    5    5    0    0 -0.17516198399E+02 -0.22687695545E+01  0.29673123539E+02  0.34531996499E+02  0.00000000000E+00 0.  1.
         14    1    5    5    0    0  0.19456533450E+02  0.99383571426E+01 -0.42064050406E+02  0.47399493385E+02  0.00000000000E+00 0. -1.
         11    1    4    4    0    0 -0.95826391508E+01 -0.46462957448E+02 -0.20445966569E+03  0.20989137258E+03  0.00000000000E+00 0. -1.
        -12    1    4    4    0    0 -0.14133965536E+02 -0.16274193625E+02 -0.77073580582E+03  0.77103715912E+03  0.00000000000E+00 0.  1.
          5    1    3    3  501    0  0.55960717094E+01 -0.40468804971E+02 -0.58942676634E+03  0.59085567228E+03  0.41800000000E+01 0.  1.
         -5    1    3    3    0  501  0.16180197927E+02  0.95536368456E+02 -0.16251675485E+04  0.16280589761E+04  0.41800000000E+01 0.  1.
</event>
<event>
11    1  0.1704459E-009  0.1752748E+03  0.7561462E-02  0.1073530E+00
         22   -1    0    0    0    0  0.00000000000E+00  0.00000000000E+00  0.43053211275E+03  0.43053211275E+03  0.00000000000E+00 0. -1.
         22   -1    0    0    0    0 -0.00000000000E+00 -0.00000000000E+00 -0.25121127058E+03  0.25121127058E+03  0.00000000000E+00 0. -1.
         25    2    1    2    0    0  0.12047425059E+03  0.10832761977E+03 -0.98392224118E+02  0.22710731080E+03  0.12509109717E+03 0.  0.
         24    2    1    2    0    0 -0.80364714964E+02 -0.49540212207E+02 -0.31299872907E+02  0.12715702388E+03  0.79224406860E+02 0.  0.
        -24    2    1    2    0    0 -0.40109535622E+02 -0.58787407568E+02  0.30901293919E+03  0.32747904864E+03  0.81785063265E+02 0.  0.
        -13    1    4    4    0    0 -0.62777923321E+02  0.77007861441E+01 -0.13340177431E+02  0.64640003849E+02  0.00000000000E+00 0.  1.
         14    1    4    4    0    0 -0.17586791643E+02 -0.57240998351E+02 -0.17959695476E+02  0.62517020035E+02  0.00000000000E+00 0. -1.
         13    1    5    5    0    0 -0.40787124760E+02 -0.66505263316E+02  0.15745413223E+03  0.17572234733E+03  0.00000000000E+00 0. -1.
        -14    1    5    5    0    0  0.67758913771E+00  0.77178557483E+01  0.15155880697E+03  0.15175670131E+03  0.00000000000E+00 0.  1.
          5    1    3    3  501    0  0.74218926977E+01  0.69077234275E+01 -0.72081261721E+02  0.72910779898E+02  0.41800000000E+01 0.  1.
         -5    1    3    3    0  501  0.11305235789E+03  0.10141989635E+03 -0.26310962397E+02  0.15419653090E+03  0.41800000000E+01 0.  1.
</event>
<event>
11    1  0.1704459E-009  0.1928112E+03  0.7561462E-02  0.1059727E+00
         22   -1    0    0    0    0  0.00000000000E+00  0.00000000000E+00  0.69194463297E+03  0.69194463297E+03  0.00000000000E+00 0. -1.
         22   -1    0    0    0    0 -0.00000000000E+00 -0.00000000000E+00 -0.10353869384E+03  0.10353869384E+03  0.00000000000E+00 0. -1.
         25    2    1    2    0    0  0.33394969320E+02 -0.12400453687E+03  0.11229067595E+03  0.21153921101E+03  0.12508913921E+03 0.  0.
        -24    2    1    2    0    0  0.29683172617E+02  0.17872750597E+03  0.18867049913E+03  0.27387541559E+03  0.81157710018E+02 0.  0.
         24    2    1    2    0    0 -0.63078141937E+02 -0.54722969099E+02  0.28744476404E+03  0.31006870021E+03  0.80899018131E+02 0.  0.
        -13    1    5    5    0    0 -0.79521205540E+02 -0.32726695571E+02  0.24360739329E+03  0.25833935202E+03  0.00000000000E+00 0.  1.
         14    1    5    5    0    0  0.16443063603E+02 -0.21996273528E+02  0.43837370748E+02  0.51729348187E+02  0.00000000000E+00 0. -1.
         11    1    4    4    0    0  0.34124491141E+02  0.17366708836E+03  0.19589029285E+03  0.26400330549E+03  0.00000000000E+00 0. -1.
        -12    1    4    4    0    0 -0.44413185247E+01  0.50604176051E+01 -0.72197937156E+01  0.98721101022E+01  0.00000000000E+00 0.  1.
          5    1    3    3  501    0 -0.19273723937E+02 -0.12478808100E+03  0.82344764251E+02  0.15080342898E+03  0.41800000000E+01 0. -1.
         -5    1    3    3    0  501  0.52668693257E+02  0.78354412872E+00  0.29945911702E+02  0.60735782027E+02  0.41800000000E+01 0. -1.
</event>
<event>
11    1  0.1704459E-009  0.3825495E+03  0.7561462E-02  0.9702698E-01
         22   -1    0    0    0    0  0.00000000000E+00  0.00000000000E+00  0.52371832126E+03  0.52371832126E+03  0.00000000000E+00 0. -1.
         22   -1    0    0    0    0 -0.00000000000E+00 -0.00000000000E+00 -0.24844883495E+03  0.24844883495E+03  0.00000000000E+00 0. -1.
         25    2    1    2    0    0  0.13961541470E+03  0.35977396476E+01  0.12778021507E+03  0.22689333685E+03  0.12508954869E+03 0.  0.
         24    2    1    2    0    0 -0.29389897419E+03  0.83776331029E+02  0.29311742018E+02  0.31737125870E+03  0.80437907448E+02 0.  0.
        -24    2    1    2    0    0  0.15428355949E+03 -0.87374070677E+02  0.11817752922E+03  0.22790256067E+03  0.80845555172E+02 0.  0.
        -13    1    4    4    0    0 -0.46910818317E+02  0.18989541450E+01 -0.22492021928E+02  0.52058831647E+02  0.00000000000E+00 0.  1.
         14    1    4    4    0    0 -0.24698815587E+03  0.81877376884E+02  0.51803763946E+02  0.26531242705E+03  0.00000000000E+00 0. -1.
         13    1    5    5    0    0  0.16242477995E+03 -0.76068766133E+02  0.10118413326E+03  0.20592837382E+03  0.00000000000E+00 0. -1.
        -14    1    5    5    0    0 -0.81412204543E+01 -0.11305304544E+02  0.16993395960E+02  0.21974186847E+02  0.00000000000E+00 0.  1.
          5    1    3    3  501    0  0.95202128070E+02 -0.54496928395E+02  0.10018969132E+03  0.14862303671E+03  0.41800000000E+01 0. -1.
         -5    1    3    3    0  501  0.44413286627E+02  0.58094668043E+02  0.27590523758E+02  0.78270300148E+02  0.41800000000E+01 0. -1.
</event>
<event>
11    1  0.1704459E-009  0.3685816E+03  0.7561462E-02  0.9747297E-01
         22   -1    0    0    0    0  0.00000000000E+00  0.00000000000E+00  0.29504775518E+03  0.29504775518E+03  0.00000000000E+00 0.  1.
         22   -1    0    0    0    0 -0.00000000000E+00 -0.00000000000E+00 -0.19601193661E+04  0.19601193661E+04  0.00000000000E+00 0.  1.
         25    2    1    2    0    0 -0.21025614265E+03  0.28599781856E+03 -0.16724145330E+04  0.17142389931E+04  0.12507021073E+03 0.  0.
         24    2    1    2    0    0  0.18056889372E+03 -0.24896231106E+03 -0.15494604052E+03  0.35338572467E+03  0.79283271990E+02 0.  0.
        -24    2    1    2    0    0  0.29687248929E+02 -0.37035507494E+02  0.16228896255E+03  0.18754240354E+03  0.81126347097E+02 0.  0.
        -11    1    4    4    0    0  0.70042552826E+01 -0.61505013730E+02 -0.24927835066E+02  0.66733224612E+02  0.00000000000E+00 0.  1.
         12    1    4    4    0    0  0.17356463844E+03 -0.18745729733E+03 -0.13001820545E+03  0.28665250006E+03  0.00000000000E+00 0. -1.
         11    1    5    5    0    0 -0.18865031644E+02  0.11014162703E+02  0.19614423388E+02  0.29358589950E+02  0.00000000000E+00 0. -1.
        -12    1    5    5    0    0  0.48552280573E+02 -0.48049670198E+02  0.14267453917E+03  0.15818381359E+03  0.00000000000E+00 0.  1.
          5    1    3    3  501    0 -0.10433319224E+03  0.96600400119E+02 -0.42747982558E+03  0.45052583276E+03  0.41800000000E+01 0.  1.
         -5    1    3    3    0  501 -0.10592295040E+03  0.18939741844E+03 -0.12449347074E+04  0.12637131603E+04  0.41800000000E+01 0.  1.
</event>
<event>
11    1  0.1923646E-009  0.4636187E+03  0.7561462E-02  0.9478705E-01
         22   -1    0    0    0    0  0.00000000000E+00  0.00000000000E+00  0.88864778403E+03  0.88864778403E+03  0.00000000000E+00 0. -1.
         22   -1    0    0    0    0 -0.00000000000E+00 -0.00000000000E+00 -0.21103059364E+04  0.21103059364E+04  0.00000000000E+00 0.  1.
         25    2    1    2    0    0 -0.24585642807E+03  0.22820379016E+03 -0.18713685640E+04  0.19053059808E+04  0.12509286564E+03 0.  0.
         24    2    1    2    0    0 -0.77493790975E+02  0.84868551215E+02 -0.12846210535E+03  0.19121962659E+03  0.82791753552E+02 0.  0.
        -24    2    1    2    0    0  0.32335021904E+03 -0.31307234137E+03  0.77817251699E+03  0.90242811304E+03  0.79084624985E+02 0.  0.
        -13    1    4    4    0    0 -0.93363224580E+01 -0.51102084926E+01  0.85826993290E+01  0.13672742068E+02  0.00000000000E+00 0.  1.
         14    1    4    4    0    0 -0.68157468517E+02  0.89978759707E+02 -0.13704480468E+03  0.17754688452E+03  0.00000000000E+00 0. -1.
         11    1    5    5    0    0  0.29180832035E+03 -0.29059415922E+03  0.65877132509E+03  0.77690200151E+03  0.00000000000E+00 0. -1.
        -12    1    5    5    0    0  0.31541898693E+02 -0.22478182157E+02  0.11940119191E+03  0.12552611153E+03  0.00000000000E+00 0.  1.
          5    1    3    3  501    0 -0.96107678843E+02  0.13851202385E+03 -0.65002306473E+03  0.67154279370E+03  0.41800000000E+01 0.  1.
         -5    1    3    3    0  501 -0.14974874923E+03  0.89691766310E+02 -0.12213454993E+04  0.12337631871E+04  0.41800000000E+01 0.  1.
</event>
<event>
11    1  0.1704459E-009  0.3427213E+03  0.7561462E-02  0.9835739E-01
         22   -1    0    0    0    0  0.00000000000E+00  0.00000000000E+00  0.41797792909E+03  0.41797792909E+03  0.00000000000E+00 0.  1.
         22   -1    0    0    0    0 -0.00000000000E+00 -0.00000000000E+00 -0.67726552070E+03  0.67726552070E+03  0.00000000000E+00 0.  1.
         25    2    1    2    0    0  0.30296067941E+03  0.98687066131E+02 -0.47798223925E+03  0.58790792926E+03  0.12507758377E+03 0.  0.
         24    2    1    2    0    0 -0.32843139882E+03 -0.22665605113E+02  0.13251585484E+03  0.36366863260E+03  0.79457593527E+02 0.  0.
        -24    2    1    2    0    0  0.25470719411E+02 -0.76021461018E+02  0.86178792808E+02  0.14366688792E+03  0.82373358999E+02 0.  0.
        -11    1    4    4    0    0 -0.29185041102E+03  0.64191391244E+01  0.11324302780E+03  0.31311635395E+03  0.00000000000E+00 0.  1.
         12    1    4    4    0    0 -0.36580987798E+02 -0.29084744238E+02  0.19272827031E+02  0.50552278657E+02  0.00000000000E+00 0. -1.
         13    1    5    5    0    0 -0.14287618570E+02  0.75629354017E+01 -0.14201297794E+01  0.16228086914E+02  0.00000000000E+00 0. -1.
        -14    1    5    5    0    0  0.39758337981E+02 -0.83584396420E+02  0.87598922587E+02  0.12743880101E+03  0.00000000000E+00 0.  1.
          5    1    3    3  501    0  0.27766791305E+03  0.67151592655E+02 -0.34018926608E+03  0.44424657061E+03  0.41800000000E+01 0.  1.
         -5    1    3    3    0  501  0.25292766355E+02  0.31535473476E+02 -0.13779297317E+03  0.14366135866E+03  0.41800000000E+01 0.  1.
</event>
<event>
11    1  0.1704459E-009  0.1495222E+03  0.7561462E-02  0.1097368E+00
         22   -1    0    0    0    0  0.00000000000E+00  0.00000000000E+00  0.21307467427E+03  0.21307467427E+03  0.00000000000E+00 0. -1.
         22   -1    0    0    0    0 -0.00000000000E+00 -0.00000000000E+00 -0.24490581678E+03  0.24490581678E+03  0.00000000000E+00 0.  1.
         25    2    1    2    0    0 -0.11482458615E+03  0.64424275830E+02 -0.92346862213E+02  0.20373809938E+03  0.12508436065E+03 0.  0.
        -24    2    1    2    0    0  0.65505296120E+02 -0.93855239803E+01 -0.31603321930E+02  0.10864111503E+03  0.80156659341E+02 0.  0.
         24    2    1    2    0    0  0.49319290031E+02 -0.55038751850E+02  0.92119041633E+02  0.14560127665E+03  0.85159599318E+02 0.  0.
        -11    1    5    5    0    0  0.58058861152E+02 -0.68493421813E+02  0.55336236086E+02  0.10547169864E+03  0.00000000000E+00 0.  1.
         12    1    5    5    0    0 -0.87395711214E+01  0.13454669963E+02  0.36782805547E+02  0.40129578008E+02  0.00000000000E+00 0. -1.
         13    1    4    4    0    0 -0.10348321591E+02 -0.12310675529E+02 -0.28431568396E+02  0.32664882874E+02  0.00000000000E+00 0. -1.
        -14    1    4    4    0    0  0.75853617711E+02  0.29251515489E+01 -0.31717535339E+01  0.75976232151E+02  0.00000000000E+00 0.  1.
          5    1    3    3  501    0 -0.10642149197E+02  0.75857331664E+02 -0.38527420031E+02  0.85845352821E+02  0.41800000000E+01 0. -1.
         -5    1    3    3    0  501 -0.10418243695E+03 -0.11433055833E+02 -0.53819442183E+02  0.11789274656E+03  0.41800000000E+01 0. -1.
</event>
<event>
11    1  0.1704459E-009  0.2152476E+03  0.7561462E-02  0.1044236E+00
         22   -1    0    0    0    0  0.00000000000E+00  0.00000000000E+00  0.10686107512E+03  0.10686107512E+03  0.00000000000E+00 0. -1.
         22   -1    0    0    0    0 -0.00000000000E+00 -0.00000000000E+00 -0.22940047500E+04  0.22940047500E+04  0.00000000000E+00 0. -1.
         25    2    1    2    0    0 -0.10976419646E+03  0.13444943932E+03 -0.20289001625E+04  0.20401486801E+04  0.12508371904E+03 0.  0.
        -24    2    1    2    0    0  0.15634397520E+03 -0.12920254793E+03 -0.59533301656E+02  0.22785661790E+03  0.85074598705E+02 0.  0.
         24    2    1    2    0    0 -0.46579778733E+02 -0.52468913901E+01 -0.98710210737E+02  0.13286052718E+03  0.75571213589E+02 0.  0.
        -11    1    5    5    0    0  0.24692094842E+01  0.21688789169E+02 -0.30576543274E+01  0.22042001294E+02  0.00000000000E+00 0.  1.
         12    1    5    5    0    0 -0.49048988217E+02 -0.26935680559E+02 -0.95652556410E+02  0.11081852589E+03  0.00000000000E+00 0. -1.
         11    1    4    4    0    0  0.15768386803E+03 -0.94067568435E+02 -0.41089318273E+02  0.18815217710E+03  0.00000000000E+00 0. -1.
        -12    1    4    4    0    0 -0.13398928379E+01 -0.35134979494E+02 -0.18443983383E+02  0.39704440808E+02  0.00000000000E+00 0.  1.
          5    1    3    3  501    0 -0.86252218797E+02  0.15777543622E+03 -0.16467593191E+04  0.16565525229E+04  0.41800000000E+01 0. -1.
         -5    1    3    3    0  501 -0.23511977668E+02 -0.23325996900E+02 -0.38214084339E+03  0.38359615719E+03  0.41800000000E+01 0. -1.
</event>
<event>
11    1  0.1704459E-009  0.1650960E+04  0.7561462E-02  0.8227378E-01
         22   -1    0    0    0    0  0.00000000000E+00  0.00000000000E+00  0.28897859870E+04  0.28897859870E+04  0.00000000000E+00 0. -1.
         22   -1    0    0    0    0 -0.00000000000E+00 -0.00000000000E+00 -0.15174482225E+04  0.15174482225E+04  0.00000000000E+00 0. -1.
         25    2    1    2    0    0 -0.14959965348E+04 -0.57392819038E+03 -0.45994619421E+03  0.16717051485E+04  0.12509357390E+03 0.  0.
        -24    2    1    2    0    0  0.16748079060E+04  0.60494724601E+03  0.14238179671E+04  0.22814333076E+04  0.82083134663E+02 0.  0.
         24    2    1    2    0    0 -0.17881137120E+03 -0.31019055630E+02  0.40846599158E+03  0.45409575338E+03  0.80142365042E+02 0.  0.
        -13    1    5    5    0    0  0.84723568238E+01  0.41751057206E+00  0.18001324413E+02  0.19899819744E+02  0.00000000000E+00 0.  1.
         14    1    5    5    0    0 -0.18728372802E+03 -0.31436566202E+02  0.39046466717E+03  0.43419593363E+03  0.00000000000E+00 0. -1.
         11    1    4    4    0    0  0.78719552207E+03  0.24154642311E+03  0.66719318837E+03  0.10597963083E+04  0.00000000000E+00 0. -1.
        -12    1    4    4    0    0  0.88761238393E+03  0.36340082290E+03  0.75662477871E+03  0.12216369993E+04  0.00000000000E+00 0.  1.
          5    1    3    3  501    0 -0.11733645063E+04 -0.41776387914E+03 -0.40060712718E+03  0.13083632775E+04  0.41800000000E+01 0. -1.
         -5    1    3    3    0  501 -0.32263202855E+03 -0.15616431124E+03 -0.59339067035E+02  0.36334187100E+03  0.41800000000E+01 0. -1.
</event>
<event>
11    1  0.1704459E-009  0.1267228E+03  0.7561462E-02  0.1123362E+00
         22   -1    0    0    0    0  0.00000000000E+00  0.00000000000E+00  0.35154509119E+03  0.35154509119E+03  0.00000000000E+00 0. -1.
         22   -1    0    0    0    0 -0.00000000000E+00 -0.00000000000E+00 -0.71659725716E+02  0.71659725716E+02  0.00000000000E+00 0.  1.
         25    2    1    2    0    0  0.33032344684E+01 -0.20518149261E+02  0.56496392105E+02  0.13882186939E+03  0.12509102004E+03 0.  0.
        -24    2    1    2    0    0 -0.33120497584E+02  0.67236966853E+01  0.80127060904E+02  0.11618223266E+03  0.77044077255E+02 0.  0.
         24    2    1    2    0    0  0.29817263116E+02  0.13794452576E+02  0.14326191247E+03  0.16820071485E+03  0.81781103020E+02 0.  0.
        -11    1    5    5    0    0  0.12803451932E+01 -0.81847039570E+01 -0.87087815207E+01  0.12019631369E+02  0.00000000000E+00 0.  1.
         12    1    5    5    0    0  0.28536917923E+02  0.21979156533E+02  0.15197069399E+03  0.15618108348E+03  0.00000000000E+00 0. -1.
         13    1    4    4    0    0  0.16132610425E+02 -0.15515730736E+02  0.48871394994E+02  0.53753253558E+02  0.00000000000E+00 0. -1.
        -14    1    4    4    0    0 -0.49253108009E+02  0.22239427422E+02  0.31255665910E+02  0.62428979105E+02  0.00000000000E+00 0.  1.
          5    1    3    3  501    0  0.40279030157E+02  0.39218293050E+02  0.27141090857E+02  0.62566652404E+02  0.41800000000E+01 0. -1.
         -5    1    3    3    0  501 -0.36975795689E+02 -0.59736442311E+02  0.29355301248E+02  0.76255216990E+02  0.41800000000E+01 0. -1.
</event>
<event>
11    1  0.1704459E-009  0.2698898E+03  0.7561462E-02  0.1013807E+00
         22   -1    0    0    0    0  0.00000000000E+00  0.00000000000E+00  0.28301114353E+03  0.28301114353E+03  0.00000000000E+00 0.  1.
         22   -1    0    0    0    0 -0.00000000000E+00 -0.00000000000E+00 -0.43288145298E+03  0.43288145298E+03  0.00000000000E+00 0. -1.
         25    2    1    2    0    0  0.29435847759E+02 -0.10533928264E+02 -0.11863112003E+03  0.17520787780E+03  0.12508806908E+03 0.  0.
         24    2    1    2    0    0 -0.28969413722E+02  0.26233835555E+03 -0.99128415506E+01  0.27534627870E+03  0.77824604367E+02 0.  0.
        -24    2    1    2    0    0 -0.46643403703E+00 -0.25180442728E+03 -0.21326347875E+02  0.26533844000E+03  0.80894916205E+02 0.  0.
        -11    1    4    4    0    0  0.35515920935E+01  0.40388331453E+02  0.26007386514E+02  0.48168612989E+02  0.00000000000E+00 0.  1.
         12    1    4    4    0    0 -0.32521005815E+02  0.22195002410E+03 -0.35920228065E+02  0.22717766571E+03  0.00000000000E+00 0. -1.
         13    1    5    5    0    0  0.13642931118E+02 -0.23582190338E+02 -0.24526834467E+02  0.36658080686E+02  0.00000000000E+00 0. -1.
        -14    1    5    5    0    0 -0.14109365155E+02 -0.22822223695E+03  0.32004865920E+01  0.22868035931E+03  0.00000000000E+00 0.  1.
          5    1    3    3  501    0  0.71595243217E+02  0.39118110304E+01 -0.33991468922E+02  0.79461144444E+02  0.41800000000E+01 0. -1.
         -5    1    3    3    0  501 -0.42159395459E+02 -0.14445739295E+02 -0.84639651104E+02  0.95746733355E+02  0.41800000000E+01 0. -1.
</event>
<event>
11    1  0.1704459E-009  0.1399155E+03  0.7561462E-02  0.1107653E+00
         22   -1    0    0    0    0  0.00000000000E+00  0.00000000000E+00  0.25457981767E+03  0.25457981767E+03  0.00000000000E+00 0.  1.
         22   -1    0    0    0    0 -0.00000000000E+00 -0.00000000000E+00 -0.23045805643E+04  0.23045805643E+04  0.00000000000E+00 0. -1.
         25    2    1    2    0    0  0.60816622908E+02  0.32097773483E+02 -0.15047676442E+04  0.15115235814E+04  0.12509574566E+03 0.  0.
        -24    2    1    2    0    0 -0.35916998427E+02 -0.48050813236E+02 -0.78588347390E+03  0.79221976781E+03  0.80002590701E+02 0.  0.
         24    2    1    2    0    0 -0.24899624480E+02  0.15953039753E+02  0.24065037147E+03  0.25541703271E+03  0.80316676565E+02 0.  0.
        -11    1    5    5    0    0 -0.37929345518E+02 -0.17360966803E+02  0.18199622754E+03  0.18671546604E+03  0.00000000000E+00 0.  1.
         12    1    5    5    0    0  0.13029721038E+02  0.33314006556E+02  0.58654143932E+02  0.68701566674E+02  0.00000000000E+00 0. -1.
         13    1    4    4    0    0 -0.61763285880E+02 -0.35318979798E+02 -0.56887127833E+03  0.57330329244E+03  0.00000000000E+00 0. -1.
        -14    1    4    4    0    0  0.25846287453E+02 -0.12731833438E+02 -0.21701219558E+03  0.21891647536E+03  0.00000000000E+00 0.  1.
          5    1    3    3  501    0 -0.10756495661E+01  0.31483460658E+02 -0.12042699829E+04  0.12046891837E+04  0.41800000000E+01 0.  1.
         -5    1    3    3    0  501  0.61892272474E+02  0.61431282529E+00 -0.30049766129E+03  0.30683439770E+03  0.41800000000E+01 0.  1.
</event>
<event>
11    1  0.1704459E-009  0.2266756E+03  0.7561462E-02  0.1037114E+00
         22   -1    0    0    0    0  0.00000000000E+00  0.00000000000E+00  0.18208709163E+04  0.18208709163E+04  0.00000000000E+00 0. -1.
         22   -1    0    0    0    0 -0.00000000000E+00 -0.00000000000E+00 -0.84759330021E+02  0.84759330021E+02  0.00000000000E+00 0.  1.
         25    2    1    2    0    0  0.17142642930E+03 -0.60142813442E+02  0.22553850901E+03  0.31546792438E+03  0.12509281993E+03 0.  0.
        -24    2    1    2    0    0 -0.21898238103E+03 -0.83791321749E+02  0.43297594311E+03  0.49898832505E+03  0.80912992908E+02 0.  0.
         24    2    1    2    0    0  0.47555951734E+02  0.14393413519E+03  0.10775971342E+04  0.10911739969E+04  0.80414576486E+02 0.  0.
        -11    1    5    5    0    0 -0.79977550719E+01  0.16459076870E+01  0.11025008419E+02  0.13719471890E+02  0.00000000000E+00 0.  1.
         12    1    5    5    0    0  0.55553706805E+02  0.14228822750E+03  0.10665721258E+04  0.10774545250E+04  0.00000000000E+00 0. -1.
         13    1    4    4    0    0 -0.23578460020E+02  0.10854973859E+02  0.21345929690E+02  0.33606888412E+02  0.00000000000E+00 0. -1.
        -14    1    4    4    0    0 -0.19540392101E+03 -0.94646295609E+02  0.41163001342E+03  0.46538143664E+03  0.00000000000E+00 0.  1.
          5    1    3    3  501    0  0.15363115736E+03 -0.41700113489E+01  0.19739902571E+03  0.25020745244E+03  0.41800000000E+01 0.  1.
         -5    1    3    3    0  501  0.17795271944E+02 -0.55972802093E+02  0.28139483292E+02  0.65260471939E+02  0.41800000000E+01 0.  1.
</event>
<event>
11    1  0.1704459E-009  0.1434437E+03  0.7561462E-02  0.1103773E+00
         22   -1    0    0    0    0  0.00000000000E+00  0.00000000000E+00  0.12057112007E+04  0.12057112007E+04  0.00000000000E+00 0.  1.
         22   -1    0    0    0    0 -0.00000000000E+00 -0.00000000000E+00 -0.30956167173E+02  0.30956167173E+02  0.00000000000E+00 0.  1.
         25    2    1    2    0    0 -0.13130587116E+02 -0.31366117738E+02  0.31526341444E+03  0.34087341121E+03  0.12508963317E+03 0.  0.
         24    2    1    2    0    0  0.68917153208E+01  0.11093559536E+03  0.34407323931E+03  0.37002398694E+03  0.78594877976E+02 0.  0.
        -24    2    1    2    0    0  0.62388717954E+01 -0.79569477620E+02  0.51541837976E+03  0.52576996970E+03  0.66390733968E+02 0.  0.
        -11    1    4    4    0    0 -0.32997253369E+00  0.78591453570E+02  0.11956025533E+03  0.14307823074E+03  0.00000000000E+00 0.  1.
         12    1    4    4    0    0  0.72216878545E+01  0.32344141789E+02  0.22451298397E+03  0.22694575620E+03  0.00000000000E+00 0. -1.
         11    1    5    5    0    0  0.18322762361E+02  0.11193225530E+01  0.50193004902E+02  0.53444496860E+02  0.00000000000E+00 0. -1.
        -12    1    5    5    0    0 -0.12083890565E+02 -0.80688800173E+02  0.46522537485E+03  0.47232547284E+03  0.00000000000E+00 0.  1.
          5    1    3    3  501    0  0.42343485392E+01  0.14995264215E+02  0.27874922235E+03  0.27921566757E+03  0.41800000000E+01 0. -1.
         -5    1    3    3    0  501 -0.17364935655E+02 -0.46361381953E+02  0.36514192089E+02  0.61657743641E+02  0.41800000000E+01 0. -1.
</event>
<event>
11    1  0.1704459E-009  0.3987937E+03  0.7561462E-02  0.9653324E-01
         22   -1    0    0    0    0  0.00000000000E+00  0.00000000000E+00  0.10182071865E+04  0.10182071865E+04  0.00000000000E+00 0. -1.
         22   -1    0    0    0    0 -0.00000000000E+00 -0.00000000000E+00 -0.26796267831E+04  0.26796267831E+04  0.00000000000E+00 0. -1.
         25    2    1    2    0    0  0.21452348906E+03  0.15686528937E+03 -0.12172719564E+04  0.12522078545E+04  0.12508576479E+03 0.  0.
        -24    2    1    2    0    0 -0.23427681582E+03 -0.53797541721E+03 -0.13410699804E+04  0.14659419192E+04  0.78827927549E+02 0.  0.
         24    2    1    2    0    0  0.19753326762E+02  0.38111012784E+03  0.89692234019E+03  0.97968419593E+03  0.98368267050E+02 0.  0.
        -13    1    5    5    0    0 -0.66860130077E-01  0.13851365201E+03  0.21631970153E+03  0.25686620941E+03  0.00000000000E+00 0.  1.
         14    1    5    5    0    0  0.19820186892E+02  0.24259647582E+03  0.68060263866E+03  0.72281798652E+03  0.00000000000E+00 0. -1.
         13    1    4    4    0    0 -0.22483976123E+02 -0.39861747594E+02 -0.16615880657E+03  0.17234627094E+03  0.00000000000E+00 0. -1.
        -14    1    4    4    0    0 -0.21179283970E+03 -0.49811366962E+03 -0.11749111738E+04  0.12935956483E+04  0.00000000000E+00 0.  1.
          5    1    3    3  501    0  0.91745230292E+02  0.13799057924E+03 -0.59576498289E+03  0.61839467533E+03  0.41800000000E+01 0.  1.
         -5    1    3    3    0  501  0.12277825877E+03  0.18874710131E+02 -0.62150697353E+03  0.63381317915E+03  0.41800000000E+01 0.  1.
</event>
<event>
11    1  0.1704459E-009  0.1367861E+04  0.7561462E-02  0.8391122E-01
         22   -1    0    0    0    0  0.00000000000E+00  0.00000000000E+00  0.25671875314E+04  0.25671875314E+04  0.00000000000E+00 0. -1.
         22   -1    0    0    0    0 -0.00000000000E+00 -0.00000000000E+00 -0.18220751842E+03  0.18220751842E+03  0.00000000000E+00 0. -1.
         25    2    1    2    0    0  0.13331569562E+03 -0.18618489443E+03 -0.74661150809E+02  0.27140317046E+03  0.12508998315E+03 0.  0.
         24    2    1    2    0    0 -0.92433762746E+02  0.10448529123E+03  0.96982901513E+03  0.98325510907E+03  0.82225995585E+02 0.  0.
        -24    2    1    2    0    0 -0.40881932878E+02  0.81699603200E+02  0.14898121487E+04  0.14947367703E+04  0.79697029859E+02 0.  0.
        -11    1    4    4    0    0 -0.37623434503E+02 -0.50530628198E+01  0.29079813078E+03  0.29326542438E+03  0.00000000000E+00 0.  1.
         12    1    4    4    0    0 -0.54810328243E+02  0.10953835405E+03  0.67903088435E+03  0.68998968470E+03  0.00000000000E+00 0. -1.
         11    1    5    5    0    0 -0.52753257624E+02  0.75293388453E+02  0.88267930590E+03  0.88745408760E+03  0.00000000000E+00 0. -1.
        -12    1    5    5    0    0  0.11871324747E+02  0.64062147467E+01  0.60713284280E+03  0.60728268273E+03  0.00000000000E+00 0.  1.
          5    1    3    3  501    0  0.52241993438E+01 -0.34437106103E+02 -0.63399571182E+02  0.72458157316E+02  0.41800000000E+01 0. -1.
         -5    1    3    3    0  501  0.12809149628E+03 -0.15174778833E+03 -0.11261579626E+02  0.19894501315E+03  0.41800000000E+01 0. -1.
</event>
<event>
11    1  0.1704459E-009  0.4118720E+03  0.7561462E-02  0.9615364E-01
         22   -1    0    0    0    0  0.00000000000E+00  0.00000000000E+00  0.51637827927E+03  0.51637827927E+03  0.00000000000E+00 0. -1.
         22   -1    0    0    0    0 -0.00000000000E+00 -0.00000000000E+00 -0.93309069470E+03  0.93309069470E+03  0.00000000000E+00 0.  1.
         25    2    1    2    0    0  0.11223851268E+03  0.63722708022E+02 -0.47443940010E+03  0.50734474206E+03  0.12509146928E+03 0.  0.
        -24    2    1    2    0    0  0.20418590857E+03 -0.54199503650E+01 -0.35131185311E+03  0.41542483795E+03  0.86235240619E+02 0.  0.
         24    2    1    2    0    0 -0.31642442126E+03 -0.58302757657E+02  0.40903883778E+03  0.52669939397E+03  0.81091644935E+02 0.  0.
        -11    1    5    5    0    0 -0.84312974328E+02 -0.47068602294E+02  0.90004908164E+02  0.13200384258E+03  0.00000000000E+00 0.  1.
         12    1    5    5    0    0 -0.23211144693E+03 -0.11234155363E+02  0.31903392961E+03  0.39469555139E+03  0.00000000000E+00 0. -1.
         11    1    4    4    0    0  0.83420176401E+02 -0.44594957982E+02 -0.14215726590E+03  0.17075223090E+03  0.00000000000E+00 0. -1.
        -12    1    4    4    0    0  0.12076573217E+03  0.39175007617E+02 -0.20915458721E+03  0.24467260705E+03  0.00000000000E+00 0.  1.
          5    1    3    3  501    0  0.10892811898E+03  0.89739073029E+02 -0.44858360435E+03  0.47027987287E+03  0.41800000000E+01 0.  1.
         -5    1    3    3    0  501  0.33103936986E+01 -0.26016365006E+02 -0.25855795744E+02  0.37064869191E+02  0.41800000000E+01 0.  1.
</event>
<event>
11    1  0.1704459E-009  0.1354195E+03  0.7561462E-02  0.1112784E+00
         22   -1    0    0    0    0  0.00000000000E+00  0.00000000000E+00  0.15187225635E+03  0.15187225635E+03  0.00000000000E+00 0. -1.
         22   -1    0    0    0    0 -0.00000000000E+00 -0.00000000000E+00 -0.14758124168E+04  0.14758124168E+04  0.00000000000E+00 0. -1.
         25    2    1    2    0    0  0.48931390622E+02  0.82511208051E+01 -0.93258946462E+03  0.94224869171E+03  0.12508847082E+03 0.  0.
         24    2    1    2    0    0 -0.51783932135E+02 -0.15608675974E+02 -0.52307778235E+03  0.53170493790E+03  0.78578420765E+02 0.  0.
        -24    2    1    2    0    0  0.28525415136E+01  0.73575551691E+01  0.13172708649E+03  0.15373104357E+03  0.78860242385E+02 0.  0.
        -11    1    4    4    0    0 -0.44211672668E+02 -0.15690485420E+02 -0.12434883210E+03  0.13290408337E+03  0.00000000000E+00 0.  1.
         12    1    4    4    0    0 -0.75722594676E+01  0.81809445624E-01 -0.39872895025E+03  0.39880085453E+03  0.00000000000E+00 0. -1.
         13    1    5    5    0    0  0.90161979904E+01  0.12305654939E+02  0.14084235207E+03  0.14166611841E+03  0.00000000000E+00 0. -1.
        -14    1    5    5    0    0 -0.61636564768E+01 -0.49480997701E+01 -0.91152655750E+01  0.12064925155E+02  0.00000000000E+00 0.  1.
          5    1    3    3  501    0  0.16795252870E+02 -0.38677771975E+02 -0.74445681294E+03  0.74566176601E+03  0.41800000000E+01 0.  1.
         -5    1    3    3    0  501  0.32136137752E+02  0.46928892780E+02 -0.18813265168E+03  0.19658692570E+03  0.41800000000E+01 0.  1.
</event>
<event>
11    1  0.1704459E-009  0.5389642E+03  0.7561462E-02  0.9310436E-01
         22   -1    0    0    0    0  0.00000000000E+00  0.00000000000E+00  0.86779495486E+03  0.86779495486E+03  0.00000000000E+00 0. -1.
         22   -1    0    0    0    0 -0.00000000000E+00 -0.00000000000E+00 -0.77363273562E+03  0.77363273562E+03  0.00000000000E+00 0. -1.
         25    2    1    2    0    0  0.14768068763E+03  0.12029183169E+03 -0.10552299027E+03  0.25112161777E+03  0.12508898899E+03 0.  0.
        -24    2    1    2    0    0 -0.61356151796E+03  0.10203245030E+03 -0.27512986598E+03  0.68477140338E+03  0.79668528871E+02 0.  0.
         24    2    1    2    0    0  0.46588083034E+03 -0.22232428200E+03  0.47481507549E+03  0.70553466934E+03  0.76529597429E+02 0.  0.
        -11    1    5    5    0    0  0.22159581297E+03 -0.14574913998E+03  0.25872548126E+03  0.37052178179E+03  0.00000000000E+00 0.  1.
         12    1    5    5    0    0  0.24428501737E+03 -0.76575142016E+02  0.21608959423E+03  0.33501288754E+03  0.00000000000E+00 0. -1.
         11    1    4    4    0    0 -0.31011767438E+03  0.19473255975E+02 -0.11035209065E+03  0.32974196513E+03  0.00000000000E+00 0. -1.
        -12    1    4    4    0    0 -0.30344384358E+03  0.82559194329E+02 -0.16477777533E+03  0.35502943825E+03  0.00000000000E+00 0.  1.
          5    1    3    3  501    0  0.24006419313E+02  0.96974479886E+02 -0.63147862627E+02  0.11826023369E+03  0.41800000000E+01 0. -1.
         -5    1    3    3    0  501  0.12367426831E+03  0.23317351807E+02 -0.42375127641E+02  0.13286138409E+03  0.41800000000E+01 0. -1.
</event>
<event>
11    1  0.1704459E-009  0.1912346E+03  0.7561462E-02  0.1060901E+00
         22   -1    0    0    0    0  0.00000000000E+00  0.00000000000E+00  0.17820929099E+03  0.17820929099E+03  0.00000000000E+00 0.  1.
         22   -1    0    0    0    0 -0.00000000000E+00 -0.00000000000E+00 -0.81186721759E+03  0.81186721759E+03  0.00000000000E+00 0.  1.
         25    2    1    2    0    0  0.14079396534E+03 -0.15329942116E+02 -0.53754475314E+03  0.56978848487E+03  0.12508640235E+03 0.  0.
        -24    2    1    2    0    0 -0.12843097005E+03  0.12662758620E+03 -0.17289187409E+03  0.26206268559E+03  0.79096089636E+02 0.  0.
         24    2    1    2    0    0 -0.12362995289E+02 -0.11129764408E+03  0.76778700632E+02  0.15822533813E+03  0.81242104393E+02 0.  0.
        -13    1    5    5    0    0 -0.39750241517E+02 -0.10139357134E+03  0.64859308094E+02  0.12675751598E+03  0.00000000000E+00 0.  1.
         14    1    5    5    0    0  0.27387246229E+02 -0.99040727392E+01  0.11919392538E+02  0.31467822157E+02  0.00000000000E+00 0. -1.
         13    1    4    4    0    0 -0.21878974511E+02  0.13596611713E+02  0.46320165965E+01  0.26172752119E+02  0.00000000000E+00 0. -1.
        -14    1    4    4    0    0 -0.10655199554E+03  0.11303097448E+03 -0.17752389069E+03  0.23588993347E+03  0.00000000000E+00 0.  1.
          5    1    3    3  501    0  0.80301281738E+02 -0.22507592711E+02 -0.47535785482E+03  0.48263593952E+03  0.41800000000E+01 0. -1.
         -5    1    3    3    0  501  0.60492683600E+02  0.71776505948E+01 -0.62186898326E+02  0.87152545348E+02  0.41800000000E+01 0. -1.
</event>
<event>
11    1  0.1704459E-009  0.1319799E+03  0.7561462E-02  0.1116860E+00
         22   -1    0    0    0    0  0.00000000000E+00  0.00000000000E+00  0.32774261486E+03  0.32774261486E+03  0.00000000000E+00 0.  1.
         22   -1    0    0    0    0 -0.00000000000E+00 -0.00000000000E+00 -0.11280749648E+04  0.11280749648E+04  0.00000000000E+00 0. -1.
         25    2    1    2    0    0 -0.54671693285E+02  0.34362589918E+02 -0.80032127785E+03  0.81260819272E+03  0.12509254760E+03 0.  0.
         24    2    1    2    0    0  0.37569376552E+02  0.39794673615E+01 -0.30869066290E+03  0.32151838496E+03  0.81589535427E+02 0.  0.
        -24    2    1    2    0    0  0.17102316733E+02 -0.38342057280E+02  0.30867959080E+03  0.32169100199E+03  0.80245924438E+02 0.  0.
        -11    1    4    4    0    0 -0.20579213174E+02  0.13652485149E+01 -0.16801353704E+03  0.16927467781E+03  0.00000000000E+00 0.  1.
         12    1    4    4    0    0  0.58148589727E+02  0.26142188466E+01 -0.14067712586E+03  0.15224370715E+03  0.00000000000E+00 0. -1.
         11    1    5    5    0    0 -0.49849203521E+01  0.20150962375E+02  0.32814429897E+02  0.38829080919E+02  0.00000000000E+00 0. -1.
        -12    1    5    5    0    0  0.22087237085E+02 -0.58493019654E+02  0.27586516090E+03  0.28286192107E+03  0.00000000000E+00 0.  1.
          5    1    3    3  501    0 -0.81000005058E+02 -0.88955072435E+01 -0.61712279532E+03  0.62249349215E+03  0.41800000000E+01 0. -1.
         -5    1    3    3    0  501  0.26328311773E+02  0.43258097162E+02 -0.18319848253E+03  0.19011470057E+03  0.41800000000E+01 0. -1.
</event>
<event>
11    1  0.1704459E-009  0.1428150E+03  0.7561462E-02  0.1104455E+00
         22   -1    0    0    0    0  0.00000000000E+00  0.00000000000E+00  0.26527916971E+03  0.26527916971E+03  0.00000000000E+00 0.  1.
         22   -1    0    0    0    0 -0.00000000000E+00 -0.00000000000E+00 -0.54760288634E+03  0.54760288634E+03  0.00000000000E+00 0.  1.
         25    2    1    2    0    0 -0.42996348338E+02 -0.21337305565E+02 -0.19958726812E+03  0.24038879091E+03  0.12509087344E+03 0.  0.
        -24    2    1    2    0    0  0.81375063584E+02 -0.18888478835E+02 -0.30742189738E+03  0.32758483856E+03  0.76321214988E+02 0.  0.
         24    2    1    2    0    0 -0.38378715246E+02  0.40225784400E+02  0.22468544887E+03  0.24490842658E+03  0.80034661000E+02 0.  0.
        -11    1    5    5    0    0  0.14516100160E+02  0.12475061841E+02  0.13985072224E+03  0.14115441489E+03  0.00000000000E+00 0.  1.
         12    1    5    5    0    0 -0.52894815406E+02  0.27750722559E+02  0.84834726631E+02  0.10375401169E+03  0.00000000000E+00 0. -1.
         13    1    4    4    0    0 -0.90759882820E+01 -0.19849454117E+02 -0.45073425817E+02  0.50079817361E+02  0.00000000000E+00 0. -1.
        -14    1    4    4    0    0  0.90451051866E+02  0.96097528185E+00 -0.26234847156E+03  0.27750502120E+03  0.00000000000E+00 0.  1.
          5    1    3    3  501    0 -0.60568849107E+02 -0.15260986197E+02 -0.20967869401E+03  0.21882438234E+03  0.41800000000E+01 0.  1.
         -5    1    3    3    0  501  0.17572500769E+02 -0.60763193684E+01  0.10091425892E+02  0.21564408567E+02  0.41800000000E+01 0.  1.
</event>
<event>
11    1  0.1704459E-009  0.1761874E+03  0.7561462E-02  0.1072769E+00
         22   -1    0    0    0    0  0.00000000000E+00  0.00000000000E+00  0.17669752170E+04  0.17669752170E+04  0.00000000000E+00 0. -1.
         22   -1    0    0    0    0 -0.00000000000E+00 -0.00000000000E+00 -0.39553262507E+02  0.39553262507E+02  0.00000000000E+00 0. -1.
         25    2    1    2    0    0 -0.44641343703E+02  0.83251036393E+01  0.24188819264E+03  0.27607928702E+03  0.12509083926E+03 0.  0.
         24    2    1    2    0    0  0.88538012640E+02  0.14077792259E+03  0.57227238676E+03  0.60104381638E+03  0.78106218667E+02 0.  0.
        -24    2    1    2    0    0 -0.43896668937E+02 -0.14910302623E+03  0.91326137514E+03  0.92940537615E+03  0.74762182320E+02 0.  0.
        -13    1    4    4    0    0  0.13615402445E+02  0.60344473346E+02  0.11325915665E+03  0.12905220344E+03  0.00000000000E+00 0.  1.
         14    1    4    4    0    0  0.74922610195E+02  0.80433449247E+02  0.45901323011E+03  0.47199161294E+03  0.00000000000E+00 0. -1.
         11    1    5    5    0    0 -0.23434429152E+02 -0.68603032564E+02  0.23104916657E+03  0.24215545816E+03  0.00000000000E+00 0. -1.
        -12    1    5    5    0    0 -0.20462239785E+02 -0.80499993668E+02  0.68221220858E+03  0.68724991799E+03  0.00000000000E+00 0.  1.
          5    1    3    3  501    0 -0.61212583439E+02  0.45149354158E+02  0.21311353812E+03  0.22631901617E+03  0.41800000000E+01 0.  1.
         -5    1    3    3    0  501  0.16571239735E+02 -0.36824250518E+02  0.28774654523E+02  0.49760270854E+02  0.41800000000E+01 0.  1.
</event>
<event>
11    1  0.1704459E-009  0.1595470E+04  0.7561462E-02  0.8256654E-01
         22   -1    0    0    0    0  0.00000000000E+00  0.00000000000E+00  0.27673501783E+04  0.27673501783E+04  0.00000000000E+00 0. -1.
         22   -1    0    0    0    0 -0.00000000000E+00 -0.00000000000E+00 -0.22996044064E+03  0.22996044064E+03  0.00000000000E+00 0. -1.
         25    2    1    2    0    0  0.62317450074E+02 -0.61399052671E+03  0.40070499595E+03  0.74637714457E+03  0.12508603712E+03 0.  0.
         24    2    1    2    0    0 -0.15257650412E+03  0.31747560082E+03  0.83377331615E+03  0.90932721519E+03  0.87336675199E+02 0.  0.
        -24    2    1    2    0    0  0.90259054047E+02  0.29651492589E+03  0.13029114255E+04  0.13416062592E+04  0.79128842604E+02 0.  0.
        -13    1    4    4    0    0  0.13932908126E+01  0.38892343788E+02  0.15212717778E+03  0.15702622038E+03  0.00000000000E+00 0.  1.
         14    1    4    4    0    0 -0.15396979493E+03  0.27858325703E+03  0.68164613837E+03  0.75230099481E+03  0.00000000000E+00 0. -1.
         11    1    5    5    0    0  0.43474178642E+02  0.58246312530E+02  0.21594712490E+03  0.22785038487E+03  0.00000000000E+00 0. -1.
        -12    1    5    5    0    0  0.46784875405E+02  0.23826861336E+03  0.10869643006E+04  0.11137558743E+04  0.00000000000E+00 0.  1.
          5    1    3    3  501    0  0.98191530339E+02 -0.48685970269E+03  0.33199994695E+03  0.59742395659E+03  0.41800000000E+01 0. -1.
         -5    1    3    3    0  501 -0.35874080264E+02 -0.12713082401E+03  0.68705049003E+02  0.14895318797E+03  0.41800000000E+01 0. -1.
</event>
<event>
11    1  0.1704459E-009  0.1899089E+03  0.7561462E-02  0.1061898E+00
         22   -1    0    0    0    0  0.00000000000E+00  0.00000000000E+00  0.33718816279E+03  0.33718816279E+03  0.00000000000E+00 0. -1.
         22   -1    0    0    0    0 -0.00000000000E+00 -0.00000000000E+00 -0.37310041289E+03  0.37310041289E+03  0.00000000000E+00 0. -1.
         25    2    1    2    0    0 -0.13792625386E+03 -0.17192302514E+02 -0.27725384247E+03  0.33441945657E+03  0.12508977975E+03 0.  0.
        -24    2    1    2    0    0  0.17622585266E+03 -0.12954833238E+02  0.18384978502E+03  0.26861112078E+03  0.84426369717E+02 0.  0.
         24    2    1    2    0    0 -0.38299598799E+02  0.30147135752E+02  0.57491807355E+02  0.10725799832E+03  0.76310295698E+02 0.  0.
        -13    1    5    5    0    0 -0.10542135947E+02  0.53305593390E+02  0.36437355569E+02  0.65424030737E+02  0.00000000000E+00 0.  1.
         14    1    5    5    0    0 -0.27757462852E+02 -0.23158457638E+02  0.21054451786E+02  0.41833967588E+02  0.00000000000E+00 0. -1.
         11    1    4    4    0    0  0.70039409668E+02  0.31448408640E+02  0.47940671664E+02  0.90514249222E+02  0.00000000000E+00 0. -1.
        -12    1    4    4    0    0  0.10618644299E+03 -0.44403241879E+02  0.13590911336E+03  0.17809687155E+03  0.00000000000E+00 0.  1.
          5    1    3    3  501    0 -0.85664725904E+02  0.13328434000E+02 -0.25571539534E+03  0.27004430790E+03  0.41800000000E+01 0. -1.
         -5    1    3    3    0  501 -0.52261527957E+02 -0.30520736514E+02 -0.21538447138E+02  0.64375148674E+02  0.41800000000E+01 0. -1.
</event>
<event>
11    1  0.1704459E-009  0.1735130E+03  0.7561462E-02  0.1075014E+00
         22   -1    0    0    0    0  0.00000000000E+00  0.00000000000E+00  0.83214241581E+03  0.83214241581E+03  0.00000000000E+00 0. -1.
         22   -1    0    0    0    0 -0.00000000000E+00 -0.00000000000E+00 -0.10519612537E+03  0.10519612537E+03  0.00000000000E+00 0.  1.
         25    2    1    2    0    0 -0.46240047008E+02 -0.11160402316E+03  0.27194287926E+02  0.17601011845E+03  0.12508570090E+03 0.  0.
         24    2    1    2    0    0  0.59609106575E+02  0.10399443454E+03  0.15951929904E+03  0.21495404010E+03  0.79942132741E+02 0.  0.
        -24    2    1    2    0    0 -0.13369059566E+02  0.76095886172E+01  0.54023270347E+03  0.54637438262E+03  0.80230633134E+02 0.  0.
        -13    1    4    4    0    0  0.95160615888E+01 -0.13362903884E+02  0.16057393137E+02  0.22955663849E+02  0.00000000000E+00 0.  1.
         14    1    4    4    0    0  0.50093044986E+02  0.11735733842E+03  0.14346190591E+03  0.19199837625E+03  0.00000000000E+00 0. -1.
         13    1    5    5    0    0 -0.39004905223E+02  0.13954575017E+02  0.46097269819E+03  0.46283035907E+03  0.00000000000E+00 0. -1.
        -14    1    5    5    0    0  0.25635845657E+02 -0.63449864002E+01  0.79260005278E+02  0.83544023554E+02  0.00000000000E+00 0.  1.
          5    1    3    3  501    0  0.24618690146E+02 -0.40695527418E+02  0.54077629287E+02  0.72139228202E+02  0.41800000000E+01 0. -1.
         -5    1    3    3    0  501 -0.70858737154E+02 -0.70908495737E+02 -0.26883341360E+02  0.10387089025E+03  0.41800000000E+01 0. -1.
</event>
<event>
11    1  0.1704459E-009  0.1967878E+03  0.7561462E-02  0.1056819E+00
         22   -1    0    0    0    0  0.00000000000E+00  0.00000000000E+00  0.54702427541E+03  0.54702427541E+03  0.00000000000E+00 0. -1.
         22   -1    0    0    0    0 -0.00000000000E+00 -0.00000000000E+00 -0.10353534480E+03  0.10353534480E+03  0.00000000000E+00 0. -1.
         25    2    1    2    0    0  0.79060450017E+02 -0.12710512944E+03  0.14207890894E+03  0.24132921121E+03  0.12508838127E+03 0.  0.
         24    2    1    2    0    0 -0.81036110352E+02  0.13075385096E+03  0.11885640163E+03  0.21037227328E+03  0.80412862379E+02 0.  0.
        -24    2    1    2    0    0  0.19756603347E+01 -0.36487215208E+01  0.18255362004E+03  0.19885813572E+03  0.78749714587E+02 0.  0.
        -13    1    4    4    0    0 -0.28117160515E+02  0.11184572663E+02 -0.45221177636E+01  0.30596060696E+02  0.00000000000E+00 0.  1.
         14    1    4    4    0    0 -0.52918949837E+02  0.11956927830E+03  0.12337851939E+03  0.17977621259E+03  0.00000000000E+00 0. -1.
         13    1    5    5    0    0  0.19871278877E+02  0.32720468312E+02  0.91974980106E+02  0.99623760902E+02  0.00000000000E+00 0. -1.
        -14    1    5    5    0    0 -0.17895618542E+02 -0.36369189833E+02  0.90578639938E+02  0.99234374816E+02  0.00000000000E+00 0.  1.
          5    1    3    3  501    0 -0.26880026391E+02 -0.50741348491E+02  0.74718475161E+02  0.94326789386E+02  0.41800000000E+01 0.  1.
         -5    1    3    3    0  501  0.10594047641E+03 -0.76363780949E+02  0.67360433777E+02  0.14700242182E+03  0.41800000000E+01 0.  1.
</event>
<event>
11    1  0.1704459E-009  0.4241889E+03  0.7561462E-02  0.9580965E-01
         22   -1    0    0    0    0  0.00000000000E+00  0.00000000000E+00  0.73694235531E+03  0.73694235531E+03  0.00000000000E+00 0.  1.
         22   -1    0    0    0    0 -0.00000000000E+00 -0.00000000000E+00 -0.28347705716E+03  0.28347705716E+03  0.00000000000E+00 0.  1.
         25    2    1    2    0    0  0.23623137229E+02 -0.40001637239E+02 -0.24812135605E+02  0.13572600990E+03  0.12509086336E+03 0.  0.
         24    2    1    2    0    0  0.14175827797E+03 -0.23936111211E+03 -0.13346385182E+02  0.29017576860E+03  0.81453663650E+02 0.  0.
        -24    2    1    2    0    0 -0.16538141520E+03  0.27936274935E+03  0.49162381893E+03  0.59451763396E+03  0.79766406026E+02 0.  0.
        -11    1    4    4    0    0  0.11094754357E+03 -0.10761770740E+03 -0.64066846479E+01  0.15469962501E+03  0.00000000000E+00 0.  1.
         12    1    4    4    0    0  0.30810734405E+02 -0.13174340471E+03 -0.69397005340E+01  0.13547614359E+03  0.00000000000E+00 0. -1.
         11    1    5    5    0    0 -0.38511259737E+02  0.91705461757E+02  0.93760403861E+02  0.13668951011E+03  0.00000000000E+00 0. -1.
        -12    1    5    5    0    0 -0.12687015547E+03  0.18765728759E+03  0.39786341507E+03  0.45782812385E+03  0.00000000000E+00 0.  1.
          5    1    3    3  501    0  0.20631845990E+02 -0.63310031215E+02  0.32079931682E+02  0.74029909754E+02  0.41800000000E+01 0.  1.
         -5    1    3    3    0  501  0.29912912388E+01  0.23308393976E+02 -0.56892067287E+02  0.61696100146E+02  0.41800000000E+01 0.  1.
</event>
<event>
11    1  0.2793019E-009  0.2961073E+04  0.7561462E-02  0.7757819E-01
         22   -1    0    0    0    0  0.00000000000E+00  0.00000000000E+00  0.13522635713E+04  0.13522635713E+04  0.00000000000E+00 0.  1.
         22   -1    0    0    0    0 -0.00000000000E+00 -0.00000000000E+00 -0.16209768976E+04  0.16209768976E+04  0.00000000000E+00 0.  1.
         25    2    1    2    0    0  0.88129043202E+03 -0.45713444959E+02 -0.12828606983E+04  0.15620948603E+04  0.12508491763E+03 0.  0.
        -24    2    1    2    0    0 -0.69515911536E+03  0.20040232558E+03  0.75344241001E+03  0.10469123389E+04  0.70304284358E+02 0.  0.
         24    2    1    2    0    0 -0.18613131666E+03 -0.15468888062E+03  0.26070496198E+03  0.36423326968E+03  0.78264172584E+02 0.  0.
        -13    1    5    5    0    0 -0.47011590806E+02 -0.11463076468E+01  0.52997923230E+02  0.70853253687E+02  0.00000000000E+00 0.  1.
         14    1    5    5    0    0 -0.13911972586E+03 -0.15354257297E+03  0.20770703875E+03  0.29338001599E+03  0.00000000000E+00 0. -1.
         11    1    4    4    0    0 -0.42290745051E+03  0.15396131938E+03  0.44557280271E+03  0.63331660493E+03  0.00000000000E+00 0. -1.
        -12    1    4    4    0    0 -0.27225166484E+03  0.46441006191E+02  0.30786960730E+03  0.41359573398E+03  0.00000000000E+00 0.  1.
          5    1    3    3  501    0  0.69973323149E+03 -0.12737443112E+02 -0.93049405589E+03  0.11643133161E+04  0.41800000000E+01 0. -1.
         -5    1    3    3    0  501  0.18155720053E+03 -0.32976001847E+02 -0.35236664242E+03  0.39778154413E+03  0.41800000000E+01 0. -1.
</event>
<event>
11    1  0.1704459E-009  0.2282254E+03  0.7561462E-02  0.1036184E+00
         22   -1    0    0    0    0  0.00000000000E+00  0.00000000000E+00  0.32391095033E+03  0.32391095033E+03  0.00000000000E+00 0.  1.
         22   -1    0    0    0    0 -0.00000000000E+00 -0.00000000000E+00 -0.30279673140E+04  0.30279673140E+04  0.00000000000E+00 0. -1.
         25    2    1    2    0    0  0.75728855701E+02  0.19460842086E+03 -0.25666843995E+04  0.25782015712E+04  0.12508892047E+03 0.  0.
        -24    2    1    2    0    0 -0.72340679171E+02 -0.12483159173E+03 -0.43049451549E+03  0.46130670603E+03  0.81622601060E+02 0.  0.
         24    2    1    2    0    0 -0.33881765302E+01 -0.69776829131E+02  0.29312255137E+03  0.31236998706E+03  0.82303663796E+02 0.  0.
        -13    1    5    5    0    0 -0.25724678740E+02 -0.67223393935E+02  0.27255643709E+03  0.28190025751E+03  0.00000000000E+00 0.  1.
         14    1    5    5    0    0  0.22336502210E+02 -0.25534351956E+01  0.20566114281E+02  0.30469729550E+02  0.00000000000E+00 0. -1.
         13    1    4    4    0    0 -0.23054540280E+02 -0.10355082726E+03 -0.22251057132E+03  0.24650606484E+03  0.00000000000E+00 0. -1.
        -14    1    4    4    0    0 -0.49286138891E+02 -0.21280764473E+02 -0.20798394417E+03  0.21480064119E+03  0.00000000000E+00 0.  1.
          5    1    3    3  501    0  0.44873603534E+02  0.71081211130E+02 -0.17128116758E+04  0.17148782721E+04  0.41800000000E+01 0. -1.
         -5    1    3    3    0  501  0.30855252167E+02  0.12352720973E+03 -0.85387272372E+03  0.86332329915E+03  0.41800000000E+01 0. -1.
</event>
<event>
11    1  0.1704459E-009  0.1603362E+03  0.7561462E-02  0.1086761E+00
         22   -1    0    0    0    0  0.00000000000E+00  0.00000000000E+00  0.37422336162E+03  0.37422336162E+03  0.00000000000E+00 0.  1.
         22   -1    0    0    0    0 -0.00000000000E+00 -0.00000000000E+00 -0.25358381183E+03  0.25358381183E+03  0.00000000000E+00 0. -1.
         25    2    1    2    0    0 -0.10201246496E+03 -0.13898468001E+02 -0.15063440489E+03  0.22122001430E+03  0.12509140806E+03 0.  0.
         24    2    1    2    0    0  0.95464735478E+02 -0.52451002177E+02  0.35220977514E+02  0.14899483929E+03  0.95364152218E+02 0.  0.
        -24    2    1    2    0    0  0.65477294772E+01  0.66349470178E+02  0.23605297716E+03  0.25759231986E+03  0.78661745913E+02 0.  0.
        -13    1    4    4    0    0 -0.15992208054E+02 -0.24862169477E+02  0.28513555424E+01  0.29698626533E+02  0.00000000000E+00 0.  1.
         14    1    4    4    0    0  0.11145694353E+03 -0.27588832700E+02  0.32369621972E+02  0.11929621276E+03  0.00000000000E+00 0. -1.
         11    1    5    5    0    0 -0.13732165155E+02  0.17761806093E+02  0.84654512808E+01  0.23994123883E+02  0.00000000000E+00 0. -1.
        -12    1    5    5    0    0  0.20279894632E+02  0.48587664085E+02  0.22758752588E+03  0.23359819598E+03  0.00000000000E+00 0.  1.
          5    1    3    3  501    0 -0.22727208921E+02 -0.62401236675E+02 -0.82013197275E+02  0.10561286518E+03  0.41800000000E+01 0. -1.
         -5    1    3    3    0  501 -0.79285256035E+02  0.48502768674E+02 -0.68621207611E+02  0.11560714912E+03  0.41800000000E+01 0. -1.
</event>
<event>
11    1  0.1704459E-009  0.5847407E+04  0.7561462E-02  0.7275096E-01
         22   -1    0    0    0    0  0.00000000000E+00  0.00000000000E+00  0.26618160975E+04  0.26618160975E+04  0.00000000000E+00 0. -1.
         22   -1    0    0    0    0 -0.00000000000E+00 -0.00000000000E+00 -0.32113568406E+04  0.32113568406E+04  0.00000000000E+00 0. -1.
         25    2    1    2    0    0 -0.12346991752E+03  0.22028251647E+04 -0.21645417137E+04  0.30933106868E+04  0.12508656194E+03 0.  0.
         24    2    1    2    0    0  0.14983624638E+03 -0.21480664573E+04  0.15864640756E+04  0.26758469782E+04  0.81537613159E+02 0.  0.
        -24    2    1    2    0    0 -0.26366328856E+02 -0.54758707485E+02  0.28536894986E+02  0.10401527312E+03  0.79442578780E+02 0.  0.
        -13    1    4    4    0    0  0.54898215803E+00 -0.41313492248E+03  0.32339664564E+03  0.52465813247E+03  0.00000000000E+00 0.  1.
         14    1    4    4    0    0  0.14928726422E+03 -0.17349315348E+04  0.12630674299E+04  0.21511888458E+04  0.00000000000E+00 0. -1.
         11    1    5    5    0    0  0.27667029950E+02 -0.28377171374E+02  0.76707220678E+01  0.40367912734E+02  0.00000000000E+00 0. -1.
        -12    1    5    5    0    0 -0.54033358806E+02 -0.26381536110E+02  0.20866172918E+02  0.63647360382E+02  0.00000000000E+00 0.  1.
          5    1    3    3  501    0 -0.97046720209E+02  0.15998697771E+04 -0.16480801104E+04  0.22989534341E+04  0.41800000000E+01 0. -1.
         -5    1    3    3    0  501 -0.26423197311E+02  0.60295538769E+03 -0.51646160329E+03  0.79435725273E+03  0.41800000000E+01 0. -1.
</event>
<event>
11    1  0.1704459E-009  0.2461019E+03  0.7561462E-02  0.1025997E+00
         22   -1    0    0    0    0  0.00000000000E+00  0.00000000000E+00  0.13188215436E+04  0.13188215436E+04  0.00000000000E+00 0. -1.
         22   -1    0    0    0    0 -0.00000000000E+00 -0.00000000000E+00 -0.82647545727E+03  0.82647545727E+03  0.00000000000E+00 0. -1.
         25    2    1    2    0    0 -0.12479020295E+03 -0.15112162618E+03 -0.42784583835E+03  0.48693747696E+03  0.12508279024E+03 0.  0.
        -24    2    1    2    0    0  0.14858413288E+03  0.18142289346E+03 -0.32586020968E+03  0.40938389221E+03  0.80117314773E+02 0.  0.
         24    2    1    2    0    0 -0.23793929929E+02 -0.30301267286E+02  0.12460521344E+04  0.12489756317E+04  0.76222628633E+02 0.  0.
        -11    1    5    5    0    0 -0.43933100410E+02 -0.42073231457E+02  0.79700287897E+03  0.79932087625E+03  0.00000000000E+00 0.  1.
         12    1    5    5    0    0  0.20139170481E+02  0.11771964171E+02  0.44904925544E+03  0.44965475550E+03  0.00000000000E+00 0. -1.
         11    1    4    4    0    0  0.15206289325E+03  0.18624536943E+03 -0.30912185657E+03  0.39162071363E+03  0.00000000000E+00 0. -1.
        -12    1    4    4    0    0 -0.34787603637E+01 -0.48224759671E+01 -0.16738353112E+02  0.17763178573E+02  0.00000000000E+00 0.  1.
          5    1    3    3  501    0 -0.34948784225E+01 -0.95827547933E+02 -0.21939545208E+03  0.23947227379E+03  0.41800000000E+01 0. -1.
         -5    1    3    3    0  501 -0.12129532453E+03 -0.55294078246E+02 -0.20845038627E+03  0.24746520317E+03  0.41800000000E+01 0. -1.
</event>
<event>
11    1  0.1704459E-009  0.3598801E+03  0.7561462E-02  0.9776164E-01
         22   -1    0    0    0    0  0.00000000000E+00  0.00000000000E+00  0.67121765060E+03  0.67121765060E+03  0.00000000000E+00 0. -1.
         22   -1    0    0    0    0 -0.00000000000E+00 -0.00000000000E+00 -0.30950141631E+03  0.30950141631E+03  0.00000000000E+00 0. -1.
         25    2    1    2    0    0 -0.44814198942E+02 -0.29830659262E+03  0.61954580150E+02  0.33238505446E+03  0.12508524615E+03 0.  0.
        -24    2    1    2    0    0  0.39959545340E+02  0.37828056387E+03  0.74838749154E+02  0.39637041548E+03  0.82557359644E+02 0.  0.
         24    2    1    2    0    0  0.48546536017E+01 -0.79973971254E+02  0.22492290499E+03  0.25196359696E+03  0.80473208367E+02 0.  0.
        -13    1    5    5    0    0  0.16723207261E+02  0.67499268261E+01  0.85192463817E+02  0.87080325358E+02  0.00000000000E+00 0.  1.
         14    1    5    5    0    0 -0.11868553660E+02 -0.86723898080E+02  0.13973044117E+03  0.16488327160E+03  0.00000000000E+00 0. -1.
         11    1    4    4    0    0  0.20162390701E+02  0.33824403016E+03  0.87475163025E+02  0.34995349703E+03  0.00000000000E+00 0. -1.
        -12    1    4    4    0    0  0.19797154639E+02  0.40036533712E+02 -0.12636413871E+02  0.46416918457E+02  0.00000000000E+00 0.  1.
          5    1    3    3  501    0 -0.50867026021E+02 -0.32274963119E+02  0.13473534691E+02  0.61871933198E+02  0.41800000000E+01 0. -1.
         -5    1    3    3    0  501  0.60528270795E+01 -0.26603162950E+03  0.48481045459E+02  0.27051312127E+03  0.41800000000E+01 0. -1.
</event>
<event>
11    1  0.1704459E-009  0.1800669E+03  0.7561462E-02  0.1069589E+00
         22   -1    0    0    0    0  0.00000000000E+00  0.00000000000E+00  0.44178688505E+02  0.44178688505E+02  0.00000000000E+00 0. -1.
         22   -1    0    0    0    0 -0.00000000000E+00 -0.00000000000E+00 -0.27480744352E+04  0.27480744352E+04  0.00000000000E+00 0.  1.
         25    2    1    2    0    0  0.28848910181E+02  0.10683232435E+03 -0.12523352176E+04  0.12634224982E+04  0.12508999404E+03 0.  0.
         24    2    1    2    0    0 -0.37643840399E+02 -0.14099933232E+03 -0.14265495345E+04  0.14361955773E+04  0.79475099535E+02 0.  0.
        -24    2    1    2    0    0  0.87949302177E+01  0.34167007977E+02 -0.25010994654E+02  0.92635048245E+02  0.81920492419E+02 0.  0.
        -11    1    4    4    0    0 -0.24575541617E+02 -0.14120348783E+03 -0.13901808793E+04  0.13975497342E+04  0.00000000000E+00 0.  1.
         12    1    4    4    0    0 -0.13068298782E+02  0.20415550376E+00 -0.36368655134E+02  0.38645843098E+02  0.00000000000E+00 0. -1.
         13    1    5    5    0    0 -0.11667306620E+02 -0.16078419582E+02 -0.32274884608E+02  0.37898678031E+02  0.00000000000E+00 0. -1.
        -14    1    5    5    0    0  0.20462236838E+02  0.50245427559E+02  0.72638899537E+01  0.54736370214E+02  0.00000000000E+00 0.  1.
          5    1    3    3  501    0 -0.36133292538E+02  0.18158987335E+02 -0.63949285549E+03  0.64078385456E+03  0.41800000000E+01 0.  1.
         -5    1    3    3    0  501  0.64982202719E+02  0.88673337013E+02 -0.61284236210E+03  0.62263864364E+03  0.41800000000E+01 0.  1.
</event>
<event>
11    1  0.1704459E-009  0.1924833E+03  0.7561462E-02  0.1059970E+00
         22   -1    0    0    0    0  0.00000000000E+00  0.00000000000E+00  0.13482521138E+04  0.13482521138E+04  0.00000000000E+00 0.  1.
         22   -1    0    0    0    0 -0.00000000000E+00 -0.00000000000E+00 -0.37265178136E+02  0.37265178136E+02  0.00000000000E+00 0.  1.
         25    2    1    2    0    0 -0.38968933989E+02  0.12660937976E+03  0.51925489161E+03  0.55029229199E+03  0.12508977294E+03 0.  0.
         24    2    1    2    0    0  0.32522445753E+02 -0.15591017288E+03  0.47430304341E+03  0.50615143365E+03  0.76551977850E+02 0.  0.
        -24    2    1    2    0    0  0.64464882351E+01  0.29300793117E+02  0.31742900069E+03  0.32907356635E+03  0.81413438097E+02 0.  0.
        -13    1    4    4    0    0  0.33701535073E+02 -0.15091369890E+03  0.47620134015E+03  0.50067799466E+03  0.00000000000E+00 0.  1.
         14    1    4    4    0    0 -0.11790893201E+01 -0.49964739823E+01 -0.18982967349E+01  0.54734389897E+01  0.00000000000E+00 0. -1.
         13    1    5    5    0    0 -0.23587689029E+02 -0.15087949547E+02  0.61227366731E+02  0.67326189051E+02  0.00000000000E+00 0. -1.
        -14    1    5    5    0    0  0.30034177264E+02  0.44388742665E+02  0.25620163396E+03  0.26174737730E+03  0.00000000000E+00 0.  1.
          5    1    3    3  501    0 -0.82987942421E+02  0.96930042265E+02  0.33530037490E+03  0.35878439973E+03  0.41800000000E+01 0.  1.
         -5    1    3    3    0  501  0.44019008432E+02  0.29679337498E+02  0.18395451671E+03  0.19150789226E+03  0.41800000000E+01 0.  1.
</event>
<event>
11    1  0.1704459E-009  0.1434751E+04  0.7561462E-02  0.8348939E-01
         22   -1    0    0    0    0  0.00000000000E+00  0.00000000000E+00  0.36423377175E+03  0.36423377175E+03  0.00000000000E+00 0.  1.
         22   -1    0    0    0    0 -0.00000000000E+00 -0.00000000000E+00 -0.14129040045E+04  0.14129040045E+04  0.00000000000E+00 0.  1.
         25    2    1    2    0    0  0.44264998690E+03 -0.26357477897E+03 -0.11009613424E+04  0.12219550610E+04  0.12509044204E+03 0.  0.
         24    2    1    2    0    0 -0.30511875055E+03  0.12157944765E+03  0.35793445961E+02  0.34199499749E+03  0.88319836434E+02 0.  0.
        -24    2    1    2    0    0 -0.13753123636E+03  0.14199533131E+03  0.16497663588E+02  0.21318771782E+03  0.78098111616E+02 0.  0.
        -11    1    4    4    0    0 -0.27226625424E+03  0.10680818385E+03  0.18081588942E+01  0.29247251285E+03  0.00000000000E+00 0.  1.
         12    1    4    4    0    0 -0.32852496313E+02  0.14771263804E+02  0.33985287067E+02  0.49522484645E+02  0.00000000000E+00 0. -1.
         13    1    5    5    0    0 -0.90960934616E+02  0.83625378173E+02 -0.27409762387E+02  0.12656378066E+03  0.00000000000E+00 0. -1.
        -14    1    5    5    0    0 -0.46570301739E+02  0.58369953138E+02  0.43907425975E+02  0.86623937160E+02  0.00000000000E+00 0.  1.
          5    1    3    3  501    0  0.15222116021E+03 -0.15953868718E+03 -0.42099856267E+03  0.47526954089E+03  0.41800000000E+01 0. -1.
         -5    1    3    3    0  501  0.29042882669E+03 -0.10403609179E+03 -0.67996277968E+03  0.74668552010E+03  0.41800000000E+01 0. -1.
</event>
<event>
11    1  0.1704459E-009  0.2273229E+03  0.7561462E-02  0.1036725E+00
         22   -1    0    0    0    0  0.00000000000E+00  0.00000000000E+00  0.53350264151E+03  0.53350264151E+03  0.00000000000E+00 0. -1.
         22   -1    0    0    0    0 -0.00000000000E+00 -0.00000000000E+00 -0.15571035388E+04  0.15571035388E+04  0.00000000000E+00 0.  1.
         25    2    1    2    0    0 -0.14830701377E+03 -0.11990255144E+03 -0.15139474311E+04  0.15310300965E+04  0.12507893499E+03 0.  0.
        -24    2    1    2    0    0  0.13535084875E+03  0.77851362746E+02  0.31624096679E+03  0.36277161632E+03  0.84936503292E+02 0.  0.
         24    2    1    2    0    0  0.12956165019E+02  0.42051188693E+02  0.17410556705E+03  0.19680446750E+03  0.80517608451E+02 0.  0.
        -11    1    5    5    0    0  0.35559359692E+02  0.41638067910E+01  0.32037006728E+02  0.48043471448E+02  0.00000000000E+00 0.  1.
         12    1    5    5    0    0 -0.22603194673E+02  0.37887381902E+02  0.14206856032E+03  0.14876099606E+03  0.00000000000E+00 0. -1.
         13    1    4    4    0    0  0.99501055631E+02  0.37987391683E+02  0.27569727032E+03  0.29555454126E+03  0.00000000000E+00 0. -1.
        -14    1    4    4    0    0  0.35849793123E+02  0.39863971063E+02  0.40543696468E+02  0.67217075057E+02  0.00000000000E+00 0.  1.
          5    1    3    3  501    0 -0.13441718347E+03 -0.63947230018E+02 -0.13275410597E+04  0.13358667467E+04  0.41800000000E+01 0.  1.
         -5    1    3    3    0  501 -0.13889830305E+02 -0.55955321420E+02 -0.18640637143E+03  0.19516334976E+03  0.41800000000E+01 0.  1.
</event>
<event>
11    1  0.1704459E-009  0.1790580E+03  0.7561462E-02  0.1070407E+00
         22   -1    0    0    0    0  0.00000000000E+00  0.00000000000E+00  0.26677477749E+03  0.26677477749E+03  0.00000000000E+00 0.  1.
         22   -1    0    0    0    0 -0.00000000000E+00 -0.00000000000E+00 -0.42360389812E+03  0.42360389812E+03  0.00000000000E+00 0. -1.
         25    2    1    2    0    0 -0.39396638705E+02  0.14219871133E+03 -0.21370685616E+03  0.28825173604E+03  0.12508346938E+03 0.  0.
        -24    2    1    2    0    0  0.67360094662E+02 -0.94123671019E+02 -0.13017324096E+03  0.19164333338E+03  0.79908990545E+02 0.  0.
         24    2    1    2    0    0 -0.27963455957E+02 -0.48075040310E+02  0.18705097649E+03  0.21048360619E+03  0.78880392365E+02 0.  0.
        -13    1    5    5    0    0  0.10437976417E+02  0.16947458636E+01  0.11237344538E+03  0.11286990184E+03  0.00000000000E+00 0.  1.
         14    1    5    5    0    0 -0.38401432374E+02 -0.49769786173E+02  0.74677531108E+02  0.97613704348E+02  0.00000000000E+00 0. -1.
         11    1    4    4    0    0  0.54795841800E+02 -0.96315827378E+02 -0.72140156479E+02  0.13222528147E+03  0.00000000000E+00 0. -1.
        -12    1    4    4    0    0  0.12564252862E+02  0.21921563583E+01 -0.58033084480E+02  0.59418051919E+02  0.00000000000E+00 0.  1.
          5    1    3    3  501    0  0.54091735191E+01  0.14709968326E+03 -0.15103860857E+03  0.21094480238E+03  0.41800000000E+01 0. -1.
         -5    1    3    3    0  501 -0.44805812224E+02 -0.49009719312E+01 -0.62668247589E+02  0.77306933653E+02  0.41800000000E+01 0. -1.
</event>
<event>
11    1  0.1704459E-009  0.1376073E+03  0.7561462E-02  0.1110260E+00
         22   -1    0    0    0    0  0.00000000000E+00  0.00000000000E+00  0.97692190019E+03  0.97692190019E+03  0.00000000000E+00 0. -1.
         22   -1    0    0    0    0 -0.00000000000E+00 -0.00000000000E+00 -0.23199022401E+03  0.23199022401E+03  0.00000000000E+00 0. -1.
         25    2    1    2    0    0 -0.33516714767E+02 -0.38523727346E+02 -0.13790063096E+03  0.19304619038E+03  0.12507117918E+03 0.  0.
        -24    2    1    2    0    0  0.70713539182E+02  0.22460138537E+02 -0.17100536690E+02  0.11162887594E+03  0.81631581762E+02 0.  0.
         24    2    1    2    0    0 -0.37196824415E+02  0.16063588809E+02  0.89993284384E+03  0.90423705789E+03  0.78255292505E+02 0.  0.
        -11    1    5    5    0    0  0.20688341831E+02  0.10863402327E+02  0.12769946616E+03  0.12981977760E+03  0.00000000000E+00 0.  1.
         12    1    5    5    0    0 -0.57885166246E+02  0.52001864821E+01  0.77223337768E+03  0.77441728029E+03  0.00000000000E+00 0. -1.
         11    1    4    4    0    0  0.10208825305E+02  0.41395125027E+02 -0.22120237959E+02  0.48032087373E+02  0.00000000000E+00 0. -1.
        -12    1    4    4    0    0  0.60504713876E+02 -0.18934986490E+02  0.50197012694E+01  0.63596788563E+02  0.00000000000E+00 0.  1.
          5    1    3    3  501    0 -0.68935375061E+02 -0.30102464071E+02 -0.13704909734E+03  0.15639108593E+03  0.41800000000E+01 0. -1.
         -5    1    3    3    0  501  0.35418660294E+02 -0.84212632747E+01 -0.85153362353E+00  0.36655104442E+02  0.41800000000E+01 0. -1.
</event>
<event>
11    1  0.1704459E-009  0.1871151E+03  0.7561462E-02  0.1064029E+00
         22   -1    0    0    0    0  0.00000000000E+00  0.00000000000E+00  0.31890204553E+03  0.31890204553E+03  0.00000000000E+00 0.  1.
         22   -1    0    0    0    0 -0.00000000000E+00 -0.00000000000E+00 -0.21743979649E+03  0.21743979649E+03  0.00000000000E+00 0. -1.
         25    2    1    2    0    0  0.13291079798E+03 -0.39172110456E+01 -0.77634509017E+02  0.19837640627E+03  0.12508180049E+03 0.  0.
        -24    2    1    2    0    0 -0.14790087235E+03  0.49480006031E+02  0.59149599219E+02  0.18548102477E+03  0.81127038786E+02 0.  0.
         24    2    1    2    0    0  0.14990074378E+02 -0.45562794985E+02  0.11994715883E+03  0.15248441097E+03  0.81015455702E+02 0.  0.
        -13    1    5    5    0    0  0.13258081291E+01 -0.38983606804E+02  0.12903672813E+03  0.13480339971E+03  0.00000000000E+00 0.  1.
         14    1    5    5    0    0  0.13664266249E+02 -0.65791881809E+01 -0.90895693027E+01  0.17681011265E+02  0.00000000000E+00 0. -1.
         11    1    4    4    0    0 -0.32416316328E+02 -0.20378708689E+02  0.43324441233E+00  0.38292258132E+02  0.00000000000E+00 0. -1.
        -12    1    4    4    0    0 -0.11548455603E+03  0.69858714719E+02  0.58716354807E+02  0.14718876664E+03  0.00000000000E+00 0.  1.
          5    1    3    3  501    0 -0.33415493439E+01  0.17189763488E+02 -0.55907683309E+02  0.58734958703E+02  0.41800000000E+01 0. -1.
         -5    1    3    3    0  501  0.13625234732E+03 -0.21106974534E+02 -0.21726825707E+02  0.13964144757E+03  0.41800000000E+01 0. -1.
</event>
<event>
11    1  0.1704459E-009  0.1773619E+03  0.7561462E-02  0.1071797E+00
         22   -1    0    0    0    0  0.00000000000E+00  0.00000000000E+00  0.13450310796E+03  0.13450310796E+03  0.00000000000E+00 0.  1.
         22   -1    0    0    0    0 -0.00000000000E+00 -0.00000000000E+00 -0.11113755830E+04  0.11113755830E+04  0.00000000000E+00 0.  1.
         25    2    1    2    0    0  0.12742497997E+03  0.26907410393E+02 -0.98772851237E+03  0.10040996297E+04  0.12508924017E+03 0.  0.
         24    2    1    2    0    0 -0.58157932576E+02  0.47747453630E+02 -0.78792716786E+01  0.11057833142E+03  0.80643164666E+02 0.  0.
        -24    2    1    2    0    0 -0.69267047389E+02 -0.74654864023E+02  0.18735309003E+02  0.13120072983E+03  0.80568896787E+02 0.  0.
        -13    1    4    4    0    0 -0.67906682307E+02  0.35131945636E+02 -0.30992962891E+02  0.82499302148E+02  0.00000000000E+00 0.  1.
         14    1    4    4    0    0  0.97487497308E+01  0.12615507994E+02  0.23113691213E+02  0.28079029270E+02  0.00000000000E+00 0. -1.
         13    1    5    5    0    0 -0.21568987365E+02 -0.26491038659E+02 -0.31783817508E+02  0.46660555082E+02  0.00000000000E+00 0. -1.
        -14    1    5    5    0    0 -0.47698060024E+02 -0.48163825364E+02  0.50519126511E+02  0.84540174753E+02  0.00000000000E+00 0.  1.
          5    1    3    3  501    0  0.60608941964E+02  0.73762344626E+02 -0.43573203081E+03  0.44608766224E+03  0.41800000000E+01 0. -1.
         -5    1    3    3    0  501  0.66816038001E+02 -0.46854934233E+02 -0.55199648157E+03  0.55801196749E+03  0.41800000000E+01 0. -1.
</event>
<event>
11    1  0.1704459E-009  0.1753241E+03  0.7561462E-02  0.1073489E+00
         22   -1    0    0    0    0  0.00000000000E+00  0.00000000000E+00  0.85486690110E+03  0.85486690110E+03  0.00000000000E+00 0.  1.
         22   -1    0    0    0    0 -0.00000000000E+00 -0.00000000000E+00 -0.10438468376E+04  0.10438468376E+04  0.00000000000E+00 0. -1.
         25    2    1    2    0    0 -0.11552286022E+02 -0.89869881225E+02 -0.99877371937E+03  0.10106467175E+04  0.12509114332E+03 0.  0.
         24    2    1    2    0    0 -0.12266473427E+03  0.13868160116E+03  0.41491881967E+03  0.46170066245E+03  0.82040546411E+02 0.  0.
        -24    2    1    2    0    0  0.13421702029E+03 -0.48811719933E+02  0.39487496322E+03  0.42636635877E+03  0.73927280295E+02 0.  0.
        -13    1    4    4    0    0 -0.13116681432E+03  0.11086552829E+03  0.37344645031E+03  0.41104519191E+03  0.00000000000E+00 0.  1.
         14    1    4    4    0    0  0.85020800556E+01  0.27816072870E+02  0.41472369362E+02  0.50655470540E+02  0.00000000000E+00 0. -1.
         11    1    5    5    0    0  0.12150168098E+02 -0.29859955105E+02  0.13251314576E+03  0.13637806753E+03  0.00000000000E+00 0. -1.
        -12    1    5    5    0    0  0.12206685219E+03 -0.18951764829E+02  0.26236181746E+03  0.28998829124E+03  0.00000000000E+00 0.  1.
          5    1    3    3  501    0  0.19049572094E+02 -0.62465678169E+02 -0.91412410371E+03  0.91646341800E+03  0.41800000000E+01 0. -1.
         -5    1    3    3    0  501 -0.30601858116E+02 -0.27404203056E+02 -0.84649615656E+02  0.94183299454E+02  0.41800000000E+01 0. -1.
</event>
<event>
11    1  0.1704459E-009  0.5979500E+03  0.7561462E-02  0.9197881E-01
         22   -1    0    0    0    0  0.00000000000E+00  0.00000000000E+00  0.28227052276E+04  0.28227052276E+04  0.00000000000E+00 0. -1.
         22   -1    0    0    0    0 -0.00000000000E+00 -0.00000000000E+00 -0.80170129969E+03  0.80170129969E+03  0.00000000000E+00 0. -1.
         25    2    1    2    0    0  0.52778118939E+03 -0.29142166773E+03 -0.62504215107E+03  0.87738472886E+03  0.12508676804E+03 0.  0.
        -24    2    1    2    0    0 -0.31964521646E+03 -0.37084244364E+02  0.99188094803E+03  0.10459108390E+04  0.80952841337E+02 0.  0.
         24    2    1    2    0    0 -0.20813597293E+03  0.32850591209E+03  0.16541651309E+04  0.17011109594E+04  0.79243285483E+02 0.  0.
        -11    1    5    5    0    0 -0.19615312496E+02  0.82259784072E+02  0.43308833619E+03  0.44126742402E+03  0.00000000000E+00 0.  1.
         12    1    5    5    0    0 -0.18852066043E+03  0.24624612802E+03  0.12210767947E+04  0.12598435354E+04  0.00000000000E+00 0. -1.
         11    1    4    4    0    0 -0.23030071169E+03 -0.63042609939E+02  0.71578393544E+03  0.75455909689E+03  0.00000000000E+00 0. -1.
        -12    1    4    4    0    0 -0.89344504766E+02  0.25958365575E+02  0.27609701259E+03  0.29135174212E+03  0.00000000000E+00 0.  1.
          5    1    3    3  501    0  0.34496642906E+03 -0.12052423489E+03 -0.36930959372E+03  0.51955266989E+03  0.41800000000E+01 0.  1.
         -5    1    3    3    0  501  0.18281476033E+03 -0.17089743283E+03 -0.25573255734E+03  0.35783205897E+03  0.41800000000E+01 0.  1.
</event>
<event>
11    1  0.1704459E-009  0.3885634E+03  0.7561462E-02  0.9684118E-01
         22   -1    0    0    0    0  0.00000000000E+00  0.00000000000E+00  0.61305025052E+03  0.61305025052E+03  0.00000000000E+00 0. -1.
         22   -1    0    0    0    0 -0.00000000000E+00 -0.00000000000E+00 -0.22955074871E+03  0.22955074871E+03  0.00000000000E+00 0. -1.
         25    2    1    2    0    0  0.12684711088E+03 -0.73805792322E+02  0.63527430531E+02  0.20302777274E+03  0.12508819910E+03 0.  0.
         24    2    1    2    0    0 -0.24233229794E+03  0.20099204066E+03  0.30667287913E+03  0.44651534345E+03  0.78771531095E+02 0.  0.
        -24    2    1    2    0    0  0.11548518706E+03 -0.12718624834E+03  0.13299192157E+02  0.19305788304E+03  0.87070704000E+02 0.  0.
        -11    1    4    4    0    0 -0.63551237237E+02  0.10057266186E+03  0.10054497601E+03  0.15576556830E+03  0.00000000000E+00 0.  1.
         12    1    4    4    0    0 -0.17878106071E+03  0.10041937880E+03  0.20612790312E+03  0.29074977515E+03  0.00000000000E+00 0. -1.
         11    1    5    5    0    0  0.10996960136E+03 -0.74348637634E+02 -0.13730003928E+02  0.13345241155E+03  0.00000000000E+00 0. -1.
        -12    1    5    5    0    0  0.55155857052E+01 -0.52837610706E+02  0.27029196085E+02  0.59605471492E+02  0.00000000000E+00 0.  1.
          5    1    3    3  501    0  0.92669648479E+02 -0.35865094294E+02 -0.23357066099E+02  0.10216160568E+03  0.41800000000E+01 0.  1.
         -5    1    3    3    0  501  0.34177462402E+02 -0.37940698027E+02  0.86884496630E+02  0.10086616706E+03  0.41800000000E+01 0.  1.
</event>
<event>
11    1  0.1704459E-009  0.1374921E+03  0.7561462E-02  0.1110392E+00
         22   -1    0    0    0    0  0.00000000000E+00  0.00000000000E+00  0.88471092348E+02  0.88471092348E+02  0.00000000000E+00 0.  1.
         22   -1    0    0    0    0 -0.00000000000E+00 -0.00000000000E+00 -0.13147808341E+04  0.13147808341E+04  0.00000000000E+00 0.  1.
         25    2    1    2    0    0 -0.65330223072E+02  0.11264703100E+02 -0.87674800841E+03  0.88810073518E+03  0.12506363977E+03 0.  0.
        -24    2    1    2    0    0  0.17484960050E+02  0.19688287048E+02 -0.39763815256E+03  0.40623738975E+03  0.78862944306E+02 0.  0.
         24    2    1    2    0    0  0.47845263022E+02 -0.30952990148E+02  0.48076419199E+02  0.10891380154E+03  0.79395322845E+02 0.  0.
        -13    1    5    5    0    0  0.42522429946E+02 -0.17680672727E+02  0.69369862959E+02  0.83264284802E+02  0.00000000000E+00 0.  1.
         14    1    5    5    0    0  0.53228330762E+01 -0.13272317421E+02 -0.21293443759E+02  0.25649516737E+02  0.00000000000E+00 0. -1.
         13    1    4    4    0    0  0.36533367522E+01  0.32996617380E+02 -0.64458690510E+02  0.72505492276E+02  0.00000000000E+00 0. -1.
        -14    1    4    4    0    0  0.13831623298E+02 -0.13308330332E+02 -0.33317946205E+03  0.33373189748E+03  0.00000000000E+00 0.  1.
          5    1    3    3  501    0  0.34120401539E+02  0.13050038962E+02 -0.35823057547E+03  0.36011265310E+03  0.41800000000E+01 0. -1.
         -5    1    3    3    0  501 -0.99450624611E+02 -0.17853358615E+01 -0.51851743294E+03  0.52798808208E+03  0.41800000000E+01 0. -1.
</event>
<event>
11    1  0.1704459E-009  0.4280676E+03  0.7561462E-02  0.9570390E-01
         22   -1    0    0    0    0  0.00000000000E+00  0.00000000000E+00  0.34205441572E+03  0.34205441572E+03  0.00000000000E+00 0. -1.
         22   -1    0    0    0    0 -0.00000000000E+00 -0.00000000000E+00 -0.67890776264E+03  0.67890776264E+03  0.00000000000E+00 0. -1.
         25    2    1    2    0    0  0.20034756193E+03  0.34088259683E+03 -0.21651531687E+03  0.46783045104E+03  0.12508540319E+03 0.  0.
        -24    2    1    2    0    0 -0.23012514922E+03 -0.35953744296E+03 -0.14793057786E+03  0.45932062828E+03  0.82868730523E+02 0.  0.
         24    2    1    2    0    0  0.29777587290E+02  0.18654846133E+02  0.27592547818E+02  0.93811099037E+02  0.82489184857E+02 0.  0.
        -13    1    5    5    0    0  0.15057808277E+02  0.48080315115E+02  0.33334111025E+02  0.60412062119E+02  0.00000000000E+00 0.  1.
         14    1    5    5    0    0  0.14719779012E+02 -0.29425468982E+02 -0.57415632067E+01  0.33399036918E+02  0.00000000000E+00 0. -1.
         11    1    4    4    0    0 -0.61529106726E+02 -0.95744966100E+02 -0.79594453598E+02  0.13888198786E+03  0.00000000000E+00 0. -1.
        -12    1    4    4    0    0 -0.16859604249E+03 -0.26379247686E+03 -0.68336124266E+02  0.32043864042E+03  0.00000000000E+00 0.  1.
          5    1    3    3  501    0  0.20181299896E+03  0.33391524069E+03 -0.17876512255E+03  0.42918797275E+03  0.41800000000E+01 0. -1.
         -5    1    3    3    0  501 -0.14654370327E+01  0.69673561392E+01 -0.37750194320E+02  0.38642478291E+02  0.41800000000E+01 0. -1.
</event>
<event>
11    1  0.1704459E-009  0.1710839E+03  0.7561462E-02  0.1077092E+00
         22   -1    0    0    0    0  0.00000000000E+00  0.00000000000E+00  0.86154918648E+02  0.86154918648E+02  0.00000000000E+00 0. -1.
         22   -1    0    0    0    0 -0.00000000000E+00 -0.00000000000E+00 -0.79139567886E+03  0.79139567886E+03  0.00000000000E+00 0. -1.
         25    2    1    2    0    0  0.83017571400E+02 -0.43836989595E+02 -0.30982544742E+03  0.34706351773E+03  0.12509068173E+03 0.  0.
         24    2    1    2    0    0 -0.17630003643E+03 -0.42699755604E+02 -0.25906849980E+03  0.32729190731E+03  0.84252792421E+02 0.  0.
        -24    2    1    2    0    0  0.93282465033E+02  0.86536745199E+02 -0.13634681300E+03  0.20319517246E+03  0.80669685413E+02 0.  0.
        -11    1    4    4    0    0 -0.56737753233E+02 -0.42110031950E+02 -0.14844158503E+03  0.16439991362E+03  0.00000000000E+00 0.  1.
         12    1    4    4    0    0 -0.11956228320E+03 -0.58972365442E+00 -0.11062691477E+03  0.16289199369E+03  0.00000000000E+00 0. -1.
         11    1    5    5    0    0  0.65432881103E+02  0.17227970002E+02 -0.98387641928E+02  0.11940851295E+03  0.00000000000E+00 0. -1.
        -12    1    5    5    0    0  0.27849583930E+02  0.69308775197E+02 -0.37959171068E+02  0.83786659514E+02  0.00000000000E+00 0.  1.
          5    1    3    3  501    0  0.26965545481E+02 -0.26955893164E+02 -0.27734945912E+03  0.27998920639E+03  0.41800000000E+01 0.  1.
         -5    1    3    3    0  501  0.56052025919E+02 -0.16881096431E+02 -0.32475988293E+02  0.67074311342E+02  0.41800000000E+01 0.  1.
</event>
<event>
11    1  0.1704459E-009  0.1339068E+03  0.7561462E-02  0.1114560E+00
         22   -1    0    0    0    0  0.00000000000E+00  0.00000000000E+00  0.43237930699E+03  0.43237930699E+03  0.00000000000E+00 0. -1.
         22   -1    0    0    0    0 -0.00000000000E+00 -0.00000000000E+00 -0.31434534070E+03  0.31434534070E+03  0.00000000000E+00 0.  1.
         25    2    1    2    0    0  0.17985999672E+02  0.78774223927E+02 -0.16262008858E+03  0.22050385013E+03  0.12509108750E+03 0.  0.
        -24    2    1    2    0    0 -0.16654317204E+02 -0.31911668135E+02 -0.10198176034E+03  0.13262977536E+03  0.76776669792E+02 0.  0.
         24    2    1    2    0    0 -0.13316824683E+01 -0.46862555793E+02  0.38263581522E+03  0.39359102219E+03  0.79409402134E+02 0.  0.
        -13    1    5    5    0    0  0.23563634263E+02 -0.40859031395E+02  0.10910235894E+03  0.11886139000E+03  0.00000000000E+00 0.  1.
         14    1    5    5    0    0 -0.24895316731E+02 -0.60035243978E+01  0.27353345628E+03  0.27472963219E+03  0.00000000000E+00 0. -1.
         13    1    4    4    0    0  0.42377321369E+01 -0.10584817004E+02  0.10956152204E+02  0.15812463306E+02  0.00000000000E+00 0. -1.
        -14    1    4    4    0    0 -0.20892049341E+02 -0.21326851131E+02 -0.11293791255E+03  0.11681731205E+03  0.00000000000E+00 0.  1.
          5    1    3    3  501    0 -0.30194820795E+02  0.76588151252E+01  0.52694439585E+01  0.31868857707E+02  0.41800000000E+01 0.  1.
         -5    1    3    3    0  501  0.48180820467E+02  0.71115408802E+02 -0.16788953254E+03  0.18863499243E+03  0.41800000000E+01 0.  1.
</event>
<event>
11    1  0.1793000E-009  0.2844859E+03  0.7561462E-02  0.1006980E+00
         22   -1    0    0    0    0  0.00000000000E+00  0.00000000000E+00  0.55034920609E+03  0.55034920609E+03  0.00000000000E+00 0. -1.
         22   -1    0    0    0    0 -0.00000000000E+00 -0.00000000000E+00 -0.67219074453E+03  0.67219074453E+03  0.00000000000E+00 0.  1.
         25    2    1    2    0    0  0.12865446260E+03 -0.22894062378E+03 -0.55290517209E+03  0.62475380494E+03  0.12508959787E+03 0.  0.
        -24    2    1    2    0    0 -0.64466652876E+02  0.74472726057E+02 -0.15958477556E+01  0.12686748259E+03  0.79941698433E+02 0.  0.
         24    2    1    2    0    0 -0.64187809725E+02  0.15446789773E+03  0.43265948141E+03  0.47091866309E+03  0.81177300104E+02 0.  0.
        -13    1    5    5    0    0 -0.25891859153E+02  0.11088710551E+02  0.27211923545E+02  0.39164226727E+02  0.00000000000E+00 0.  1.
         14    1    5    5    0    0 -0.38295950572E+02  0.14337918718E+03  0.40544755786E+03  0.43175443637E+03  0.00000000000E+00 0. -1.
         11    1    4    4    0    0 -0.79732639663E+02  0.54165861863E+02  0.13475263786E+02  0.97328398492E+02  0.00000000000E+00 0. -1.
        -12    1    4    4    0    0  0.15265986787E+02  0.20306864194E+02 -0.15071111542E+02  0.29539084094E+02  0.00000000000E+00 0.  1.
          5    1    3    3  501    0 -0.10623480177E+02  0.15444597709E+01 -0.77547263573E+02  0.78398304667E+02  0.41800000000E+01 0. -1.
         -5    1    3    3    0  501  0.13927794278E+03 -0.23048508356E+03 -0.47535790852E+03  0.54635550027E+03  0.41800000000E+01 0. -1.
</event>
<event>
11    1  0.1704459E-009  0.1368144E+03  0.7561462E-02  0.1111169E+00
         22   -1    0    0    0    0  0.00000000000E+00  0.00000000000E+00  0.27935376310E+02  0.27935376310E+02  0.00000000000E+00 0.  1.
         22   -1    0    0    0    0 -0.00000000000E+00 -0.00000000000E+00 -0.36202389683E+04  0.36202389683E+04  0.00000000000E+00 0.  1.
         25    2    1    2    0    0 -0.31499510689E+01 -0.35366275683E+02 -0.18664830106E+04  0.18710068646E+04  0.12508861989E+03 0.  0.
         24    2    1    2    0    0  0.21820995113E+02  0.69013268890E+02 -0.16683974097E+04  0.16721398421E+04  0.85221757865E+02 0.  0.
        -24    2    1    2    0    0 -0.18671044044E+02 -0.33646993207E+02 -0.57423171743E+02  0.10502763789E+03  0.79073737933E+02 0.  0.
        -11    1    4    4    0    0  0.54427631905E+02  0.50550836773E+02 -0.11343048546E+04  0.11367344709E+04  0.00000000000E+00 0.  1.
         12    1    4    4    0    0 -0.32606636792E+02  0.18462432117E+02 -0.53409255507E+03  0.53540537123E+03  0.00000000000E+00 0. -1.
         13    1    5    5    0    0 -0.29209038775E+02 -0.39916260398E+02 -0.71129809110E+02  0.86636744712E+02  0.00000000000E+00 0. -1.
        -14    1    5    5    0    0  0.10537994731E+02  0.62692671908E+01  0.13706637367E+02  0.18390893180E+02  0.00000000000E+00 0.  1.
          5    1    3    3  501    0 -0.99640821039E+01 -0.27394874163E+02 -0.18537737629E+04  0.18540076587E+04  0.41800000000E+01 0. -1.
         -5    1    3    3    0  501  0.68141310349E+01 -0.79714015205E+01 -0.12709247688E+02  0.16999205886E+02  0.41800000000E+01 0. -1.
</event>
<event>
11    1  0.1704459E-009  0.3270269E+03  0.7561462E-02  0.9893601E-01
         22   -1    0    0    0    0  0.00000000000E+00  0.00000000000E+00  0.30886824459E+04  0.30886824459E+04  0.00000000000E+00 0. -1.
         22   -1    0    0    0    0 -0.00000000000E+00 -0.00000000000E+00 -0.77043181843E+02  0.77043181843E+02  0.00000000000E+00 0. -1.
         25    2    1    2    0    0 -0.27974454056E+03  0.11398557365E+03  0.41168869312E+03  0.52572280387E+03  0.12508863852E+03 0.  0.
         24    2    1    2    0    0  0.29395030067E+03 -0.78280766178E+02  0.13189657146E+04  0.13558469055E+04  0.78202411368E+02 0.  0.
        -24    2    1    2    0    0 -0.14205760114E+02 -0.35704807473E+02  0.12809848563E+04  0.12841559183E+04  0.81594017828E+02 0.  0.
        -11    1    4    4    0    0  0.30074133076E+02 -0.12274173020E+02  0.64348241846E+02  0.72081932773E+02  0.00000000000E+00 0.  1.
         12    1    4    4    0    0  0.26387616760E+03 -0.66006593158E+02  0.12546174728E+04  0.12837649727E+04  0.00000000000E+00 0. -1.
         13    1    5    5    0    0  0.26642334818E+02 -0.39188148443E+00  0.74081325061E+03  0.74129227694E+03  0.00000000000E+00 0. -1.
        -14    1    5    5    0    0 -0.40848094932E+02 -0.35312925989E+02  0.54017160564E+03  0.54286364139E+03  0.00000000000E+00 0.  1.
          5    1    3    3  501    0 -0.66747573732E+02  0.64107364275E+02  0.20399094533E+03  0.22404189548E+03  0.41800000000E+01 0.  1.
         -5    1    3    3    0  501 -0.21299696683E+03  0.49878209376E+02  0.20769774780E+03  0.30168090839E+03  0.41800000000E+01 0.  1.
</event>
<event>
11    1  0.1704459E-009  0.1329248E+03  0.7561462E-02  0.1115727E+00
         22   -1    0    0    0    0  0.00000000000E+00  0.00000000000E+00  0.54370736513E+02  0.54370736513E+02  0.00000000000E+00 0.  1.
         22   -1    0    0    0    0 -0.00000000000E+00 -0.00000000000E+00 -0.11894856229E+04  0.11894856229E+04  0.00000000000E+00 0.  1.
         25    2    1    2    0    0 -0.15936523710E+02  0.39888168411E+02 -0.73131549136E+03  0.74317891489E+03  0.12509001903E+03 0.  0.
         24    2    1    2    0    0  0.12120589576E+02  0.51547034067E+01 -0.40066748283E+03  0.40855252320E+03  0.78786120348E+02 0.  0.
        -24    2    1    2    0    0  0.38159341334E+01 -0.45042871818E+02 -0.31319122083E+01  0.92124921335E+02  0.80210788564E+02 0.  0.
        -13    1    4    4    0    0 -0.11361303304E+02  0.15669514117E+02 -0.35940549044E+03  0.35992626946E+03  0.00000000000E+00 0.  1.
         14    1    4    4    0    0  0.23481892880E+02 -0.10514810711E+02 -0.41261992384E+02  0.48626253742E+02  0.00000000000E+00 0. -1.
         13    1    5    5    0    0 -0.10772398033E+02  0.10269164780E+02 -0.26451341099E+02  0.30350844314E+02  0.00000000000E+00 0. -1.
        -14    1    5    5    0    0  0.14588332166E+02 -0.55312036598E+02  0.23319428891E+02  0.61774077021E+02  0.00000000000E+00 0.  1.
          5    1    3    3  501    0 -0.42921523127E+02  0.27943495293E+02 -0.69168657984E+03  0.69359274304E+03  0.41800000000E+01 0.  1.
         -5    1    3    3    0  501  0.26984999418E+02  0.11944673118E+02 -0.39628911528E+02  0.49586171847E+02  0.41800000000E+01 0.  1.
</event>
<event>
11    1  0.1704459E-009  0.2206899E+03  0.7561462E-02  0.1040786E+00
         22   -1    0    0    0    0  0.00000000000E+00  0.00000000000E+00  0.81766645623E+03  0.81766645623E+03  0.00000000000E+00 0.  1.
         22   -1    0    0    0    0 -0.00000000000E+00 -0.00000000000E+00 -0.43700965140E+03  0.43700965140E+03  0.00000000000E+00 0.  1.
         25    2    1    2    0    0 -0.10495094774E+02 -0.19040686969E+03 -0.19151427781E+03  0.29780648227E+03  0.12508420858E+03 0.  0.
         24    2    1    2    0    0 -0.15455572359E+01  0.17382806026E+03 -0.14120729212E+03  0.23893506838E+03  0.83257938202E+02 0.  0.
        -24    2    1    2    0    0  0.12040652010E+02  0.16578809431E+02  0.71337837477E+03  0.71793455697E+03  0.78112023910E+02 0.  0.
        -11    1    4    4    0    0 -0.84827860814E+01  0.17561844904E+03 -0.14742297501E+03  0.22945006181E+03  0.00000000000E+00 0.  1.
         12    1    4    4    0    0  0.69372288455E+01 -0.17903887793E+01  0.62156828851E+01  0.94850065769E+01  0.00000000000E+00 0. -1.
         11    1    5    5    0    0  0.14290097621E+02  0.12914006561E+02  0.38563095863E+02  0.43105577574E+02  0.00000000000E+00 0. -1.
        -12    1    5    5    0    0 -0.22494456117E+01  0.36648028698E+01  0.67481527890E+03  0.67482897939E+03  0.00000000000E+00 0.  1.
          5    1    3    3  501    0  0.51188714192E+02 -0.13682341571E+03 -0.11852879621E+03  0.18816875266E+03  0.41800000000E+01 0. -1.
         -5    1    3    3    0  501 -0.61683808966E+02 -0.53583453981E+02 -0.72985481607E+02  0.10963772961E+03  0.41800000000E+01 0. -1.
</event>
<event>
11    1  0.1704459E-009  0.7418682E+03  0.7561462E-02  0.8972783E-01
         22   -1    0    0    0    0  0.00000000000E+00  0.00000000000E+00  0.11660908268E+03  0.11660908268E+03  0.00000000000E+00 0.  1.
         22   -1    0    0    0    0 -0.00000000000E+00 -0.00000000000E+00 -0.11799432349E+04  0.11799432349E+04  0.00000000000E+00 0.  1.
         25    2    1    2    0    0  0.21188409140E+03  0.82179944708E+02 -0.96064287444E+03  0.99504970240E+03  0.12506305017E+03 0.  0.
         24    2    1    2    0    0 -0.10168154468E+03 -0.69936084237E+02 -0.48793641013E+02  0.15459093478E+03  0.79292782184E+02 0.  0.
        -24    2    1    2    0    0 -0.11020254672E+03 -0.12243860472E+02 -0.53897636713E+02  0.14691168036E+03  0.79897266280E+02 0.  0.
        -11    1    4    4    0    0 -0.59631297436E+02 -0.32929283848E+02  0.14941605630E+02  0.69738661784E+02  0.00000000000E+00 0.  1.
         12    1    4    4    0    0 -0.42050247245E+02 -0.37006800389E+02 -0.63735246642E+02  0.84852272998E+02  0.00000000000E+00 0. -1.
         13    1    5    5    0    0  0.92487971543E+01  0.11461880140E+02 -0.80652595908E+01  0.16791764571E+02  0.00000000000E+00 0. -1.
        -14    1    5    5    0    0 -0.11945134387E+03 -0.23705740612E+02 -0.45832377122E+02  0.13011991578E+03  0.00000000000E+00 0.  1.
          5    1    3    3  501    0  0.96425323110E+02  0.10012393627E+01 -0.60063045097E+03  0.60833646648E+03  0.41800000000E+01 0. -1.
         -5    1    3    3    0  501  0.11545876829E+03  0.81178705345E+02 -0.36001242347E+03  0.38671323591E+03  0.41800000000E+01 0. -1.
</event>
<event>
11    1  0.1704459E-009  0.3786775E+03  0.7561462E-02  0.9714854E-01
         22   -1    0    0    0    0  0.00000000000E+00  0.00000000000E+00  0.75536009617E+02  0.75536009617E+02  0.00000000000E+00 0.  1.
         22   -1    0    0    0    0 -0.00000000000E+00 -0.00000000000E+00 -0.16449616718E+04  0.16449616718E+04  0.00000000000E+00 0.  1.
         25    2    1    2    0    0 -0.48911316706E+01  0.11219030595E+03 -0.37571942726E+03  0.41161100423E+03  0.12509173779E+03 0.  0.
        -24    2    1    2    0    0 -0.84439367921E+02 -0.26440259456E+03 -0.96620315926E+03  0.10082659609E+04  0.77543305061E+02 0.  0.
         24    2    1    2    0    0  0.89330499591E+02  0.15221228861E+03 -0.22750307563E+03  0.30062071622E+03  0.86409760073E+02 0.  0.
        -11    1    5    5    0    0  0.96929216272E+02  0.15550598702E+03 -0.19714553036E+03  0.26915375737E+03  0.00000000000E+00 0.  1.
         12    1    5    5    0    0 -0.75987166807E+01 -0.32936984026E+01 -0.30357545269E+02  0.31466958848E+02  0.00000000000E+00 0. -1.
         11    1    4    4    0    0 -0.90159734860E+01 -0.15497342751E+03 -0.51139490351E+03  0.53443689838E+03  0.00000000000E+00 0. -1.
        -12    1    4    4    0    0 -0.75423394435E+02 -0.10942916706E+03 -0.45480825575E+03  0.47382906256E+03  0.00000000000E+00 0.  1.
          5    1    3    3  501    0 -0.36781874608E+02  0.76382208717E+02 -0.97550734795E+02  0.12930880236E+03  0.41800000000E+01 0. -1.
         -5    1    3    3    0  501  0.31890742938E+02  0.35808097233E+02 -0.27816869246E+03  0.28230220187E+03  0.41800000000E+01 0. -1.
</event>
<event>
11    1  0.1704459E-009  0.2625341E+03  0.7561462E-02  0.1017426E+00
         22   -1    0    0    0    0  0.00000000000E+00  0.00000000000E+00  0.36580370708E+03  0.36580370708E+03  0.00000000000E+00 0.  1.
         22   -1    0    0    0    0 -0.00000000000E+00 -0.00000000000E+00 -0.38142545008E+03  0.38142545008E+03  0.00000000000E+00 0.  1.
         25    2    1    2    0    0 -0.57073190432E+02  0.20676279985E+03 -0.13349157137E+03  0.28191512273E+03  0.12509169569E+03 0.  0.
         24    2    1    2    0    0 -0.41535762147E+02 -0.27904910967E+03  0.31887309352E+02  0.29550090956E+03  0.81916798686E+02 0.  0.
        -24    2    1    2    0    0  0.98608952579E+02  0.72286309823E+02  0.85982519017E+02  0.16981312487E+03  0.80588260210E+02 0.  0.
        -11    1    4    4    0    0 -0.45215259539E+02 -0.62369465774E+02  0.65170633462E+01  0.77310038616E+02  0.00000000000E+00 0.  1.
         12    1    4    4    0    0  0.36794973922E+01 -0.21667964390E+03  0.25370246006E+02  0.21819087094E+03  0.00000000000E+00 0. -1.
         13    1    5    5    0    0  0.18892320025E+02  0.25375776537E+02  0.68814487017E+02  0.75738255949E+02  0.00000000000E+00 0. -1.
        -14    1    5    5    0    0  0.79716632554E+02  0.46910533286E+02  0.17168032000E+02  0.94074868917E+02  0.00000000000E+00 0.  1.
          5    1    3    3  501    0 -0.19900922178E+02  0.67203658175E+02 -0.11705478601E+03  0.13649788900E+03  0.41800000000E+01 0.  1.
         -5    1    3    3    0  501 -0.37172268254E+02  0.13955914168E+03 -0.16436785367E+02  0.14541723373E+03  0.41800000000E+01 0.  1.
</event>
<event>
11    1  0.1704459E-009  0.1745864E+03  0.7561462E-02  0.1074108E+00
         22   -1    0    0    0    0  0.00000000000E+00  0.00000000000E+00  0.19858335842E+03  0.19858335842E+03  0.00000000000E+00 0. -1.
         22   -1    0    0    0    0 -0.00000000000E+00 -0.00000000000E+00 -0.42913510448E+03  0.42913510448E+03  0.00000000000E+00 0. -1.
         25    2    1    2    0    0 -0.37512257583E+02  0.74166314398E+02 -0.78660095059E+02  0.16953687634E+03  0.12509008843E+03 0.  0.
        -24    2    1    2    0    0 -0.14338209435E+02 -0.21011884693E+03 -0.19299348179E+03  0.29562971240E+03  0.76124429436E+02 0.  0.
         24    2    1    2    0    0  0.51850467018E+02  0.13595253253E+03  0.41101830780E+02  0.16255187417E+03  0.59684078875E+02 0.  0.
        -11    1    5    5    0    0  0.62623515139E+02  0.90708591807E+02  0.34972095904E+02  0.11564082656E+03  0.00000000000E+00 0.  1.
         12    1    5    5    0    0 -0.10773048122E+02  0.45243940721E+02  0.61297348762E+01  0.46911047605E+02  0.00000000000E+00 0. -1.
         13    1    4    4    0    0  0.21011847657E+02 -0.13549892263E+03 -0.91741958633E+02  0.16497891608E+03  0.00000000000E+00 0. -1.
        -14    1    4    4    0    0 -0.35350057092E+02 -0.74619924293E+02 -0.10125152315E+03  0.13065079632E+03  0.00000000000E+00 0.  1.
          5    1    3    3  501    0  0.15176833309E+02  0.29859703493E+02 -0.93136936286E+02  0.99065127379E+02  0.41800000000E+01 0.  1.
         -5    1    3    3    0  501 -0.52689090892E+02  0.44306610905E+02  0.14476841227E+02  0.70471748956E+02  0.41800000000E+01 0.  1.
</event>
<event>
11    1  0.1704459E-009  0.1528418E+03  0.7561462E-02  0.1094010E+00
         22   -1    0    0    0    0  0.00000000000E+00  0.00000000000E+00  0.63172675927E+03  0.63172675927E+03  0.00000000000E+00 0. -1.
         22   -1    0    0    0    0 -0.00000000000E+00 -0.00000000000E+00 -0.36931734444E+03  0.36931734444E+03  0.00000000000E+00 0. -1.
         25    2    1    2    0    0 -0.32143081849E+02  0.96355463321E+02 -0.17179090022E+03  0.23553616980E+03  0.12509045072E+03 0.  0.
         24    2    1    2    0    0 -0.56015805555E+02 -0.78000779408E+02 -0.13182376372E+03  0.18675630232E+03  0.90986371042E+02 0.  0.
        -24    2    1    2    0    0  0.88158887404E+02 -0.18354683913E+02  0.56602407877E+03  0.57875163160E+03  0.80382270883E+02 0.  0.
        -11    1    4    4    0    0 -0.41435627636E+02 -0.25495311211E+02 -0.52284969764E+01  0.48931169125E+02  0.00000000000E+00 0.  1.
         12    1    4    4    0    0 -0.14580177919E+02 -0.52505468197E+02 -0.12659526674E+03  0.13782513320E+03  0.00000000000E+00 0. -1.
         11    1    5    5    0    0  0.93681614945E+02 -0.23163797636E+02  0.56232826703E+03  0.57054875901E+03  0.00000000000E+00 0. -1.
        -12    1    5    5    0    0 -0.55227275409E+01  0.48091137223E+01  0.36958117416E+01  0.82028725892E+01  0.00000000000E+00 0.  1.
          5    1    3    3  501    0 -0.13963026844E+02  0.44855034026E+02 -0.17443398755E+03  0.18069761650E+03  0.41800000000E+01 0.  1.
         -5    1    3    3    0  501 -0.18180055005E+02  0.51500429295E+02  0.26430873269E+01  0.54838553301E+02  0.41800000000E+01 0.  1.
</event>
<event>
11    1  0.1704459E-009  0.2962050E+03  0.7561462E-02  0.1001810E+00
         22   -1    0    0    0    0  0.00000000000E+00  0.00000000000E+00  0.13420010808E+04  0.13420010808E+04  0.00000000000E+00 0.  1.
         22   -1    0    0    0    0 -0.00000000000E+00 -0.00000000000E+00 -0.13396509274E+03  0.13396509274E+03  0.00000000000E+00 0.  1.
         25    2    1    2    0    0  0.23871819194E+03 -0.10120125048E+03  0.14446250123E+03  0.32209447035E+03  0.12508942922E+03 0.  0.
         24    2    1    2    0    0 -0.25392069955E+03  0.14342731020E+03  0.51234543047E+03  0.59502926783E+03  0.80714772351E+02 0.  0.
        -24    2    1    2    0    0  0.15202507603E+02 -0.42226059720E+02  0.55122805634E+03  0.55884243535E+03  0.80239273995E+02 0.  0.
        -13    1    4    4    0    0 -0.99512272798E+02  0.97944350947E+02  0.27226384457E+03  0.30597939372E+03  0.00000000000E+00 0.  1.
         14    1    4    4    0    0 -0.15440842675E+03  0.45482959255E+02  0.24008158590E+03  0.28904987411E+03  0.00000000000E+00 0. -1.
         13    1    5    5    0    0  0.68978204753E+01 -0.50156279628E+02  0.54130074082E+03  0.54366324533E+03  0.00000000000E+00 0. -1.
        -14    1    5    5    0    0  0.83046871277E+01  0.79302199079E+01  0.99273155223E+01  0.15179190016E+02  0.00000000000E+00 0.  1.
          5    1    3    3  501    0  0.12684992443E+03 -0.10890319677E+03  0.47652766798E+02  0.17389384169E+03  0.41800000000E+01 0.  1.
         -5    1    3    3    0  501  0.11186826752E+03  0.77019462877E+01  0.96809734433E+02  0.14820062866E+03  0.41800000000E+01 0.  1.
</event>
<event>
11    1  0.1704459E-009  0.2235003E+03  0.7561462E-02  0.1039047E+00
         22   -1    0    0    0    0  0.00000000000E+00  0.00000000000E+00  0.32101180307E+03  0.32101180307E+03  0.00000000000E+00 0. -1.
         22   -1    0    0    0    0 -0.00000000000E+00 -0.00000000000E+00 -0.52896679734E+03  0.52896679734E+03  0.00000000000E+00 0.  1.
         25    2    1    2    0    0  0.19123526958E+03 -0.75305852661E+02 -0.26947354839E+03  0.36125535230E+03  0.12509011354E+03 0.  0.
        -24    2    1    2    0    0 -0.14238263321E+03  0.88838701419E+02 -0.16075826734E+03  0.24607148646E+03  0.80887742086E+02 0.  0.
         24    2    1    2    0    0 -0.48852636367E+02 -0.13532848758E+02  0.22227682146E+03  0.24265176165E+03  0.83085341656E+02 0.  0.
        -11    1    5    5    0    0 -0.40174306083E+02  0.12237213441E+02  0.38818406352E+02  0.57189098032E+02  0.00000000000E+00 0.  1.
         12    1    5    5    0    0 -0.86783302845E+01 -0.25770062199E+02  0.18345841511E+03  0.18546266362E+03  0.00000000000E+00 0. -1.
         11    1    4    4    0    0 -0.13882467330E+02 -0.15059798569E+02 -0.24162126385E+02  0.31675365563E+02  0.00000000000E+00 0. -1.
        -12    1    4    4    0    0 -0.12850016588E+03  0.10389849999E+03 -0.13659614096E+03  0.21439612090E+03  0.00000000000E+00 0.  1.
          5    1    3    3  501    0 -0.14913267908E+02  0.54764815884E+01 -0.70406311545E+01  0.17872892808E+02  0.41800000000E+01 0.  1.
         -5    1    3    3    0  501  0.20614853749E+03 -0.80782334249E+02 -0.26243291724E+03  0.34338245949E+03  0.41800000000E+01 0.  1.
</event>
<event>
11    1  0.1704459E-009  0.1698246E+03  0.7561462E-02  0.1078184E+00
         22   -1    0    0    0    0  0.00000000000E+00  0.00000000000E+00  0.33151824871E+03  0.33151824871E+03  0.00000000000E+00 0. -1.
         22   -1    0    0    0    0 -0.00000000000E+00 -0.00000000000E+00 -0.15322264426E+04  0.15322264426E+04  0.00000000000E+00 0. -1.
         25    2    1    2    0    0 -0.24023496342E+02  0.96405079329E+02 -0.11158805771E+04  0.11272568626E+04  0.12508998454E+03 0.  0.
         24    2    1    2    0    0  0.95910313828E+02 -0.17549634529E+03 -0.36604565405E+03  0.42504749244E+03  0.81720220712E+02 0.  0.
        -24    2    1    2    0    0 -0.71886817486E+02  0.79091265956E+02  0.28121803725E+03  0.31144033628E+03  0.80550330290E+02 0.  0.
        -13    1    4    4    0    0  0.52928555029E+00 -0.11418197524E+02  0.13675289408E+01  0.11511972607E+02  0.00000000000E+00 0.  1.
         14    1    4    4    0    0  0.95381028278E+02 -0.16407814776E+03 -0.36741318299E+03  0.41353551983E+03  0.00000000000E+00 0. -1.
         11    1    5    5    0    0 -0.49048788920E+02  0.88796714657E+02  0.25890469804E+03  0.27806884561E+03  0.00000000000E+00 0. -1.
        -12    1    5    5    0    0 -0.22838028566E+02 -0.97054487010E+01  0.22313339204E+02  0.33371490673E+02  0.00000000000E+00 0.  1.
          5    1    3    3  501    0  0.30447384776E+02 -0.16062613822E+02 -0.25198016123E+03  0.25435511565E+03  0.41800000000E+01 0. -1.
         -5    1    3    3    0  501 -0.54470881118E+02  0.11246769315E+03 -0.86390041586E+03  0.87290174694E+03  0.41800000000E+01 0. -1.
</event>
<event>
11    1  0.1704459E-009  0.2119789E+03  0.7561462E-02  0.1046362E+00
         22   -1    0    0    0    0  0.00000000000E+00  0.00000000000E+00  0.25703620266E+04  0.25703620266E+04  0.00000000000E+00 0. -1.
         22   -1    0    0    0    0 -0.00000000000E+00 -0.00000000000E+00 -0.57093522511E+02  0.57093522511E+02  0.00000000000E+00 0. -1.
         25    2    1    2    0    0 -0.13697452068E+03  0.23852991581E+01  0.15845786345E+03  0.24397317538E+03  0.12508519836E+03 0.  0.
         24    2    1    2    0    0 -0.32327843762E+02  0.40938969823E+02  0.18751178819E+03  0.20795271895E+03  0.73229597005E+02 0.  0.
        -24    2    1    2    0    0  0.16930236444E+03 -0.43324268981E+02  0.21672988524E+04  0.21755296547E+04  0.72143468946E+02 0.  0.
        -11    1    4    4    0    0 -0.64544361634E+01 -0.21403136980E+02  0.49886413067E+02  0.54666335413E+02  0.00000000000E+00 0.  1.
         12    1    4    4    0    0 -0.25873407599E+02  0.62342106802E+02  0.13762537512E+03  0.15328638354E+03  0.00000000000E+00 0. -1.
         11    1    5    5    0    0  0.13250250989E+03 -0.56320500584E+02  0.14386413092E+04  0.14458276974E+04  0.00000000000E+00 0. -1.
        -12    1    5    5    0    0  0.36799854553E+02  0.12996231603E+02  0.72865754317E+03  0.72970195734E+03  0.00000000000E+00 0.  1.
          5    1    3    3  501    0 -0.42249670170E+02 -0.22007207272E+02 -0.10257722039E+02  0.48908537730E+02  0.41800000000E+01 0. -1.
         -5    1    3    3    0  501 -0.94724850508E+02  0.24392506430E+02  0.16871558549E+03  0.19506463765E+03  0.41800000000E+01 0. -1.
</event>
<event>
11    1  0.1704459E-009  0.2347222E+03  0.7561462E-02  0.1032368E+00
         22   -1    0    0    0    0  0.00000000000E+00  0.00000000000E+00  0.14480979507E+03  0.14480979507E+03  0.00000000000E+00 0. -1.
         22   -1    0    0    0    0 -0.00000000000E+00 -0.00000000000E+00 -0.69381645990E+03  0.69381645990E+03  0.00000000000E+00 0.  1.
         25    2    1    2    0    0  0.12381157291E+03 -0.13716611122E+03 -0.39111273717E+03  0.45028243824E+03  0.12506499653E+03 0.  0.
         24    2    1    2    0    0 -0.18339818145E+03  0.14563419371E+03 -0.14376054256E+03  0.28673012211E+03  0.81870983806E+02 0.  0.
        -24    2    1    2    0    0  0.59586608538E+02 -0.84680824868E+01 -0.14133385104E+02  0.10161369462E+03  0.80643152359E+02 0.  0.
        -11    1    4    4    0    0 -0.12397883340E+03  0.14086235425E+03 -0.11886126405E+03  0.22212823788E+03  0.00000000000E+00 0.  1.
         12    1    4    4    0    0 -0.59419348050E+02  0.47718394637E+01 -0.24899278516E+02  0.64601884223E+02  0.00000000000E+00 0. -1.
         11    1    5    5    0    0  0.31593484239E+02  0.33930588415E+02 -0.19957002595E+02  0.50474895039E+02  0.00000000000E+00 0. -1.
        -12    1    5    5    0    0  0.27993124298E+02 -0.42398670902E+02  0.58236174917E+01  0.51138799584E+02  0.00000000000E+00 0.  1.
          5    1    3    3  501    0  0.19699667509E+01 -0.38638920540E+02 -0.19688096409E+03  0.20068989354E+03  0.41800000000E+01 0. -1.
         -5    1    3    3    0  501  0.12184160616E+03 -0.98527190684E+02 -0.19423177308E+03  0.24959254470E+03  0.41800000000E+01 0. -1.
</event>
<event>
11    1  0.1704459E-009  0.3639148E+03  0.7561462E-02  0.9762671E-01
         22   -1    0    0    0    0  0.00000000000E+00  0.00000000000E+00  0.13018929863E+04  0.13018929863E+04  0.00000000000E+00 0. -1.
         22   -1    0    0    0    0 -0.00000000000E+00 -0.00000000000E+00 -0.21328561330E+03  0.21328561330E+03  0.00000000000E+00 0. -1.
         25    2    1    2    0    0  0.84920251525E+02  0.17974445134E+03  0.10804062255E+03  0.25853473095E+03  0.12509162275E+03 0.  0.
        -24    2    1    2    0    0 -0.34209168557E+03  0.92256845374E+02  0.28185935397E+03  0.45991561876E+03  0.80868004213E+02 0.  0.
         24    2    1    2    0    0  0.25717143405E+03 -0.27200129671E+03  0.69870739644E+03  0.79672824984E+03  0.80386729940E+02 0.  0.
        -13    1    5    5    0    0  0.12960761836E+03 -0.12995477701E+03  0.42577063887E+03  0.46364535556E+03  0.00000000000E+00 0.  1.
         14    1    5    5    0    0  0.12756381569E+03 -0.14204651970E+03  0.27293675757E+03  0.33308289428E+03  0.00000000000E+00 0. -1.
         13    1    4    4    0    0 -0.23710789240E+03  0.32393821553E+02  0.21551820967E+03  0.32205218678E+03  0.00000000000E+00 0. -1.
        -14    1    4    4    0    0 -0.10498379317E+03  0.59863023821E+02  0.66341144299E+02  0.13786343198E+03  0.00000000000E+00 0.  1.
          5    1    3    3  501    0 -0.10026126311E+02 -0.31305535371E+01  0.39893470513E+02  0.41464261284E+02  0.41800000000E+01 0.  1.
         -5    1    3    3    0  501  0.94946377836E+02  0.18287500487E+03  0.68147152037E+02  0.21707046967E+03  0.41800000000E+01 0.  1.
</event>
<event>
11    1  0.1704459E-009  0.1106937E+04  0.7561462E-02  0.8583465E-01
         22   -1    0    0    0    0  0.00000000000E+00  0.00000000000E+00  0.10544878670E+04  0.10544878670E+04  0.00000000000E+00 0.  1.
         22   -1    0    0    0    0 -0.00000000000E+00 -0.00000000000E+00 -0.15919250112E+04  0.15919250112E+04  0.00000000000E+00 0.  1.
         25    2    1    2    0    0  0.77013577455E+03  0.76112379276E+03 -0.43502759642E+03  0.11735914104E+04  0.12509696154E+03 0.  0.
         24    2    1    2    0    0 -0.97294248745E+03 -0.56486366587E+03  0.74028129756E+02  0.11304108440E+04  0.81611686348E+02 0.  0.
        -24    2    1    2    0    0  0.20280671290E+03 -0.19626012689E+03 -0.17643767747E+03  0.34241062377E+03  0.80412567643E+02 0.  0.
        -11    1    4    4    0    0 -0.65774748646E+03 -0.38992344466E+03  0.12707655361E+02  0.76474409651E+03  0.00000000000E+00 0.  1.
         12    1    4    4    0    0 -0.31519500099E+03 -0.17494022121E+03  0.61320474395E+02  0.36566674750E+03  0.00000000000E+00 0. -1.
         11    1    5    5    0    0 -0.35853770364E+01 -0.15056680879E+01  0.44333329725E+01  0.58971523746E+01  0.00000000000E+00 0. -1.
        -12    1    5    5    0    0  0.20639208993E+03 -0.19475445880E+03 -0.18087101044E+03  0.33651347139E+03  0.00000000000E+00 0.  1.
          5    1    3    3  501    0  0.31492362423E+03  0.36904636186E+03 -0.24456483468E+03  0.54332452279E+03  0.41800000000E+01 0.  1.
         -5    1    3    3    0  501  0.45521215032E+03  0.39207743089E+03 -0.19046276174E+03  0.63026688762E+03  0.41800000000E+01 0.  1.
</event>
<event>
11    1  0.1704459E-009  0.1962237E+03  0.7561462E-02  0.1057227E+00
         22   -1    0    0    0    0  0.00000000000E+00  0.00000000000E+00  0.41508085200E+03  0.41508085200E+03  0.00000000000E+00 0. -1.
         22   -1    0    0    0    0 -0.00000000000E+00 -0.00000000000E+00 -0.23181901660E+03  0.23181901660E+03  0.00000000000E+00 0. -1.
         25    2    1    2    0    0  0.52138426890E+02 -0.14943312394E+03 -0.87660252579E+02  0.21995627548E+03  0.12509104344E+03 0.  0.
         24    2    1    2    0    0  0.11546413467E+00  0.86661133608E+01 -0.26592426922E+02  0.84574706818E+02  0.79816094937E+02 0.  0.
        -24    2    1    2    0    0 -0.52253891025E+02  0.14076701058E+03  0.29751451490E+03  0.34236888630E+03  0.78458570815E+02 0.  0.
        -11    1    4    4    0    0 -0.14825549993E+02 -0.30224762662E+02  0.25040075116E+01  0.33758010371E+02  0.00000000000E+00 0.  1.
         12    1    4    4    0    0  0.14941014128E+02  0.38890876023E+02 -0.29096434434E+02  0.50816696447E+02  0.00000000000E+00 0. -1.
         11    1    5    5    0    0 -0.39826388624E+02  0.14765904719E+03  0.28496319985E+03  0.32340896821E+03  0.00000000000E+00 0. -1.
        -12    1    5    5    0    0 -0.12427502401E+02 -0.68920366109E+01  0.12551315053E+02  0.18959918094E+02  0.00000000000E+00 0.  1.
          5    1    3    3  501    0  0.87213167780E+02 -0.13111743055E+03 -0.50269224711E+02  0.16535532825E+03  0.41800000000E+01 0.  1.
         -5    1    3    3    0  501 -0.35074740890E+02 -0.18315693397E+02 -0.37391027869E+02  0.54600947228E+02  0.41800000000E+01 0.  1.
</event>
<event>
11    1  0.1704459E-009  0.1583565E+03  0.7561462E-02  0.1088633E+00
         22   -1    0    0    0    0  0.00000000000E+00  0.00000000000E+00  0.62911799184E+02  0.62911799184E+02  0.00000000000E+00 0.  1.
         22   -1    0    0    0    0 -0.00000000000E+00 -0.00000000000E+00 -0.72914317631E+03  0.72914317631E+03  0.00000000000E+00 0. -1.
         25    2    1    2    0    0  0.48626508597E+02  0.82107759596E+02 -0.47011109488E+03  0.49573970101E+03  0.12508872095E+03 0.  0.
        -24    2    1    2    0    0 -0.28247318802E+02 -0.98408330773E+02 -0.15451248843E+03  0.20269421158E+03  0.82028798249E+02 0.  0.
         24    2    1    2    0    0 -0.20379189796E+02  0.16300571178E+02 -0.41607793815E+02  0.93621062899E+02  0.79703669393E+02 0.  0.
        -13    1    5    5    0    0 -0.23125252655E+02  0.30429598488E+02  0.10439920280E+02  0.39619814613E+02  0.00000000000E+00 0.  1.
         14    1    5    5    0    0  0.27460628595E+01 -0.14129027310E+02 -0.52047714095E+02  0.54001248286E+02  0.00000000000E+00 0. -1.
         11    1    4    4    0    0  0.13183859801E+02 -0.19509670391E+02 -0.89072667611E+02  0.92132412936E+02  0.00000000000E+00 0. -1.
        -12    1    4    4    0    0 -0.41431178603E+02 -0.78898660382E+02 -0.65439820817E+02  0.11056179864E+03  0.00000000000E+00 0.  1.
          5    1    3    3  501    0  0.78569712143E+02  0.39982539611E+02 -0.39319400677E+03  0.40297742182E+03  0.41800000000E+01 0.  1.
         -5    1    3    3    0  501 -0.29943203545E+02  0.42125219985E+02 -0.76917088112E+02  0.92762279192E+02  0.41800000000E+01 0.  1.
</event>
<event>
11    1  0.1704459E-009  0.1345925E+03  0.7561462E-02  0.1113752E+00
         22   -1    0    0    0    0  0.00000000000E+00  0.00000000000E+00  0.82395246178E+02  0.82395246178E+02  0.00000000000E+00 0. -1.
         22   -1    0    0    0    0 -0.00000000000E+00 -0.00000000000E+00 -0.25346147172E+04  0.25346147172E+04  0.00000000000E+00 0.  1.
         25    2    1    2    0    0  0.33355760523E+02  0.48570448050E+01 -0.12217136445E+04  0.12285621879E+04  0.12507846641E+03 0.  0.
         24    2    1    2    0    0 -0.59041371585E+02  0.43030829147E+01 -0.12838835572E+04  0.12878011697E+04  0.81058400373E+02 0.  0.
        -24    2    1    2    0    0  0.25685611061E+02 -0.91601277196E+01  0.53377730676E+02  0.10064660572E+03  0.80851088775E+02 0.  0.
        -13    1    4    4    0    0 -0.29820957239E+02 -0.37063893009E+02 -0.75537449532E+03  0.75687095983E+03  0.00000000000E+00 0.  1.
         14    1    4    4    0    0 -0.29220414345E+02  0.41366975924E+02 -0.52850906187E+03  0.53093020990E+03  0.00000000000E+00 0. -1.
         11    1    5    5    0    0  0.35766036823E+02  0.27424896178E+02  0.40439720432E+02  0.60553326160E+02  0.00000000000E+00 0. -1.
        -12    1    5    5    0    0 -0.10080425761E+02 -0.36585023898E+02  0.12938010244E+02  0.40093279564E+02  0.00000000000E+00 0.  1.
          5    1    3    3  501    0 -0.33020836075E+02 -0.18674230731E+02 -0.80613939927E+03  0.80704231981E+03  0.41800000000E+01 0. -1.
         -5    1    3    3    0  501  0.66376596599E+02  0.23531275536E+02 -0.41557424526E+03  0.42151986813E+03  0.41800000000E+01 0. -1.
</event>
<event>
11    1  0.1704459E-009  0.3009872E+03  0.7561462E-02  0.9997743E-01
         22   -1    0    0    0    0  0.00000000000E+00  0.00000000000E+00  0.25809737505E+03  0.25809737505E+03  0.00000000000E+00 0. -1.
         22   -1    0    0    0    0 -0.00000000000E+00 -0.00000000000E+00 -0.71578892604E+03  0.71578892604E+03  0.00000000000E+00 0.  1.
         25    2    1    2    0    0 -0.24696080127E+03 -0.14472775722E+03 -0.38460413824E+03  0.49548108562E+03  0.12508158132E+03 0.  0.
         24    2    1    2    0    0  0.27443190139E+03  0.62905341638E+01 -0.11554792605E+03  0.31066697354E+03  0.88375369401E+02 0.  0.
        -24    2    1    2    0    0 -0.27471100121E+02  0.13843722306E+03  0.42460513296E+02  0.16773824194E+03  0.80085557687E+02 0.  0.
        -11    1    4    4    0    0  0.18385160888E+03 -0.48792378245E+01 -0.31496863871E+02  0.18659387312E+03  0.00000000000E+00 0.  1.
         12    1    4    4    0    0  0.90580292504E+02  0.11169771988E+02 -0.84051062176E+02  0.12407310043E+03  0.00000000000E+00 0. -1.
         13    1    5    5    0    0 -0.56041712963E+02  0.90349885733E+02  0.29115780815E+02  0.11023386111E+03  0.00000000000E+00 0. -1.
        -14    1    5    5    0    0  0.28570612842E+02  0.48087337322E+02  0.13344732481E+02  0.57504380824E+02  0.00000000000E+00 0.  1.
          5    1    3    3  501    0 -0.24561758539E+03 -0.14488927373E+03 -0.31186254207E+03  0.42260693018E+03  0.41800000000E+01 0.  1.
         -5    1    3    3    0  501 -0.13432158746E+01  0.16151651512E+00 -0.72741596172E+02  0.72874155433E+02  0.41800000000E+01 0.  1.
</event>
<event>
11    1  0.1704459E-009  0.1747867E+03  0.7561462E-02  0.1073940E+00
         22   -1    0    0    0    0  0.00000000000E+00  0.00000000000E+00  0.25787805677E+03  0.25787805677E+03  0.00000000000E+00 0.  1.
         22   -1    0    0    0    0 -0.00000000000E+00 -0.00000000000E+00 -0.13052347662E+04  0.13052347662E+04  0.00000000000E+00 0.  1.
         25    2    1    2    0    0  0.47468616722E+02 -0.76508051070E+02 -0.11065255750E+04  0.11172077953E+04  0.12509060047E+03 0.  0.
         24    2    1    2    0    0 -0.27598359129E+01 -0.37816050583E+02 -0.15864433166E+03  0.18306849542E+03  0.83116663011E+02 0.  0.
        -24    2    1    2    0    0 -0.44708780809E+02  0.11432410165E+03  0.21781319726E+03  0.26283653222E+03  0.81065272891E+02 0.  0.
        -13    1    4    4    0    0  0.12463533588E+02  0.24328148415E+02 -0.50001905207E+02  0.56985866661E+02  0.00000000000E+00 0.  1.
         14    1    4    4    0    0 -0.15223369501E+02 -0.62144198998E+02 -0.10864242645E+03  0.12608262875E+03  0.00000000000E+00 0. -1.
         11    1    5    5    0    0 -0.47084241813E+00  0.37326644421E+02  0.13959269141E+03  0.14449781857E+03  0.00000000000E+00 0. -1.
        -12    1    5    5    0    0 -0.44237938391E+02  0.76997457233E+02  0.78220505853E+02  0.11833871365E+03  0.00000000000E+00 0.  1.
          5    1    3    3  501    0  0.23662919594E+02 -0.40115773868E+02 -0.10119459294E+04  0.10130257872E+04  0.41800000000E+01 0.  1.
         -5    1    3    3    0  501  0.23805697128E+02 -0.36392277202E+02 -0.94579645630E+02  0.10418200815E+03  0.41800000000E+01 0.  1.
</event>
<event>
11    1  0.1704459E-009  0.4229444E+03  0.7561462E-02  0.9584384E-01
         22   -1    0    0    0    0  0.00000000000E+00  0.00000000000E+00  0.27503783928E+04  0.27503783928E+04  0.00000000000E+00 0.  1.
         22   -1    0    0    0    0 -0.00000000000E+00 -0.00000000000E+00 -0.21008976604E+03  0.21008976604E+03  0.00000000000E+00 0. -1.
         25    2    1    2    0    0  0.31010745432E+01 -0.76825185347E+02  0.14558511264E+02  0.14754997814E+03  0.12508924827E+03 0.  0.
         24    2    1    2    0    0  0.32234490520E+03 -0.19125601333E+03  0.17184325499E+03  0.42013548581E+03  0.80614028610E+02 0.  0.
        -24    2    1    2    0    0 -0.32544597974E+03  0.26808119868E+03  0.23538868605E+04  0.23927826948E+04  0.82722778458E+02 0.  0.
        -13    1    4    4    0    0  0.24959401139E+03 -0.14628878698E+03  0.16794763608E+03  0.33452053477E+03  0.00000000000E+00 0.  1.
         14    1    4    4    0    0  0.72750893803E+02 -0.44967226353E+02  0.38956189189E+01  0.85614951041E+02  0.00000000000E+00 0. -1.
         13    1    5    5    0    0 -0.17881882671E+03  0.12863059573E+03  0.10095520855E+04  0.10333041257E+04  0.00000000000E+00 0. -1.
        -14    1    5    5    0    0 -0.14662715303E+03  0.13945060295E+03  0.13443347750E+04  0.13594785691E+04  0.00000000000E+00 0.  1.
          5    1    3    3  501    0  0.42916606166E+02  0.15363334621E+02 -0.13385411453E+01  0.45794445383E+02  0.41800000000E+01 0. -1.
         -5    1    3    3    0  501 -0.39815531623E+02 -0.92188519969E+02  0.15897052409E+02  0.10175553276E+03  0.41800000000E+01 0. -1.
</event>
<event>
11    1  0.1704459E-009  0.1706675E+03  0.7561462E-02  0.1077452E+00
         22   -1    0    0    0    0  0.00000000000E+00  0.00000000000E+00  0.18591732194E+03  0.18591732194E+03  0.00000000000E+00 0. -1.
         22   -1    0    0    0    0 -0.00000000000E+00 -0.00000000000E+00 -0.58248649329E+03  0.58248649329E+03  0.00000000000E+00 0. -1.
         25    2    1    2    0    0 -0.37887098681E+02 -0.10892401206E+03 -0.40221952485E+03  0.43672568852E+03  0.12509559624E+03 0.  0.
        -24    2    1    2    0    0  0.32899062090E+02  0.11302366147E+03 -0.11719790388E+03  0.18492267361E+03  0.81267153285E+02 0.  0.
         24    2    1    2    0    0  0.49880365914E+01 -0.40996494095E+01  0.12284825737E+03  0.14675545310E+03  0.80023628020E+02 0.  0.
        -13    1    5    5    0    0  0.40927079204E+02  0.53719231430E+01  0.80094560748E+02  0.90105615983E+02  0.00000000000E+00 0.  1.
         14    1    5    5    0    0 -0.35939042612E+02 -0.94715725525E+01  0.42753696623E+02  0.56649837117E+02  0.00000000000E+00 0. -1.
         13    1    4    4    0    0 -0.19436003944E+02  0.56598665916E+01 -0.45649625571E+01  0.20751655893E+02  0.00000000000E+00 0. -1.
        -14    1    4    4    0    0  0.52335066034E+02  0.10736379487E+03 -0.11263294132E+03  0.16417101771E+03  0.00000000000E+00 0.  1.
          5    1    3    3  501    0 -0.76884032493E+02 -0.32669064872E+02 -0.17812229010E+03  0.19678273523E+03  0.41800000000E+01 0.  1.
         -5    1    3    3    0  501  0.38996933812E+02 -0.76254947184E+02 -0.22409723475E+03  0.23994295330E+03  0.41800000000E+01 0.  1.
</event>
<event>
11    1  0.1704459E-009  0.1964011E+03  0.7561462E-02  0.1057098E+00
         22   -1    0    0    0    0  0.00000000000E+00  0.00000000000E+00  0.32055446525E+03  0.32055446525E+03  0.00000000000E+00 0.  1.
         22   -1    0    0    0    0 -0.00000000000E+00 -0.00000000000E+00 -0.72670778776E+03  0.72670778776E+03  0.00000000000E+00 0.  1.
         25    2    1    2    0    0 -0.61438387458E+02 -0.60935543628E+02 -0.45446768996E+03  0.47924680872E+03  0.12509518985E+03 0.  0.
        -24    2    1    2    0    0 -0.90582459737E+02  0.26884267295E+02 -0.21709856840E+03  0.25002215606E+03  0.80320260729E+02 0.  0.
         24    2    1    2    0    0  0.15202084719E+03  0.34051276334E+02  0.26541293585E+03  0.31799328823E+03  0.80036725576E+02 0.  0.
        -11    1    5    5    0    0  0.15602228769E+03  0.28134857640E+02  0.26714289810E+03  0.31064425390E+03  0.00000000000E+00 0.  1.
         12    1    5    5    0    0 -0.40014404989E+01  0.59164186933E+01 -0.17299622546E+01  0.73490343327E+01  0.00000000000E+00 0. -1.
         13    1    4    4    0    0 -0.48297358281E+02  0.28988733917E+02 -0.19354189512E+03  0.20157243532E+03  0.00000000000E+00 0. -1.
        -14    1    4    4    0    0 -0.42285101456E+02 -0.21044666229E+01 -0.23556673271E+02  0.48449720748E+02  0.00000000000E+00 0.  1.
          5    1    3    3  501    0 -0.80486936802E+02 -0.19237745398E+02 -0.39730482781E+03  0.40585322032E+03  0.41800000000E+01 0. -1.
         -5    1    3    3    0  501  0.19048549344E+02 -0.41697798230E+02 -0.57162862150E+02  0.73393588403E+02  0.41800000000E+01 0. -1.
</event>
<event>
11    1  0.1704459E-009  0.4062993E+03  0.7561462E-02  0.9631352E-01
         22   -1    0    0    0    0  0.00000000000E+00  0.00000000000E+00  0.11493189938E+04  0.11493189938E+04  0.00000000000E+00 0. -1.
         22   -1    0    0    0    0 -0.00000000000E+00 -0.00000000000E+00 -0.60352731676E+03  0.60352731676E+03  0.00000000000E+00 0.  1.
         25    2    1    2    0    0 -0.10707896494E+03  0.35503465808E+03 -0.35281180212E+03  0.52691421178E+03  0.12508759209E+03 0.  0.
        -24    2    1    2    0    0 -0.65355484894E+02 -0.50503301786E+03  0.34134106054E+03  0.61831509385E+03  0.80437224830E+02 0.  0.
         24    2    1    2    0    0  0.17243444983E+03  0.14999835978E+03  0.55726241866E+03  0.60761700495E+03  0.80149073840E+02 0.  0.
        -13    1    5    5    0    0  0.29226281486E+02  0.80057488883E+01  0.15150796433E+03  0.15450867548E+03  0.00000000000E+00 0.  1.
         14    1    5    5    0    0  0.14320816835E+03  0.14199261089E+03  0.40575445433E+03  0.45310832947E+03  0.00000000000E+00 0. -1.
         11    1    4    4    0    0 -0.36109930808E+02 -0.38597247456E+03  0.29543810870E+03  0.48740368720E+03  0.00000000000E+00 0. -1.
        -12    1    4    4    0    0 -0.29245554086E+02 -0.11906054329E+03  0.45902951840E+02  0.13091140665E+03  0.00000000000E+00 0.  1.
          5    1    3    3  501    0 -0.22618587995E+02  0.15820248869E+03 -0.22962141161E+03  0.27979115966E+03  0.41800000000E+01 0. -1.
         -5    1    3    3    0  501 -0.84460376943E+02  0.19683216939E+03 -0.12319039051E+03  0.24712305212E+03  0.41800000000E+01 0. -1.
</event>
<event>
11    1  0.1704459E-009  0.1345394E+03  0.7561462E-02  0.1113814E+00
         22   -1    0    0    0    0  0.00000000000E+00  0.00000000000E+00  0.70146503061E+02  0.70146503061E+02  0.00000000000E+00 0. -1.
         22   -1    0    0    0    0 -0.00000000000E+00 -0.00000000000E+00 -0.20510645997E+04  0.20510645997E+04  0.00000000000E+00 0.  1.
         25    2    1    2    0    0  0.34590793408E+02 -0.20586750857E+02 -0.16659037977E+04  0.16710790849E+04  0.12509799111E+03 0.  0.
        -24    2    1    2    0    0 -0.65418913967E+02  0.11195050115E+03 -0.28380945591E+03  0.32221891191E+03  0.80403177295E+02 0.  0.
         24    2    1    2    0    0  0.30828120560E+02 -0.91363750292E+02 -0.31204843070E+02  0.12791310602E+03  0.78040454743E+02 0.  0.
        -11    1    5    5    0    0 -0.23109109096E+02 -0.27720667795E+02 -0.25703504850E+02  0.44307296327E+02  0.00000000000E+00 0.  1.
         12    1    5    5    0    0  0.53937229656E+02 -0.63643082497E+02 -0.55013382202E+01  0.83605809696E+02  0.00000000000E+00 0. -1.
         13    1    4    4    0    0 -0.22209549787E+02  0.98927725292E+01 -0.90386470386E+01  0.25938931943E+02  0.00000000000E+00 0. -1.
        -14    1    4    4    0    0 -0.43209364180E+02  0.10205772862E+03 -0.27477080887E+03  0.29627997997E+03  0.00000000000E+00 0.  1.
          5    1    3    3  501    0 -0.21671819066E+02 -0.53548969169E+02 -0.49954696656E+03  0.50289343209E+03  0.41800000000E+01 0.  1.
         -5    1    3    3    0  501  0.56262612473E+02  0.32962218312E+02 -0.11663568311E+04  0.11681856528E+04  0.41800000000E+01 0.  1.
</event>
<event>
11    1  0.1704459E-009  0.1691657E+03  0.7561462E-02  0.1078760E+00
         22   -1    0    0    0    0  0.00000000000E+00  0.00000000000E+00  0.13108785478E+04  0.13108785478E+04  0.00000000000E+00 0. -1.
         22   -1    0    0    0    0 -0.00000000000E+00 -0.00000000000E+00 -0.67038945817E+02  0.67038945817E+02  0.00000000000E+00 0. -1.
         25    2    1    2    0    0  0.72615833009E+02 -0.95860144749E+02  0.17184348422E+03  0.24420931491E+03  0.12508309184E+03 0.  0.
         24    2    1    2    0    0 -0.34638146449E+02  0.10619830464E+03  0.13558208956E+03  0.19278537066E+03  0.79409162145E+02 0.  0.
        -24    2    1    2    0    0 -0.37977686560E+02 -0.10338159895E+02  0.93641402817E+03  0.94092280802E+03  0.83158380588E+02 0.  0.
        -13    1    4    4    0    0 -0.28169078128E+02  0.57116120527E+02  0.12764037295E+03  0.14264576052E+03  0.00000000000E+00 0.  1.
         14    1    4    4    0    0 -0.64690683210E+01  0.49082184117E+02  0.79417166114E+01  0.50139610144E+02  0.00000000000E+00 0. -1.
         13    1    5    5    0    0 -0.42253138479E+02  0.29350803025E+02  0.47163569021E+03  0.47443336901E+03  0.00000000000E+00 0. -1.
        -14    1    5    5    0    0  0.42754519190E+01 -0.39688962919E+02  0.46477833796E+03  0.46648943901E+03  0.00000000000E+00 0.  1.
          5    1    3    3  501    0  0.66875926717E+02  0.45290222824E+01  0.39387265295E+02  0.77857117109E+02  0.41800000000E+01 0.  1.
         -5    1    3    3    0  501  0.57399062916E+01 -0.10038916703E+03  0.13245621892E+03  0.16635219780E+03  0.41800000000E+01 0.  1.
</event>
<event>
11    1  0.1704459E-009  0.5661594E+03  0.7561462E-02  0.9256740E-01
         22   -1    0    0    0    0  0.00000000000E+00  0.00000000000E+00  0.49253244505E+03  0.49253244505E+03  0.00000000000E+00 0. -1.
         22   -1    0    0    0    0 -0.00000000000E+00 -0.00000000000E+00 -0.15173401276E+04  0.15173401276E+04  0.00000000000E+00 0. -1.
         25    2    1    2    0    0  0.50700544048E+02 -0.78620910550E+02 -0.42546927094E+02  0.16189172359E+03  0.12508755501E+03 0.  0.
        -24    2    1    2    0    0 -0.52570812651E+03 -0.20162678610E+03 -0.11357304916E+04  0.12702621831E+04  0.81608020312E+02 0.  0.
         24    2    1    2    0    0  0.47500758246E+03  0.28024769665E+03  0.15346973620E+03  0.57771866596E+03  0.77684761704E+02 0.  0.
        -13    1    5    5    0    0  0.32971606338E+03  0.21295466697E+03  0.75814328079E+02  0.39976266081E+03  0.00000000000E+00 0.  1.
         14    1    5    5    0    0  0.14529151908E+03  0.67293029684E+02  0.77655408123E+02  0.17795600516E+03  0.00000000000E+00 0. -1.
         13    1    4    4    0    0 -0.25143873226E+03 -0.84201918092E+02 -0.62235640105E+03  0.67649012485E+03  0.00000000000E+00 0. -1.
        -14    1    4    4    0    0 -0.27426939425E+03 -0.11742486801E+03 -0.51337409056E+03  0.59377205820E+03  0.00000000000E+00 0.  1.
          5    1    3    3  501    0 -0.32409827891E+02 -0.43939142414E+02  0.12626062526E+02  0.56195507248E+02  0.41800000000E+01 0. -1.
         -5    1    3    3    0  501  0.83110371939E+02 -0.34681768137E+02 -0.55172989621E+02  0.10569621634E+03  0.41800000000E+01 0. -1.
</event>
<event>
11    1  0.1704459E-009  0.1515663E+03  0.7561462E-02  0.1095289E+00
         22   -1    0    0    0    0  0.00000000000E+00  0.00000000000E+00  0.10110702957E+03  0.10110702957E+03  0.00000000000E+00 0. -1.
         22   -1    0    0    0    0 -0.00000000000E+00 -0.00000000000E+00 -0.38100112114E+03  0.38100112114E+03  0.00000000000E+00 0.  1.
         25    2    1    2    0    0  0.43278949918E+02  0.19837815581E+02 -0.13184407745E+03  0.18788167006E+03  0.12510017886E+03 0.  0.
        -24    2    1    2    0    0  0.20055879726E+02  0.71978912731E+02 -0.10168524693E+03  0.14909937995E+03  0.79419981541E+02 0.  0.
         24    2    1    2    0    0 -0.63334829644E+02 -0.91816728313E+02 -0.46364767192E+02  0.14512710070E+03  0.80439862492E+02 0.  0.
        -13    1    5    5    0    0 -0.10365588619E+02  0.12194306663E+02 -0.19729315313E+02  0.25404574885E+02  0.00000000000E+00 0.  1.
         14    1    5    5    0    0 -0.52969241025E+02 -0.10401103498E+03 -0.26635451880E+02  0.11972252582E+03  0.00000000000E+00 0. -1.
         11    1    4    4    0    0  0.26467742254E+01  0.55729232581E+02 -0.13019260160E+02  0.57290958388E+02  0.00000000000E+00 0. -1.
        -12    1    4    4    0    0  0.17409105501E+02  0.16249680150E+02 -0.88665986771E+02  0.91808421560E+02  0.00000000000E+00 0.  1.
          5    1    3    3  501    0  0.12632227776E+02 -0.18235666519E+02  0.18847025671E+02  0.29407405336E+02  0.41800000000E+01 0.  1.
         -5    1    3    3    0  501  0.30646722141E+02  0.38073482100E+02 -0.15069110313E+03  0.15847426472E+03  0.41800000000E+01 0.  1.
</event>
<event>
11    1  0.1704459E-009  0.2280535E+03  0.7561462E-02  0.1036287E+00
         22   -1    0    0    0    0  0.00000000000E+00  0.00000000000E+00  0.65731960308E+03  0.65731960308E+03  0.00000000000E+00 0.  1.
         22   -1    0    0    0    0 -0.00000000000E+00 -0.00000000000E+00 -0.10887182858E+03  0.10887182858E+03  0.00000000000E+00 0. -1.
         25    2    1    2    0    0  0.11398386445E+03 -0.14496509503E+03  0.15382784956E+03  0.27077153880E+03  0.12508804415E+03 0.  0.
         24    2    1    2    0    0 -0.12023726579E+03  0.15874236384E+03  0.24496572667E+03  0.32560206586E+03  0.79701693103E+02 0.  0.
        -24    2    1    2    0    0  0.62534013366E+01 -0.13777268807E+02  0.14965419826E+03  0.16981782701E+03  0.78821298819E+02 0.  0.
        -11    1    4    4    0    0 -0.90834710434E+02  0.13718137071E+03  0.23661881719E+03  0.28819808767E+03  0.00000000000E+00 0.  1.
         12    1    4    4    0    0 -0.29402555355E+02  0.21560993127E+02  0.83469094845E+01  0.37403978184E+02  0.00000000000E+00 0. -1.
         11    1    5    5    0    0  0.96510287463E+01  0.31467573058E+02  0.45010368037E+02  0.55760951757E+02  0.00000000000E+00 0. -1.
        -12    1    5    5    0    0 -0.33976274096E+01 -0.45244841865E+02  0.10464383023E+03  0.11405687525E+03  0.00000000000E+00 0.  1.
          5    1    3    3  501    0  0.49221266674E+02 -0.10093104320E+03  0.15606779902E+03  0.19231338712E+03  0.41800000000E+01 0.  1.
         -5    1    3    3    0  501  0.64762597778E+02 -0.44034051832E+02 -0.22399494533E+01  0.78458151682E+02  0.41800000000E+01 0.  1.
</event>
<event>
11    1  0.1704459E-009  0.6695516E+03  0.7561462E-02  0.9078418E-01
         22   -1    0    0    0    0  0.00000000000E+00  0.00000000000E+00  0.97658150065E+03  0.97658150065E+03  0.00000000000E+00 0.  1.
         22   -1    0    0    0    0 -0.00000000000E+00 -0.00000000000E+00 -0.16024724731E+04  0.16024724731E+04  0.00000000000E+00 0. -1.
         25    2    1    2    0    0  0.53930477394E+03 -0.42067306819E+03 -0.13412807441E+04  0.15107940096E+04  0.12509610530E+03 0.  0.
        -24    2    1    2    0    0 -0.41516604431E+03  0.31600809188E+03  0.28166913457E+03  0.59822754852E+03  0.79465338059E+02 0.  0.
         24    2    1    2    0    0 -0.12413872963E+03  0.10466497631E+03  0.43372063701E+03  0.47003241567E+03  0.80322471031E+02 0.  0.
        -11    1    5    5    0    0 -0.11268352189E+03  0.51007606481E+02  0.33474879142E+03  0.35686987177E+03  0.00000000000E+00 0.  1.
         12    1    5    5    0    0 -0.11455207743E+02  0.53657369828E+02  0.98971845591E+02  0.11316254390E+03  0.00000000000E+00 0. -1.
         11    1    4    4    0    0 -0.23306981252E+03  0.13274799148E+03  0.12332984515E+03  0.29521825393E+03  0.00000000000E+00 0. -1.
        -12    1    4    4    0    0 -0.18209623179E+03  0.18326010040E+03  0.15833928942E+03  0.30300929459E+03  0.00000000000E+00 0.  1.
          5    1    3    3  501    0  0.25066210220E+03 -0.25147192637E+03 -0.59440405670E+03  0.69238953938E+03  0.41800000000E+01 0.  1.
         -5    1    3    3    0  501  0.28864267174E+03 -0.16920114182E+03 -0.74687668738E+03  0.81840447023E+03  0.41800000000E+01 0.  1.
</event>
<event>
11    1  0.1704459E-009  0.3432884E+03  0.7561462E-02  0.9833710E-01
         22   -1    0    0    0    0  0.00000000000E+00  0.00000000000E+00  0.51801764221E+03  0.51801764221E+03  0.00000000000E+00 0.  1.
         22   -1    0    0    0    0 -0.00000000000E+00 -0.00000000000E+00 -0.13571106118E+04  0.13571106118E+04  0.00000000000E+00 0.  1.
         25    2    1    2    0    0 -0.31216648835E+03 -0.89196270096E+02 -0.11105718058E+04  0.11637964626E+04  0.12509428205E+03 0.  0.
         24    2    1    2    0    0  0.32428013562E+03 -0.17133206027E+03  0.92761718296E+02  0.38743070982E+03  0.83579526776E+02 0.  0.
        -24    2    1    2    0    0 -0.12113647270E+02  0.26052833036E+03  0.17871711791E+03  0.32390108164E+03  0.70358731362E+02 0.  0.
        -11    1    4    4    0    0  0.29789114848E+03 -0.15994630619E+03  0.59223997055E+02  0.34326292988E+03  0.00000000000E+00 0.  1.
         12    1    4    4    0    0  0.26388987140E+02 -0.11385754080E+02  0.33537721242E+02  0.44167779934E+02  0.00000000000E+00 0. -1.
         11    1    5    5    0    0  0.18902884833E+02  0.19649952742E+02  0.17888827452E+02  0.32610578734E+02  0.00000000000E+00 0. -1.
        -12    1    5    5    0    0 -0.31016532103E+02  0.24087837762E+03  0.16082829046E+03  0.29129050290E+03  0.00000000000E+00 0.  1.
          5    1    3    3  501    0 -0.91797786138E+02 -0.78672761976E+02 -0.29347784004E+03  0.31743180687E+03  0.41800000000E+01 0. -1.
         -5    1    3    3    0  501 -0.22036870221E+03 -0.10523508120E+02 -0.81709396578E+03  0.84636465572E+03  0.41800000000E+01 0. -1.
</event>
<event>
11    1  0.1704459E-009  0.1077522E+04  0.7561462E-02  0.8608585E-01
         22   -1    0    0    0    0  0.00000000000E+00  0.00000000000E+00  0.54782478569E+03  0.54782478569E+03  0.00000000000E+00 0. -1.
         22   -1    0    0    0    0 -0.00000000000E+00 -0.00000000000E+00 -0.52984728475E+03  0.52984728475E+03  0.00000000000E+00 0.  1.
         25    2    1    2    0    0 -0.45806452097E+02 -0.50448362192E+03 -0.55789444844E+02  0.52474977675E+03  0.12509160726E+03 0.  0.
         24    2    1    2    0    0  0.18825271285E+02  0.38627222207E+03  0.14581228152E+02  0.39561533544E+03  0.82086911466E+02 0.  0.
        -24    2    1    2    0    0  0.26981180812E+02  0.11821139984E+03  0.59185717627E+02  0.15730695826E+03  0.80874042643E+02 0.  0.
        -13    1    4    4    0    0  0.44814266220E+02  0.32895290795E+03  0.55750570355E+01  0.33203827395E+03  0.00000000000E+00 0.  1.
         14    1    4    4    0    0 -0.25988994936E+02  0.57319314122E+02  0.90061711169E+01  0.63577061488E+02  0.00000000000E+00 0. -1.
         13    1    5    5    0    0  0.12167333483E+02  0.12299507126E+03  0.66227883057E+02  0.14022112556E+03  0.00000000000E+00 0. -1.
        -14    1    5    5    0    0  0.14813847329E+02 -0.47836714192E+01 -0.70421654307E+01  0.17085832695E+02  0.00000000000E+00 0.  1.
          5    1    3    3  501    0 -0.63357193141E+02 -0.33684828559E+03  0.12094157667E+02  0.34299364787E+03  0.41800000000E+01 0. -1.
         -5    1    3    3    0  501  0.17550741045E+02 -0.16763533632E+03 -0.67883602511E+02  0.18175612888E+03  0.41800000000E+01 0. -1.
</event>
<event>
11    1  0.1704459E-009  0.9353539E+03  0.7561462E-02  0.8743055E-01
         22   -1    0    0    0    0  0.00000000000E+00  0.00000000000E+00  0.35968647010E+04  0.35968647010E+04  0.00000000000E+00 0. -1.
         22   -1    0    0    0    0 -0.00000000000E+00 -0.00000000000E+00 -0.34452135580E+03  0.34452135580E+03  0.00000000000E+00 0. -1.
         25    2    1    2    0    0  0.89151878587E+03  0.35684748375E+03  0.12817549784E+04  0.16064527754E+04  0.12509525491E+03 0.  0.
         24    2    1    2    0    0 -0.82204413415E+03 -0.36885760019E+03  0.95921602705E+03  0.13188100080E+04  0.85743588518E+02 0.  0.
        -24    2    1    2    0    0 -0.69474651721E+02  0.12010116439E+02  0.10113723398E+04  0.10161232734E+04  0.68275375893E+02 0.  0.
        -11    1    4    4    0    0 -0.73074467922E+02 -0.49196502005E+02  0.65792281784E+02  0.10994907009E+03  0.00000000000E+00 0.  1.
         12    1    4    4    0    0 -0.74896966623E+03 -0.31966109818E+03  0.89342374527E+03  0.12088609379E+04  0.00000000000E+00 0. -1.
         11    1    5    5    0    0 -0.76641859913E+02  0.22283685571E+02  0.95718056601E+03  0.96050256287E+03  0.00000000000E+00 0. -1.
        -12    1    5    5    0    0  0.71672081922E+01 -0.10273569131E+02  0.54191773773E+02  0.55620710537E+02  0.00000000000E+00 0.  1.
          5    1    3    3  501    0  0.52032146291E+03  0.15506881292E+03  0.65840073926E+03  0.85339894971E+03  0.41800000000E+01 0.  1.
         -5    1    3    3    0  501  0.37119732296E+03  0.20177867083E+03  0.62335423912E+03  0.75305382570E+03  0.41800000000E+01 0.  1.
</event>
<event>
11    1  0.1704459E-009  0.1639787E+03  0.7561462E-02  0.1083394E+00
         22   -1    0    0    0    0  0.00000000000E+00  0.00000000000E+00  0.13762651779E+04  0.13762651779E+04  0.00000000000E+00 0. -1.
         22   -1    0    0    0    0 -0.00000000000E+00 -0.00000000000E+00 -0.51234925010E+02  0.51234925010E+02  0.00000000000E+00 0.  1.
         25    2    1    2    0    0 -0.15006950746E+02 -0.45988996304E+02  0.10609344447E+03  0.17100811886E+03  0.12509101248E+03 0.  0.
        -24    2    1    2    0    0  0.13571454944E+02 -0.68743439375E+02  0.18722295620E+03  0.21530429256E+03  0.79960354053E+02 0.  0.
         24    2    1    2    0    0  0.14354958013E+01  0.11473243568E+03  0.10317138522E+04  0.10411876915E+04  0.80453363014E+02 0.  0.
        -13    1    5    5    0    0  0.27985905387E+02  0.84561031247E+02  0.49338463329E+03  0.50136032479E+03  0.00000000000E+00 0.  1.
         14    1    5    5    0    0 -0.26550409585E+02  0.30171404432E+02  0.53832921896E+03  0.53982736674E+03  0.00000000000E+00 0. -1.
         13    1    4    4    0    0  0.29673569119E+02 -0.36119945500E+01  0.10505099854E+03  0.10922124108E+03  0.00000000000E+00 0. -1.
        -14    1    4    4    0    0 -0.16102114174E+02 -0.65131444825E+02  0.82171957668E+02  0.10608305149E+03  0.00000000000E+00 0.  1.
          5    1    3    3  501    0 -0.17793078565E+02 -0.85784037016E+02  0.46778923795E+02  0.99404400119E+02  0.41800000000E+01 0.  1.
         -5    1    3    3    0  501  0.27861278193E+01  0.39795040713E+02  0.59314520679E+02  0.71603718737E+02  0.41800000000E+01 0.  1.
</event>
<event>
11    1  0.1704459E-009  0.4020306E+03  0.7561462E-02  0.9643786E-01
         22   -1    0    0    0    0  0.00000000000E+00  0.00000000000E+00  0.22706130029E+03  0.22706130029E+03  0.00000000000E+00 0. -1.
         22   -1    0    0    0    0 -0.00000000000E+00 -0.00000000000E+00 -0.40100991330E+04  0.40100991330E+04  0.00000000000E+00 0. -1.
         25    2    1    2    0    0  0.22789721523E+03  0.30530596266E+03 -0.36895827932E+04  0.37113091345E+04  0.12508170338E+03 0.  0.
        -24    2    1    2    0    0 -0.19961434450E+03 -0.35143022735E+03 -0.33092178383E+02  0.41322672923E+03  0.79449016674E+02 0.  0.
         24    2    1    2    0    0 -0.28282870733E+02  0.46124264695E+02 -0.60362861173E+02  0.11262456959E+03  0.78187275789E+02 0.  0.
        -13    1    5    5    0    0 -0.46060542160E+01  0.62192951078E+02 -0.25131025033E+02  0.67236502872E+02  0.00000000000E+00 0.  1.
         14    1    5    5    0    0 -0.23676816517E+02 -0.16068686383E+02 -0.35231836140E+02  0.45388066717E+02  0.00000000000E+00 0. -1.
         11    1    4    4    0    0 -0.18970083828E+03 -0.27207752611E+03 -0.20970725800E+02  0.33234373712E+03  0.00000000000E+00 0. -1.
        -12    1    4    4    0    0 -0.99135062139E+01 -0.79352701243E+02 -0.12121452583E+02  0.80882992111E+02  0.00000000000E+00 0.  1.
          5    1    3    3  501    0  0.20833428037E+03  0.20352718531E+03 -0.29771018314E+04  0.29913173142E+04  0.41800000000E+01 0. -1.
         -5    1    3    3    0  501  0.19562934856E+02  0.10177877735E+03 -0.71248096178E+03  0.71999182026E+03  0.41800000000E+01 0. -1.
</event>
<event>
11    1  0.1704459E-009  0.2171309E+03  0.7561462E-02  0.1043030E+00
         22   -1    0    0    0    0  0.00000000000E+00  0.00000000000E+00  0.19876689945E+04  0.19876689945E+04  0.00000000000E+00 0.  1.
         22   -1    0    0    0    0 -0.00000000000E+00 -0.00000000000E+00 -0.67856094058E+02  0.67856094058E+02  0.00000000000E+00 0. -1.
         25    2    1    2    0    0  0.17572298309E+02 -0.17723867836E+03  0.17195361495E+03  0.27737527038E+03  0.12508661059E+03 0.  0.
         24    2    1    2    0    0  0.38386459797E+02  0.17681730522E+03  0.14866177450E+04  0.14996952942E+04  0.79471857131E+02 0.  0.
        -24    2    1    2    0    0 -0.55958758107E+02  0.42137314026E+00  0.26124154051E+03  0.27845452396E+03  0.78474322321E+02 0.  0.
        -11    1    4    4    0    0  0.42089879885E+02  0.18285759994E+03  0.14644671574E+04  0.14764391335E+04  0.00000000000E+00 0.  1.
         12    1    4    4    0    0 -0.37034200880E+01 -0.60402947228E+01  0.22150587570E+02  0.23256160697E+02  0.00000000000E+00 0. -1.
         11    1    5    5    0    0  0.13717553182E+01 -0.12251209281E+02  0.18076997723E+01  0.12459599511E+02  0.00000000000E+00 0. -1.
        -12    1    5    5    0    0 -0.57330513425E+02  0.12672582421E+02  0.25943384074E+03  0.26599492445E+03  0.00000000000E+00 0.  1.
          5    1    3    3  501    0  0.49387394189E+02 -0.10802076722E+03  0.40822396923E+02  0.12566439968E+03  0.41800000000E+01 0.  1.
         -5    1    3    3    0  501 -0.31815095879E+02 -0.69217911136E+02  0.13113121802E+03  0.15171087070E+03  0.41800000000E+01 0.  1.
</event>
<event>
11    1  0.1704459E-009  0.2873019E+03  0.7561462E-02  0.1005713E+00
         22   -1    0    0    0    0  0.00000000000E+00  0.00000000000E+00  0.39783322480E+03  0.39783322480E+03  0.00000000000E+00 0.  1.
         22   -1    0    0    0    0 -0.00000000000E+00 -0.00000000000E+00 -0.39013759928E+04  0.39013759928E+04  0.00000000000E+00 0.  1.
         25    2    1    2    0    0  0.77418017897E+02 -0.24811049440E+03 -0.37488197080E+04  0.37599003115E+04  0.12509509288E+03 0.  0.
        -24    2    1    2    0    0 -0.11216300435E+03  0.20853225887E+03 -0.25302707454E+02  0.25189301092E+03  0.82119543442E+02 0.  0.
         24    2    1    2    0    0  0.34744986448E+02  0.39578235528E+02  0.27057964748E+03  0.28741589516E+03  0.81368915122E+02 0.  0.
        -13    1    5    5    0    0  0.12539297554E+02  0.37503479538E+02  0.25953172178E+03  0.26252706445E+03  0.00000000000E+00 0.  1.
         14    1    5    5    0    0  0.22205688894E+02  0.20747559896E+01  0.11047925706E+02  0.24888830709E+02  0.00000000000E+00 0. -1.
         13    1    4    4    0    0 -0.92129394424E+02  0.20762887428E+03 -0.11295739813E+02  0.22743167873E+03  0.00000000000E+00 0. -1.
        -14    1    4    4    0    0 -0.20033609921E+02  0.90338458761E+00 -0.14006967641E+02  0.24461332193E+02  0.00000000000E+00 0.  1.
          5    1    3    3  501    0  0.74394834706E+02 -0.14639299638E+03 -0.15404757801E+04  0.15492090248E+04  0.41800000000E+01 0. -1.
         -5    1    3    3    0  501  0.30231831911E+01 -0.10171749801E+03 -0.22083439279E+04  0.22106912867E+04  0.41800000000E+01 0. -1.
</event>
<event>
11    1  0.2372880E-009  0.3767429E+03  0.7561462E-02  0.9720986E-01
         22   -1    0    0    0    0  0.00000000000E+00  0.00000000000E+00  0.60002513029E+03  0.60002513029E+03  0.00000000000E+00 0. -1.
         22   -1    0    0    0    0 -0.00000000000E+00 -0.00000000000E+00 -0.12941185654E+04  0.12941185654E+04  0.00000000000E+00 0. -1.
         25    2    1    2    0    0 -0.18345597595E+03 -0.29939528011E+03 -0.11290709315E+04  0.11890095892E+04  0.12509598725E+03 0.  0.
         24    2    1    2    0    0  0.23364137194E+03  0.35532353014E+03  0.39788291878E+03  0.58822396216E+03  0.82785933912E+02 0.  0.
        -24    2    1    2    0    0 -0.50185395986E+02 -0.55928250026E+02  0.37094577543E+02  0.11691014438E+03  0.81519513336E+02 0.  0.
        -13    1    4    4    0    0  0.26965503439E+02  0.12924696267E+02  0.49471836314E+02  0.57806995577E+02  0.00000000000E+00 0.  1.
         14    1    4    4    0    0  0.20667586850E+03  0.34239883387E+03  0.34841108246E+03  0.53041696658E+03  0.00000000000E+00 0. -1.
         11    1    5    5    0    0 -0.59374093706E+02 -0.10151721283E+02  0.53962476252E+01  0.60476937231E+02  0.00000000000E+00 0. -1.
        -12    1    5    5    0    0  0.91886977195E+01 -0.45776528743E+02  0.31698329918E+02  0.56433207149E+02  0.00000000000E+00 0.  1.
          5    1    3    3  501    0 -0.14973781126E+02 -0.21176637327E+02 -0.25542147618E+03  0.25676889800E+03  0.41800000000E+01 0.  1.
         -5    1    3    3    0  501 -0.16848219483E+03 -0.27821864279E+03 -0.87364945529E+03  0.93224069118E+03  0.41800000000E+01 0.  1.
</event>
<event>
11    1  0.1704459E-009  0.5077430E+03  0.7561462E-02  0.9376384E-01
         22   -1    0    0    0    0  0.00000000000E+00  0.00000000000E+00  0.12667735867E+04  0.12667735867E+04  0.00000000000E+00 0. -1.
         22   -1    0    0    0    0 -0.00000000000E+00 -0.00000000000E+00 -0.16612361981E+04  0.16612361981E+04  0.00000000000E+00 0.  1.
         25    2    1    2    0    0  0.46087677583E+03  0.16002680415E+03 -0.12185818308E+04  0.13185590838E+04  0.12506157870E+03 0.  0.
         24    2    1    2    0    0 -0.41853687877E+03 -0.32420183674E+03 -0.19782565197E+03  0.57040816110E+03  0.77139690392E+02 0.  0.
        -24    2    1    2    0    0 -0.42339897066E+02  0.16417503259E+03  0.10219448714E+04  0.10390425400E+04  0.80572772019E+02 0.  0.
        -13    1    4    4    0    0 -0.96239080794E+01 -0.14786074434E+02 -0.22255769906E+02  0.28400121443E+02  0.00000000000E+00 0.  1.
         14    1    4    4    0    0 -0.40891297069E+03 -0.30941576231E+03 -0.17556988207E+03  0.54200803966E+03  0.00000000000E+00 0. -1.
         11    1    5    5    0    0 -0.52345122255E+02  0.61699431324E+02  0.34832309672E+03  0.35759727538E+03  0.00000000000E+00 0. -1.
        -12    1    5    5    0    0  0.10005225189E+02  0.10247560127E+03  0.67362177465E+03  0.68144526462E+03  0.00000000000E+00 0.  1.
          5    1    3    3  501    0  0.28839446119E+03  0.35605731818E+02 -0.68052479893E+03  0.73998014010E+03  0.41800000000E+01 0.  1.
         -5    1    3    3    0  501  0.17248231465E+03  0.12442107234E+03 -0.53805703189E+03  0.57857894368E+03  0.41800000000E+01 0.  1.
</event>
<event>
11    1  0.1704459E-009  0.1290619E+03  0.7561462E-02  0.1120427E+00
         22   -1    0    0    0    0  0.00000000000E+00  0.00000000000E+00  0.84294688060E+02  0.84294688060E+02  0.00000000000E+00 0.  1.
         22   -1    0    0    0    0 -0.00000000000E+00 -0.00000000000E+00 -0.37871647753E+03  0.37871647753E+03  0.00000000000E+00 0. -1.
         25    2    1    2    0    0  0.19787648907E+02 -0.98447620623E+01 -0.22913779821E+03  0.26199151344E+03  0.12508777781E+03 0.  0.
         24    2    1    2    0    0 -0.56924236302E+02 -0.11451414902E+02 -0.34979678401E+02  0.10511663894E+03  0.80339444230E+02 0.  0.
        -24    2    1    2    0    0  0.37136587395E+02  0.21296176964E+02 -0.30304312865E+02  0.95903013216E+02  0.80289372204E+02 0.  0.
        -11    1    4    4    0    0 -0.51411594372E+02 -0.11594771832E+02  0.15029778738E+02  0.54804060239E+02  0.00000000000E+00 0.  1.
         12    1    4    4    0    0 -0.55126419298E+01  0.14335693055E+00 -0.50009457139E+02  0.50312578701E+02  0.00000000000E+00 0. -1.
         13    1    5    5    0    0  0.10786550589E+02 -0.75418655163E+01 -0.50318123921E+02  0.52010989262E+02  0.00000000000E+00 0. -1.
        -14    1    5    5    0    0  0.26350036806E+02  0.28838042480E+02  0.20013811056E+02  0.43892023954E+02  0.00000000000E+00 0.  1.
          5    1    3    3  501    0  0.71439580742E+02 -0.33827861367E+01 -0.16035052018E+03  0.17562693034E+03  0.41800000000E+01 0. -1.
         -5    1    3    3    0  501 -0.51651931835E+02 -0.64619759256E+01 -0.68787278025E+02  0.86364583096E+02  0.41800000000E+01 0. -1.
</event>
<event>
11    1  0.1704459E-009  0.2008016E+03  0.7561462E-02  0.1053958E+00
         22   -1    0    0    0    0  0.00000000000E+00  0.00000000000E+00  0.55897409755E+03  0.55897409755E+03  0.00000000000E+00 0. -1.
         22   -1    0    0    0    0 -0.00000000000E+00 -0.00000000000E+00 -0.68182833392E+03  0.68182833392E+03  0.00000000000E+00 0.  1.
         25    2    1    2    0    0  0.36191404445E+02  0.83279521891E+02 -0.59152937990E+03  0.61139108314E+03  0.12508698067E+03 0.  0.
         24    2    1    2    0    0  0.23712093555E+02  0.63808654026E+02 -0.18026779103E+02  0.11118908820E+03  0.86047898642E+02 0.  0.
        -24    2    1    2    0    0 -0.59903498000E+02 -0.14708817592E+03  0.48670192264E+03  0.51822226013E+03  0.80325517858E+02 0.  0.
        -11    1    4    4    0    0  0.13988079470E+02  0.46393964244E+01  0.30615226433E+02  0.33977675847E+02  0.00000000000E+00 0.  1.
         12    1    4    4    0    0  0.97240140853E+01  0.59169257601E+02 -0.48642005536E+02  0.77211412353E+02  0.00000000000E+00 0. -1.
         13    1    5    5    0    0 -0.30909052034E+02 -0.12352534377E+02  0.16363999859E+03  0.16699102892E+03  0.00000000000E+00 0. -1.
        -14    1    5    5    0    0 -0.28994445967E+02 -0.13473564154E+03  0.32306192405E+03  0.35123123120E+03  0.00000000000E+00 0.  1.
          5    1    3    3  501    0 -0.16875979722E+02  0.61823579655E+02 -0.11754838120E+03  0.13394793024E+03  0.41800000000E+01 0.  1.
         -5    1    3    3    0  501  0.53067384167E+02  0.21455942236E+02 -0.47398099870E+03  0.47744315290E+03  0.41800000000E+01 0.  1.
</event>
<event>
11    1  0.1704459E-009  0.1383512E+03  0.7561462E-02  0.1109414E+00
         22   -1    0    0    0    0  0.00000000000E+00  0.00000000000E+00  0.24355515583E+03  0.24355515583E+03  0.00000000000E+00 0. -1.
         22   -1    0    0    0    0 -0.00000000000E+00 -0.00000000000E+00 -0.15294784545E+03  0.15294784545E+03  0.00000000000E+00 0.  1.
         25    2    1    2    0    0  0.20642454797E+02 -0.24819249253E+02  0.12925946985E+02  0.12983168763E+03  0.12508829256E+03 0.  0.
        -24    2    1    2    0    0 -0.52977366300E+02 -0.76871417978E+02  0.35494576899E+02  0.13090340050E+03  0.84616895654E+02 0.  0.
         24    2    1    2    0    0  0.32334911503E+02  0.10169066723E+03  0.42186786497E+02  0.13576791316E+03  0.72571778155E+02 0.  0.
        -11    1    5    5    0    0 -0.36685489112E+01  0.64598119304E+02 -0.61538140132E+01  0.64994189707E+02  0.00000000000E+00 0.  1.
         12    1    5    5    0    0  0.36003460414E+02  0.37092547927E+02  0.48340600510E+02  0.70773723451E+02  0.00000000000E+00 0. -1.
         11    1    4    4    0    0 -0.43590990044E+02 -0.59903322367E+02  0.62999754957E+02  0.97249943796E+02  0.00000000000E+00 0. -1.
        -12    1    4    4    0    0 -0.93863762554E+01 -0.16968095611E+02 -0.27505178058E+02  0.33653456700E+02  0.00000000000E+00 0.  1.
          5    1    3    3  501    0 -0.24386953247E+02 -0.53365263332E+02  0.38755563824E+02  0.70441755703E+02  0.41800000000E+01 0.  1.
         -5    1    3    3    0  501  0.45029408045E+02  0.28546014079E+02 -0.25829616839E+02  0.59389931931E+02  0.41800000000E+01 0.  1.
</event>
<event>
11    1  0.1704459E-009  0.2176981E+03  0.7561462E-02  0.1042669E+00
         22   -1    0    0    0    0  0.00000000000E+00  0.00000000000E+00  0.12901352479E+04  0.12901352479E+04  0.00000000000E+00 0.  1.
         22   -1    0    0    0    0 -0.00000000000E+00 -0.00000000000E+00 -0.17210396470E+04  0.17210396470E+04  0.00000000000E+00 0.  1.
         25    2    1    2    0    0 -0.48506837353E+02 -0.17362824061E+03 -0.16660306147E+04  0.16804180635E+04  0.12508868761E+03 0.  0.
         24    2    1    2    0    0  0.10113543325E+03  0.10834732125E+03  0.11223275326E+03  0.20247738516E+03  0.80208370595E+02 0.  0.
        -24    2    1    2    0    0 -0.52628595899E+02  0.65280919355E+02  0.11228934624E+04  0.11282794463E+04  0.71368154694E+02 0.  0.
        -13    1    4    4    0    0 -0.38675840944E+01  0.46503159093E+02  0.31047182866E+02  0.56048457395E+02  0.00000000000E+00 0.  1.
         14    1    4    4    0    0  0.10500301735E+03  0.61844162157E+02  0.81185570396E+02  0.14642892776E+03  0.00000000000E+00 0. -1.
         13    1    5    5    0    0  0.13182184089E+02 -0.44508744049E+01  0.17321690472E+03  0.17377478627E+03  0.00000000000E+00 0. -1.
        -14    1    5    5    0    0 -0.65810779988E+02  0.69731793760E+02  0.94967655767E+03  0.95450466002E+03  0.00000000000E+00 0.  1.
          5    1    3    3  501    0  0.32653481037E+02 -0.14810006635E+02 -0.17017994256E+03  0.17396629378E+03  0.41800000000E+01 0.  1.
         -5    1    3    3    0  501 -0.81160318389E+02 -0.15881823397E+03 -0.14958506722E+04  0.15064517697E+04  0.41800000000E+01 0.  1.
</event>
<event>
11    1  0.1704459E-009  0.5400171E+03  0.7561462E-02  0.9308295E-01
         22   -1    0    0    0    0  0.00000000000E+00  0.00000000000E+00  0.58603900846E+03  0.58603900846E+03  0.00000000000E+00 0.  1.
         22   -1    0    0    0    0 -0.00000000000E+00 -0.00000000000E+00 -0.84813780208E+03  0.84813780208E+03  0.00000000000E+00 0. -1.
         25    2    1    2    0    0  0.22929952762E+03 -0.48215508640E+03 -0.52624950090E+03  0.76001861334E+03  0.12505180814E+03 0.  0.
        -24    2    1    2    0    0 -0.23137694836E+03  0.44385460447E+03  0.15377230457E+03  0.53003260664E+03  0.82136717169E+02 0.  0.
         24    2    1    2    0    0  0.20774207438E+01  0.38300481925E+02  0.11037840271E+03  0.14412559055E+03  0.84365582287E+02 0.  0.
        -13    1    5    5    0    0  0.31930708620E+02  0.48295250049E+02  0.88620709529E+02  0.10585665538E+03  0.00000000000E+00 0.  1.
         14    1    5    5    0    0 -0.29853287877E+02 -0.99947681236E+01  0.21757693183E+02  0.38268935176E+02  0.00000000000E+00 0. -1.
         13    1    4    4    0    0 -0.48437238853E+02  0.11194817107E+03  0.74237969046E+02  0.14279298008E+03  0.00000000000E+00 0. -1.
        -14    1    4    4    0    0 -0.18293970951E+03  0.33190643341E+03  0.79534335527E+02  0.38723962656E+03  0.00000000000E+00 0.  1.
          5    1    3    3  501    0  0.97753209411E+02 -0.17237493817E+03 -0.11708749256E+03  0.23020808538E+03  0.41800000000E+01 0. -1.
         -5    1    3    3    0  501  0.13154631821E+03 -0.30978014823E+03 -0.40916200834E+03  0.52981052796E+03  0.41800000000E+01 0. -1.
</event>
<event>
11    1  0.1704459E-009  0.1853634E+03  0.7561462E-02  0.1065385E+00
         22   -1    0    0    0    0  0.00000000000E+00  0.00000000000E+00  0.23432583539E+03  0.23432583539E+03  0.00000000000E+00 0. -1.
         22   -1    0    0    0    0 -0.00000000000E+00 -0.00000000000E+00 -0.32504872219E+03  0.32504872219E+03  0.00000000000E+00 0.  1.
         25    2    1    2    0    0 -0.10932498324E+03  0.50868383905E+02 -0.13515036431E+03  0.22011981209E+03  0.12509023247E+03 0.  0.
        -24    2    1    2    0    0 -0.32356248218E+02 -0.42329995874E+02 -0.86817653990E+02  0.12958043608E+03  0.80093876307E+02 0.  0.
         24    2    1    2    0    0  0.14168123146E+03 -0.85383880314E+01  0.13124513150E+03  0.20967430941E+03  0.81188398590E+02 0.  0.
        -13    1    5    5    0    0  0.12802482737E+03 -0.33824819363E+02  0.92902335217E+02  0.16175697425E+03  0.00000000000E+00 0.  1.
         14    1    5    5    0    0  0.13656404085E+02  0.25286431331E+02  0.38342796287E+02  0.47917335163E+02  0.00000000000E+00 0. -1.
         13    1    4    4    0    0 -0.36748743588E+02 -0.63193288712E+02 -0.76782674303E+02  0.10601622973E+03  0.00000000000E+00 0. -1.
        -14    1    4    4    0    0  0.43924953696E+01  0.20863292839E+02 -0.10034979687E+02  0.23564206351E+02  0.00000000000E+00 0.  1.
          5    1    3    3  501    0 -0.72130564494E+02 -0.21731567800E+02 -0.18445613437E+02  0.77671052705E+02  0.41800000000E+01 0.  1.
         -5    1    3    3    0  501 -0.37194418747E+02  0.72599951706E+02 -0.11670475087E+03  0.14244875938E+03  0.41800000000E+01 0.  1.
</event>
<event>
11    1  0.1704459E-009  0.6911057E+03  0.7561462E-02  0.9045515E-01
         22   -1    0    0    0    0  0.00000000000E+00  0.00000000000E+00  0.97833591151E+03  0.97833591151E+03  0.00000000000E+00 0.  1.
         22   -1    0    0    0    0 -0.00000000000E+00 -0.00000000000E+00 -0.14034426371E+04  0.14034426371E+04  0.00000000000E+00 0.  1.
         25    2    1    2    0    0 -0.54927859879E+03 -0.24256857286E+03 -0.64947803649E+03  0.89331795330E+03  0.12509498062E+03 0.  0.
        -24    2    1    2    0    0  0.83470950970E+03  0.50532532834E+03 -0.89196948873E+02  0.98314002470E+03  0.80712820688E+02 0.  0.
         24    2    1    2    0    0 -0.28543091091E+03 -0.26275675548E+03  0.31356825980E+03  0.50532057059E+03  0.80696394304E+02 0.  0.
        -13    1    5    5    0    0 -0.20792685589E+02 -0.51474930399E+02  0.27136410292E+02  0.61793114479E+02  0.00000000000E+00 0.  1.
         14    1    5    5    0    0 -0.26463822532E+03 -0.21128182508E+03  0.28643184951E+03  0.44352745611E+03  0.00000000000E+00 0. -1.
         11    1    4    4    0    0  0.14787751201E+03  0.58360773027E+02 -0.27729912865E+02  0.16137746576E+03  0.00000000000E+00 0. -1.
        -12    1    4    4    0    0  0.68683199769E+03  0.44696455531E+03 -0.61467036008E+02  0.82176255894E+03  0.00000000000E+00 0.  1.
          5    1    3    3  501    0 -0.27758703492E+03 -0.17978214779E+03 -0.30310782906E+03  0.44862903501E+03  0.41800000000E+01 0.  1.
         -5    1    3    3    0  501 -0.27169156387E+03 -0.62786425073E+02 -0.34637020743E+03  0.44468891829E+03  0.41800000000E+01 0.  1.
</event>
<event>
11    1  0.1704459E-009  0.1912616E+03  0.7561462E-02  0.1060881E+00
         22   -1    0    0    0    0  0.00000000000E+00  0.00000000000E+00  0.51619153996E+02  0.51619153996E+02  0.00000000000E+00 0. -1.
         22   -1    0    0    0    0 -0.00000000000E+00 -0.00000000000E+00 -0.11070838719E+04  0.11070838719E+04  0.00000000000E+00 0. -1.
         25    2    1    2    0    0  0.10149215554E+03  0.58987916393E+02 -0.55682886526E+03  0.58265443775E+03  0.12509027430E+03 0.  0.
        -24    2    1    2    0    0  0.45904831249E+01  0.61554041401E+02 -0.24162949139E+03  0.26281449625E+03  0.82925724461E+02 0.  0.
         24    2    1    2    0    0 -0.10608263867E+03 -0.12054195779E+03 -0.25700636122E+03  0.31323409187E+03  0.79242897392E+02 0.  0.
        -13    1    5    5    0    0 -0.15122203608E+02  0.22254959112E+01 -0.12797593444E+01  0.15338567664E+02  0.00000000000E+00 0.  1.
         14    1    5    5    0    0 -0.90960435060E+02 -0.12276745371E+03 -0.25572660188E+03  0.29789552421E+03  0.00000000000E+00 0. -1.
         11    1    4    4    0    0 -0.22201102679E+02  0.67070496068E+02 -0.13081392991E+03  0.14867287803E+03  0.00000000000E+00 0. -1.
        -12    1    4    4    0    0  0.26791585804E+02 -0.55164546669E+01 -0.11081556149E+03  0.11414161822E+03  0.00000000000E+00 0.  1.
          5    1    3    3  501    0  0.50735781632E+02 -0.10960788419E+02 -0.40141102122E+03  0.40477467655E+03  0.41800000000E+01 0.  1.
         -5    1    3    3    0  501  0.50756373910E+02  0.69948704812E+02 -0.15541784404E+03  0.17787976120E+03  0.41800000000E+01 0.  1.
</event>
<event>
11    1  0.1704459E-009  0.6130951E+03  0.7561462E-02  0.9171187E-01
         22   -1    0    0    0    0  0.00000000000E+00  0.00000000000E+00  0.27524185325E+03  0.27524185325E+03  0.00000000000E+00 0.  1.
         22   -1    0    0    0    0 -0.00000000000E+00 -0.00000000000E+00 -0.17994631814E+04  0.17994631814E+04  0.00000000000E+00 0.  1.
         25    2    1    2    0    0  0.50241207687E+03  0.31613880901E+03 -0.98506287354E+03  0.11568740418E+04  0.12508813764E+03 0.  0.
         24    2    1    2    0    0 -0.55278920564E+03 -0.26642457079E+03 -0.52240442756E+03  0.80996707606E+03  0.81131501744E+02 0.  0.
        -24    2    1    2    0    0  0.50377128770E+02 -0.49714238224E+02 -0.16754027053E+02  0.10786391681E+03  0.79652787407E+02 0.  0.
        -13    1    4    4    0    0 -0.31454391776E+03 -0.18891557266E+03 -0.28222843960E+03  0.46290372856E+03  0.00000000000E+00 0.  1.
         14    1    4    4    0    0 -0.23824528788E+03 -0.77508998131E+02 -0.24017598796E+03  0.34706334750E+03  0.00000000000E+00 0. -1.
         13    1    5    5    0    0  0.25200471931E+02 -0.71517801008E+01 -0.44145953221E+02  0.51333000399E+02  0.00000000000E+00 0. -1.
        -14    1    5    5    0    0  0.25176656839E+02 -0.42562458124E+02  0.27391926167E+02  0.56530916411E+02  0.00000000000E+00 0.  1.
          5    1    3    3  501    0  0.46243829974E+03  0.30872082399E+03 -0.84959598863E+03  0.10153760606E+04  0.41800000000E+01 0.  1.
         -5    1    3    3    0  501  0.39973777129E+02  0.74179850220E+01 -0.13546688491E+03  0.14149798114E+03  0.41800000000E+01 0.  1.
</event>
<event>
11    1  0.1704459E-009  0.1956820E+03  0.7561462E-02  0.1057620E+00
         22   -1    0    0    0    0  0.00000000000E+00  0.00000000000E+00  0.99673161611E+02  0.99673161611E+02  0.00000000000E+00 0.  1.
         22   -1    0    0    0    0 -0.00000000000E+00 -0.00000000000E+00 -0.14965863218E+04  0.14965863218E+04  0.00000000000E+00 0.  1.
         25    2    1    2    0    0  0.11401109155E+02  0.13669110118E+03 -0.10434707698E+04  0.10598549994E+04  0.12508768836E+03 0.  0.
        -24    2    1    2    0    0 -0.28940616409E+02 -0.24431672881E+03 -0.22749517925E+03  0.34491499534E+03  0.81756187365E+02 0.  0.
         24    2    1    2    0    0  0.17539507254E+02  0.10762562763E+03 -0.12594721111E+03  0.19148948870E+03  0.94417234972E+02 0.  0.
        -13    1    5    5    0    0  0.23329123604E+02  0.68790482734E+02 -0.15504687541E+02  0.74274988109E+02  0.00000000000E+00 0.  1.
         14    1    5    5    0    0 -0.57896163504E+01  0.38835144893E+02 -0.11044252357E+03  0.11721450059E+03  0.00000000000E+00 0. -1.
         11    1    4    4    0    0  0.21633231766E+02 -0.10546268287E+03 -0.67274130449E+02  0.12694952864E+03  0.00000000000E+00 0. -1.
        -12    1    4    4    0    0 -0.50573848175E+02 -0.13885404594E+03 -0.16022104880E+03  0.21796546670E+03  0.00000000000E+00 0.  1.
          5    1    3    3  501    0  0.15935363253E+02  0.15736315056E+03 -0.98298333330E+03  0.99563587868E+03  0.41800000000E+01 0. -1.
         -5    1    3    3    0  501 -0.45342540981E+01 -0.20672049379E+02 -0.60487436542E+02  0.64219120713E+02  0.41800000000E+01 0. -1.
</event>
<event>
11    1  0.1704459E-009  0.2289772E+03  0.7561462E-02  0.1035735E+00
         22   -1    0    0    0    0  0.00000000000E+00  0.00000000000E+00  0.11189842431E+03  0.11189842431E+03  0.00000000000E+00 0. -1.
         22   -1    0    0    0    0 -0.00000000000E+00 -0.00000000000E+00 -0.11457388170E+04  0.11457388170E+04  0.00000000000E+00 0.  1.
         25    2    1    2    0    0  0.95289618981E+02  0.17864033140E+03 -0.54845273449E+03  0.59786289053E+03  0.12508858627E+03 0.  0.
        -24    2    1    2    0    0  0.63257915458E+02 -0.20454585993E+03 -0.39943117315E+03  0.46016624500E+03  0.79794349911E+02 0.  0.
         24    2    1    2    0    0 -0.15854753444E+03  0.25905528523E+02 -0.85956485038E+02  0.19960810577E+03  0.81525833226E+02 0.  0.
        -13    1    5    5    0    0 -0.22530404791E+02  0.76826834432E+01  0.15969484763E+02  0.28664738068E+02  0.00000000000E+00 0.  1.
         14    1    5    5    0    0 -0.13601712965E+03  0.18222845080E+02 -0.10192596980E+03  0.17094336770E+03  0.00000000000E+00 0. -1.
         13    1    4    4    0    0  0.40177361033E+02 -0.60005740958E+02 -0.74326978201E+02  0.10363111973E+03  0.00000000000E+00 0. -1.
        -14    1    4    4    0    0  0.23080554425E+02 -0.14454011897E+03 -0.32510419495E+03  0.35653512528E+03  0.00000000000E+00 0.  1.
          5    1    3    3  501    0 -0.16952720782E+02  0.10075158728E+02 -0.14522281888E+03  0.14661528941E+03  0.41800000000E+01 0. -1.
         -5    1    3    3    0  501  0.11224233976E+03  0.16856517268E+03 -0.40322991561E+03  0.45124760112E+03  0.41800000000E+01 0. -1.
</event>
<event>
11    1  0.1704459E-009  0.1412124E+03  0.7561462E-02  0.1106212E+00
         22   -1    0    0    0    0  0.00000000000E+00  0.00000000000E+00  0.14251592351E+04  0.14251592351E+04  0.00000000000E+00 0. -1.
         22   -1    0    0    0    0 -0.00000000000E+00 -0.00000000000E+00 -0.84063562272E+03  0.84063562272E+03  0.00000000000E+00 0.  1.
         25    2    1    2    0    0 -0.93732567566E+01  0.74026032170E+02 -0.44041193933E+03  0.46387286720E+03  0.12509056416E+03 0.  0.
         24    2    1    2    0    0 -0.54376569700E+01 -0.10236488849E+02 -0.38244711776E+03  0.39071224101E+03  0.79094270169E+02 0.  0.
        -24    2    1    2    0    0  0.14810913727E+02 -0.63789543321E+02  0.14073826695E+04  0.14112097496E+04  0.80613336557E+02 0.  0.
        -13    1    4    4    0    0 -0.13199548315E+02 -0.40626275688E+00 -0.37670011283E+03  0.37693151650E+03  0.00000000000E+00 0.  1.
         14    1    4    4    0    0  0.77618913452E+01 -0.98302260923E+01 -0.57470049290E+01  0.13780724507E+02  0.00000000000E+00 0. -1.
         11    1    5    5    0    0 -0.21792108992E+02  0.23435023493E+01  0.57039957961E+03  0.57082052208E+03  0.00000000000E+00 0. -1.
        -12    1    5    5    0    0  0.36603022719E+02 -0.66133045670E+02  0.83698308990E+03  0.84038922755E+03  0.00000000000E+00 0.  1.
          5    1    3    3  501    0  0.19118167332E+02 -0.12439030780E+02 -0.26670212848E+03  0.26770829562E+03  0.41800000000E+01 0.  1.
         -5    1    3    3    0  501 -0.28491424089E+02  0.86465062950E+02 -0.17370981085E+03  0.19616457158E+03  0.41800000000E+01 0.  1.
</event>
<event>
11    1  0.1704459E-009  0.1806881E+03  0.7561462E-02  0.1069088E+00
         22   -1    0    0    0    0  0.00000000000E+00  0.00000000000E+00  0.75748065831E+03  0.75748065831E+03  0.00000000000E+00 0. -1.
         22   -1    0    0    0    0 -0.00000000000E+00 -0.00000000000E+00 -0.78814191189E+03  0.78814191189E+03  0.00000000000E+00 0. -1.
         25    2    1    2    0    0  0.96203754775E+02 -0.62469291855E+02 -0.36142084137E+03  0.39929245702E+03  0.12510742102E+03 0.  0.
        -24    2    1    2    0    0 -0.83457538201E+02  0.12521619448E+03 -0.38602668816E+03  0.42203428899E+03  0.80324847111E+02 0.  0.
         24    2    1    2    0    0 -0.12746216574E+02 -0.62746902627E+02  0.71678627596E+03  0.72429582419E+03  0.81989241469E+02 0.  0.
        -11    1    5    5    0    0  0.31108311951E+01 -0.48603255090E+02  0.16344741470E+03  0.17054914555E+03  0.00000000000E+00 0.  1.
         12    1    5    5    0    0 -0.15857047769E+02 -0.14143647537E+02  0.55333886126E+03  0.55374667864E+03  0.00000000000E+00 0. -1.
         13    1    4    4    0    0 -0.70493267127E+02  0.64268338527E+02 -0.30651223643E+03  0.32101319463E+03  0.00000000000E+00 0. -1.
        -14    1    4    4    0    0 -0.12964271075E+02  0.60947855955E+02 -0.79514451731E+02  0.10102109435E+03  0.00000000000E+00 0.  1.
          5    1    3    3  501    0  0.71724872692E+02 -0.68558241133E+02 -0.11668187186E+03  0.15322147829E+03  0.41800000000E+01 0. -1.
         -5    1    3    3    0  501  0.24478882083E+02  0.60889492776E+01 -0.24473896952E+03  0.24607097873E+03  0.41800000000E+01 0. -1.
</event>
<event>
11    1  0.1769841E-009  0.7681231E+03  0.7561462E-02  0.8937528E-01
         22   -1    0    0    0    0  0.00000000000E+00  0.00000000000E+00  0.76332160477E+03  0.76332160477E+03  0.00000000000E+00 0. -1.
         22   -1    0    0    0    0 -0.00000000000E+00 -0.00000000000E+00 -0.16524915161E+04  0.16524915161E+04  0.00000000000E+00 0. -1.
         25    2    1    2    0    0 -0.55836485872E+03 -0.49747383662E+03 -0.12156010964E+04  0.14326842887E+04  0.12508681835E+03 0.  0.
         24    2    1    2    0    0  0.62341439017E+03  0.52277239392E+03  0.32041038917E+03  0.87805772634E+03  0.79912925003E+02 0.  0.
        -24    2    1    2    0    0 -0.65049531453E+02 -0.25298557299E+02  0.60207958180E+01  0.10507110585E+03  0.78308548433E+02 0.  0.
        -11    1    4    4    0    0  0.13955081480E+03  0.16143121992E+03  0.74649675646E+02  0.22606866822E+03  0.00000000000E+00 0.  1.
         12    1    4    4    0    0  0.48386357537E+03  0.36134117400E+03  0.24576071352E+03  0.65198905812E+03  0.00000000000E+00 0. -1.
         11    1    5    5    0    0 -0.32684701966E+02  0.63690979304E+01 -0.31821667329E+02  0.46059457906E+02  0.00000000000E+00 0. -1.
        -12    1    5    5    0    0 -0.32364829487E+02 -0.31667655230E+02  0.37842463147E+02  0.59011647940E+02  0.00000000000E+00 0.  1.
          5    1    3    3  501    0 -0.94658442577E+01 -0.22668261750E+02 -0.13141827436E+02  0.28171480732E+02  0.41800000000E+01 0.  1.
         -5    1    3    3    0  501 -0.54889901446E+03 -0.47480557487E+03 -0.12024592689E+04  0.14045128080E+04  0.41800000000E+01 0.  1.
</event>
<event>
11    1  0.1704459E-009  0.2251062E+03  0.7561462E-02  0.1038065E+00
         22   -1    0    0    0    0  0.00000000000E+00  0.00000000000E+00  0.39001245049E+03  0.39001245049E+03  0.00000000000E+00 0.  1.
         22   -1    0    0    0    0 -0.00000000000E+00 -0.00000000000E+00 -0.34875821045E+03  0.34875821045E+03  0.00000000000E+00 0.  1.
         25    2    1    2    0    0  0.33617652447E+02 -0.17900241699E+03 -0.15081426199E+03  0.26751643004E+03  0.12509231343E+03 0.  0.
        -24    2    1    2    0    0 -0.24553695138E+02  0.19298078502E+03 -0.49155855661E+02  0.21647213285E+03  0.81236807085E+02 0.  0.
         24    2    1    2    0    0 -0.90639573082E+01 -0.13978368031E+02  0.24122435769E+03  0.25478209804E+03  0.80294312656E+02 0.  0.
        -13    1    5    5    0    0 -0.17548413396E+02 -0.26620069193E+02  0.23678663746E+03  0.23892359987E+03  0.00000000000E+00 0.  1.
         14    1    5    5    0    0  0.84844560882E+01  0.12641701161E+02  0.44377202308E+01  0.15858498170E+02  0.00000000000E+00 0. -1.
         13    1    4    4    0    0  0.27165057776E+02  0.66225992917E+02 -0.32325547243E+02  0.78541476344E+02  0.00000000000E+00 0. -1.
        -14    1    4    4    0    0 -0.51718752914E+02  0.12675479210E+03 -0.16830308418E+02  0.13793065651E+03  0.00000000000E+00 0.  1.
          5    1    3    3  501    0 -0.18622373433E+02 -0.14843600273E+02  0.14935085274E+02  0.28419261663E+02  0.41800000000E+01 0.  1.
         -5    1    3    3    0  501  0.52240025880E+02 -0.16415881672E+03 -0.16574934726E+03  0.23909716838E+03  0.41800000000E+01 0.  1.
</event>
<event>
11    1  0.1704459E-009  0.1316953E+03  0.7561462E-02  0.1117203E+00
         22   -1    0    0    0    0  0.00000000000E+00  0.00000000000E+00  0.10014838266E+03  0.10014838266E+03  0.00000000000E+00 0. -1.
         22   -1    0    0    0    0 -0.00000000000E+00 -0.00000000000E+00 -0.90828917083E+03  0.90828917083E+03  0.00000000000E+00 0. -1.
         25    2    1    2    0    0 -0.13616372297E+02 -0.43244024957E+02 -0.57119992969E+03  0.58649153006E+03  0.12508998310E+03 0.  0.
         24    2    1    2    0    0  0.33856379122E+01  0.37570670811E+02 -0.30252679105E+03  0.31698075223E+03  0.86783178835E+02 0.  0.
        -24    2    1    2    0    0  0.10230734385E+02  0.56733541458E+01  0.65585932567E+02  0.10496527120E+03  0.81113123065E+02 0.  0.
        -11    1    4    4    0    0  0.69737427816E+01 -0.27316260045E+02 -0.67894034838E+02  0.73514700011E+02  0.00000000000E+00 0.  1.
         12    1    4    4    0    0 -0.35881048694E+01  0.64886930856E+02 -0.23463275621E+03  0.24346605221E+03  0.00000000000E+00 0. -1.
         13    1    5    5    0    0  0.52914910369E+00  0.31337238095E+02 -0.26169031558E+01  0.31450765846E+02  0.00000000000E+00 0. -1.
        -14    1    5    5    0    0  0.97015852815E+01 -0.25663883949E+02  0.68202835723E+02  0.73514505351E+02  0.00000000000E+00 0.  1.
          5    1    3    3  501    0 -0.25999763559E+02  0.98451009884E+01 -0.47506985482E+03  0.47590099083E+03  0.41800000000E+01 0. -1.
         -5    1    3    3    0  501  0.12383391262E+02 -0.53089125946E+02 -0.96130074871E+02  0.11059053923E+03  0.41800000000E+01 0. -1.
</event>
<event>
11    1  0.1704459E-009  0.2209257E+03  0.7561462E-02  0.1040639E+00
         22   -1    0    0    0    0  0.00000000000E+00  0.00000000000E+00  0.15509914586E+03  0.15509914586E+03  0.00000000000E+00 0. -1.
         22   -1    0    0    0    0 -0.00000000000E+00 -0.00000000000E+00 -0.59246985688E+03  0.59246985688E+03  0.00000000000E+00 0.  1.
         25    2    1    2    0    0  0.17844512892E+02 -0.74530954292E+02 -0.11954689445E+03  0.18924146826E+03  0.12509030157E+03 0.  0.
        -24    2    1    2    0    0 -0.21231662945E+03  0.24935704970E+01 -0.23047613784E+03  0.31950221244E+03  0.62272342202E+02 0.  0.
         24    2    1    2    0    0  0.19447211656E+03  0.72037383795E+02 -0.87347678728E+02  0.23882532205E+03  0.79994554114E+02 0.  0.
        -13    1    5    5    0    0  0.20194628070E+03  0.71779744054E+02 -0.87089689383E+02  0.23134227011E+03  0.00000000000E+00 0.  1.
         14    1    5    5    0    0 -0.74741641354E+01  0.25763974032E+00 -0.25798934476E+00  0.74830519349E+01  0.00000000000E+00 0. -1.
         11    1    4    4    0    0 -0.35573717620E+02 -0.27415024857E+01 -0.10343805977E+02  0.37148345095E+02  0.00000000000E+00 0. -1.
        -12    1    4    4    0    0 -0.17674291183E+03  0.52350729827E+01 -0.22013233186E+03  0.28235386734E+03  0.00000000000E+00 0.  1.
          5    1    3    3  501    0  0.23764690757E+02 -0.35549411380E+01  0.20635332810E+02  0.31948200160E+02  0.41800000000E+01 0. -1.
         -5    1    3    3    0  501 -0.59201778651E+01 -0.70976013154E+02 -0.14018222726E+03  0.15729326810E+03  0.41800000000E+01 0. -1.
</event>
<event>
11    1  0.1704459E-009  0.3464007E+03  0.7561462E-02  0.9822653E-01
         22   -1    0    0    0    0  0.00000000000E+00  0.00000000000E+00  0.49797420291E+03  0.49797420291E+03  0.00000000000E+00 0. -1.
         22   -1    0    0    0    0 -0.00000000000E+00 -0.00000000000E+00 -0.15615166485E+04  0.15615166485E+04  0.00000000000E+00 0.  1.
         25    2    1    2    0    0  0.54458266927E+02 -0.31357256779E+03 -0.11733042941E+04  0.12221228452E+04  0.12509126304E+03 0.  0.
         24    2    1    2    0    0 -0.37123602777E+03  0.31554229658E+03  0.12714439502E+03  0.50989662967E+03  0.80285406637E+02 0.  0.
        -24    2    1    2    0    0  0.31677776084E+03 -0.19697287856E+01 -0.17382546491E+02  0.32747137653E+03  0.81137660346E+02 0.  0.
        -11    1    4    4    0    0 -0.11636185472E+03  0.93570654400E+02  0.77677466752E+02  0.16831321232E+03  0.00000000000E+00 0.  1.
         12    1    4    4    0    0 -0.25487417305E+03  0.22197164218E+03  0.49466928267E+02  0.34158341736E+03  0.00000000000E+00 0. -1.
         13    1    5    5    0    0  0.26538248284E+03 -0.34649214438E+01 -0.44865020279E+02  0.26917046258E+03  0.00000000000E+00 0. -1.
        -14    1    5    5    0    0  0.51395278006E+02  0.14951926582E+01  0.27482473789E+02  0.58300913954E+02  0.00000000000E+00 0.  1.
          5    1    3    3  501    0 -0.39966753437E+01 -0.18736115218E+03 -0.84506413567E+03  0.86560443654E+03  0.41800000000E+01 0. -1.
         -5    1    3    3    0  501  0.58454942270E+02 -0.12621141561E+03 -0.32824015847E+03  0.35651840870E+03  0.41800000000E+01 0. -1.
</event>
<event>
11    1  0.1704459E-009  0.1452931E+03  0.7561462E-02  0.1101788E+00
         22   -1    0    0    0    0  0.00000000000E+00  0.00000000000E+00  0.33033992912E+03  0.33033992912E+03  0.00000000000E+00 0. -1.
         22   -1    0    0    0    0 -0.00000000000E+00 -0.00000000000E+00 -0.67380155716E+03  0.67380155716E+03  0.00000000000E+00 0.  1.
         25    2    1    2    0    0 -0.53981492752E+02 -0.36414568386E+01 -0.26739903677E+03  0.30012900980E+03  0.12509162998E+03 0.  0.
         24    2    1    2    0    0  0.67909067505E+02 -0.65514387986E+02 -0.37067760608E+03  0.39071485032E+03  0.79702133794E+02 0.  0.
        -24    2    1    2    0    0 -0.13927574753E+02  0.69155844825E+02  0.29461501481E+03  0.31329762615E+03  0.79880456874E+02 0.  0.
        -13    1    4    4    0    0  0.81797422312E+02 -0.70613756398E+02 -0.33776469677E+03  0.35462954089E+03  0.00000000000E+00 0.  1.
         14    1    4    4    0    0 -0.13888354808E+02  0.50993684116E+01 -0.32912909311E+02  0.36085309431E+02  0.00000000000E+00 0. -1.
         13    1    5    5    0    0 -0.75007874168E+01  0.85228499962E+01  0.20257978768E+03  0.20289768643E+03  0.00000000000E+00 0. -1.
        -14    1    5    5    0    0 -0.64267873360E+01  0.60632994829E+02  0.92035227131E+02  0.11039993972E+03  0.00000000000E+00 0.  1.
          5    1    3    3  501    0 -0.57998637641E+02 -0.30710270392E+02 -0.26420124276E+03  0.27226224812E+03  0.41800000000E+01 0. -1.
         -5    1    3    3    0  501  0.40171448890E+01  0.27068813554E+02 -0.31977940157E+01  0.27866761686E+02  0.41800000000E+01 0. -1.
</event>
<event>
11    1  0.1704459E-009  0.3656402E+03  0.7561462E-02  0.9756958E-01
         22   -1    0    0    0    0  0.00000000000E+00  0.00000000000E+00  0.13602662754E+03  0.13602662754E+03  0.00000000000E+00 0. -1.
         22   -1    0    0    0    0 -0.00000000000E+00 -0.00000000000E+00 -0.17483971903E+04  0.17483971903E+04  0.00000000000E+00 0. -1.
         25    2    1    2    0    0  0.20526782818E+03 -0.31573480694E+03 -0.11719503888E+04  0.12373110317E+04  0.12509007077E+03 0.  0.
         24    2    1    2    0    0 -0.23467510073E+03  0.18186812971E+03 -0.34821062074E+03  0.46332572469E+03  0.72606275609E+02 0.  0.
        -24    2    1    2    0    0  0.29407272550E+02  0.13386667723E+03 -0.92209553195E+02  0.18378706141E+03  0.80560581489E+02 0.  0.
        -11    1    4    4    0    0 -0.11857300449E+02  0.19726157394E+02 -0.61458162672E+02  0.65626386602E+02  0.00000000000E+00 0.  1.
         12    1    4    4    0    0 -0.22281780028E+03  0.16214197231E+03 -0.28675245807E+03  0.39769933809E+03  0.00000000000E+00 0. -1.
         13    1    5    5    0    0  0.33817134558E+02  0.34475730122E+02 -0.64379538083E+02  0.80479186632E+02  0.00000000000E+00 0. -1.
        -14    1    5    5    0    0 -0.44098620081E+01  0.99390947109E+02 -0.27830015111E+02  0.10330787478E+03  0.00000000000E+00 0.  1.
          5    1    3    3  501    0  0.13596511208E+03 -0.96425301710E+02 -0.50223800478E+03  0.52919262689E+03  0.41800000000E+01 0. -1.
         -5    1    3    3    0  501  0.69302716099E+02 -0.21930950523E+03 -0.66971238403E+03  0.70811840483E+03  0.41800000000E+01 0. -1.
</event>
<event>
11    1  0.1704459E-009  0.2447987E+03  0.7561462E-02  0.1026707E+00
         22   -1    0    0    0    0  0.00000000000E+00  0.00000000000E+00  0.10848152993E+04  0.10848152993E+04  0.00000000000E+00 0. -1.
         22   -1    0    0    0    0 -0.00000000000E+00 -0.00000000000E+00 -0.65175902057E+03  0.65175902057E+03  0.00000000000E+00 0. -1.
         25    2    1    2    0    0 -0.10386382278E+03 -0.16996530378E+03 -0.51043570545E+03  0.56202214730E+03  0.12509351097E+03 0.  0.
         24    2    1    2    0    0  0.12360105863E+03  0.31255584028E+03  0.17161622455E+03  0.38575373437E+03  0.79908948588E+02 0.  0.
        -24    2    1    2    0    0 -0.19737235856E+02 -0.14259053650E+03  0.77187575965E+03  0.78879843821E+03  0.75426574995E+02 0.  0.
        -13    1    4    4    0    0  0.11285462386E+02  0.55970458520E+02  0.63826269833E+02  0.85637880689E+02  0.00000000000E+00 0.  1.
         14    1    4    4    0    0  0.11231559625E+03  0.25658538176E+03  0.10778995471E+03  0.30011585368E+03  0.00000000000E+00 0. -1.
         11    1    5    5    0    0 -0.41089905107E+02 -0.38687940262E+02  0.27033619026E+03  0.27616443070E+03  0.00000000000E+00 0. -1.
        -12    1    5    5    0    0  0.21352669252E+02 -0.10390259623E+03  0.50153956939E+03  0.51263400751E+03  0.00000000000E+00 0.  1.
          5    1    3    3  501    0 -0.70298351795E+02 -0.16627139211E+03 -0.31030119017E+03  0.35901578673E+03  0.41800000000E+01 0.  1.
         -5    1    3    3    0  501 -0.33565470984E+02 -0.36939116696E+01 -0.20013451528E+03  0.20300636057E+03  0.41800000000E+01 0.  1.
</event>
<event>
11    1  0.1704459E-009  0.1255701E+04  0.7561462E-02  0.8467806E-01
         22   -1    0    0    0    0  0.00000000000E+00  0.00000000000E+00  0.32268577488E+03  0.32268577488E+03  0.00000000000E+00 0. -1.
         22   -1    0    0    0    0 -0.00000000000E+00 -0.00000000000E+00 -0.12216111302E+04  0.12216111302E+04  0.00000000000E+00 0. -1.
         25    2    1    2    0    0 -0.42721646410E+03  0.25119509445E+02 -0.94220287318E+03  0.10423736483E+04  0.12510664008E+03 0.  0.
         24    2    1    2    0    0  0.36601207747E+03  0.38913378424E+01  0.92730527830E+02  0.38593373039E+03  0.79786653611E+02 0.  0.
        -24    2    1    2    0    0  0.61204386621E+02 -0.29010847287E+02 -0.49453009943E+02  0.11598952641E+03  0.80127172934E+02 0.  0.
        -11    1    4    4    0    0  0.30864735362E+02 -0.17798388448E+02 -0.54159923509E+01  0.36038139428E+02  0.00000000000E+00 0.  1.
         12    1    4    4    0    0  0.33514734211E+03  0.21689726290E+02  0.98146520181E+02  0.34989559096E+03  0.00000000000E+00 0. -1.
         11    1    5    5    0    0  0.66619166234E+02  0.81588986434E+01 -0.35436533222E+02  0.75897488915E+02  0.00000000000E+00 0. -1.
        -12    1    5    5    0    0 -0.54147796131E+01 -0.37169745931E+02 -0.14016476721E+02  0.40092037495E+02  0.00000000000E+00 0.  1.
          5    1    3    3  501    0 -0.30453241132E+03  0.73746356175E+02 -0.64067926780E+03  0.71320818221E+03  0.41800000000E+01 0. -1.
         -5    1    3    3    0  501 -0.12268405278E+03 -0.48626846730E+02 -0.30152360539E+03  0.32916546604E+03  0.41800000000E+01 0. -1.
</event>
<event>
11    1  0.1704459E-009  0.1923462E+03  0.7561462E-02  0.1060072E+00
         22   -1    0    0    0    0  0.00000000000E+00  0.00000000000E+00  0.17487002277E+04  0.17487002277E+04  0.00000000000E+00 0. -1.
         22   -1    0    0    0    0 -0.00000000000E+00 -0.00000000000E+00 -0.24117601098E+03  0.24117601098E+03  0.00000000000E+00 0.  1.
         25    2    1    2    0    0 -0.13053714388E+03 -0.15855314795E+02 -0.47500581670E+02  0.18759849787E+03  0.12508218979E+03 0.  0.
         24    2    1    2    0    0  0.16073848096E+03 -0.38333066517E+01 -0.55716006062E+02  0.18911706384E+03  0.82519312908E+02 0.  0.
        -24    2    1    2    0    0 -0.30201337082E+02  0.19688621446E+02  0.16107408044E+04  0.16131606769E+04  0.80632921321E+02 0.  0.
        -13    1    4    4    0    0  0.99049088509E+02  0.71314992519E+01 -0.74002895792E+02  0.12384671494E+03  0.00000000000E+00 0.  1.
         14    1    4    4    0    0  0.61689392455E+02 -0.10964805904E+02  0.18286889729E+02  0.65270348903E+02  0.00000000000E+00 0. -1.
         13    1    5    5    0    0 -0.22792649564E+02 -0.44061464011E+01  0.14697997524E+04  0.14699830718E+04  0.00000000000E+00 0. -1.
        -14    1    5    5    0    0 -0.74086875180E+01  0.24094767847E+02  0.14094105196E+03  0.14317760515E+03  0.00000000000E+00 0.  1.
          5    1    3    3  501    0 -0.60036025483E+02  0.27503133997E+02 -0.75249920624E+02  0.10020364110E+03  0.41800000000E+01 0.  1.
         -5    1    3    3    0  501 -0.70501118399E+02 -0.43358448791E+02  0.27749338954E+02  0.87394856768E+02  0.41800000000E+01 0.  1.
</event>
<event>
11    1  0.1704459E-009  0.6336311E+03  0.7561462E-02  0.9136264E-01
         22   -1    0    0    0    0  0.00000000000E+00  0.00000000000E+00  0.36751199120E+03  0.36751199120E+03  0.00000000000E+00 0. -1.
         22   -1    0    0    0    0 -0.00000000000E+00 -0.00000000000E+00 -0.17563179496E+04  0.17563179496E+04  0.00000000000E+00 0. -1.
         25    2    1    2    0    0  0.56659600930E+03  0.39418730416E+03 -0.86964722515E+03  0.11172952619E+04  0.12509091698E+03 0.  0.
        -24    2    1    2    0    0 -0.29157163983E+03 -0.47457609749E+03 -0.30383971468E+03  0.63977793192E+03  0.82223697881E+02 0.  0.
         24    2    1    2    0    0 -0.27502436948E+03  0.80388793329E+02 -0.21531901854E+03  0.36675674696E+03  0.77765479482E+02 0.  0.
        -11    1    5    5    0    0 -0.16299739824E+03  0.14567220978E+02 -0.14690974893E+03  0.21991550670E+03  0.00000000000E+00 0.  1.
         12    1    5    5    0    0 -0.11202697124E+03  0.65821572351E+02 -0.68409269613E+02  0.14684124026E+03  0.00000000000E+00 0. -1.
         13    1    4    4    0    0 -0.20932925662E+03 -0.28114159624E+03 -0.21772094788E+03  0.41262785407E+03  0.00000000000E+00 0. -1.
        -14    1    4    4    0    0 -0.82242383209E+02 -0.19343450125E+03 -0.86118766800E+02  0.22715007784E+03  0.00000000000E+00 0.  1.
          5    1    3    3  501    0  0.25053663014E+03  0.23860060850E+03 -0.48395640362E+03  0.59492026896E+03  0.41800000000E+01 0.  1.
         -5    1    3    3    0  501  0.31605937916E+03  0.15558669566E+03 -0.38569082153E+03  0.52237499292E+03  0.41800000000E+01 0.  1.
</event>
<event>
11    1  0.1704459E-009  0.3124371E+03  0.7561462E-02  0.9950608E-01
         22   -1    0    0    0    0  0.00000000000E+00  0.00000000000E+00  0.49143275243E+03  0.49143275243E+03  0.00000000000E+00 0. -1.
         22   -1    0    0    0    0 -0.00000000000E+00 -0.00000000000E+00 -0.35157987335E+03  0.35157987335E+03  0.00000000000E+00 0. -1.
         25    2    1    2    0    0 -0.21294858978E+03 -0.18584891104E+03 -0.11323303108E+03  0.32917639768E+03  0.12509381216E+03 0.  0.
         24    2    1    2    0    0  0.27578527486E+03  0.12447165681E+03  0.11765926483E+03  0.33464666818E+03  0.81203317332E+02 0.  0.
        -24    2    1    2    0    0 -0.62836685082E+02  0.61377254231E+02  0.13542664533E+03  0.17918955991E+03  0.77800422791E+02 0.  0.
        -11    1    4    4    0    0  0.38065911079E+02  0.52557917535E+02  0.22604961209E+02  0.68719229864E+02  0.00000000000E+00 0.  1.
         12    1    4    4    0    0  0.23771936378E+03  0.71913739277E+02  0.95054303621E+02  0.26592743832E+03  0.00000000000E+00 0. -1.
         13    1    5    5    0    0 -0.37726416705E+02 -0.11115933786E+02  0.58934995734E+02  0.70853230155E+02  0.00000000000E+00 0. -1.
        -14    1    5    5    0    0 -0.25110268377E+02  0.72493188017E+02  0.76491649599E+02  0.10833632976E+03  0.00000000000E+00 0.  1.
          5    1    3    3  501    0 -0.92457468506E+02 -0.11437454077E+03  0.28968530408E+01  0.14715904055E+03  0.41800000000E+01 0. -1.
         -5    1    3    3    0  501 -0.12049112127E+03 -0.71474370276E+02 -0.11612988412E+03  0.18201735713E+03  0.41800000000E+01 0. -1.
</event>
<event>
11    1  0.1704459E-009  0.1277506E+03  0.7561462E-02  0.1122064E+00
         22   -1    0    0    0    0  0.00000000000E+00  0.00000000000E+00  0.12299810597E+04  0.12299810597E+04  0.00000000000E+00 0. -1.
         22   -1    0    0    0    0 -0.00000000000E+00 -0.00000000000E+00 -0.39155790248E+02  0.39155790248E+02  0.00000000000E+00 0.  1.
         25    2    1    2    0    0  0.51283839541E+01 -0.19373679535E+02  0.11815268711E+03  0.17322932579E+03  0.12508677812E+03 0.  0.
         24    2    1    2    0    0  0.61442589222E+02 -0.10304598706E+02  0.33075047124E+03  0.34609574942E+03  0.80653685725E+02 0.  0.
        -24    2    1    2    0    0 -0.66570973176E+02  0.29678278241E+02  0.74192211106E+03  0.74981177469E+03  0.80354115743E+02 0.  0.
        -13    1    4    4    0    0  0.19889035098E+02  0.11060808675E+02  0.15815650671E+02  0.27713715230E+02  0.00000000000E+00 0.  1.
         14    1    4    4    0    0  0.41553554124E+02 -0.21365407381E+02  0.31493482056E+03  0.31838203419E+03  0.00000000000E+00 0. -1.
         11    1    5    5    0    0 -0.81445064228E+02  0.24205796972E+02  0.48385600504E+03  0.49125945559E+03  0.00000000000E+00 0. -1.
        -12    1    5    5    0    0  0.14874091051E+02  0.54724812686E+01  0.25806610602E+03  0.25855231910E+03  0.00000000000E+00 0.  1.
          5    1    3    3  501    0 -0.33788775150E+02  0.36754444623E+02  0.81330078010E+02  0.95522900474E+02  0.41800000000E+01 0. -1.
         -5    1    3    3    0  501  0.38917159104E+02 -0.56128124158E+02  0.36822609101E+02  0.77706425315E+02  0.41800000000E+01 0. -1.
</event>
<event>
11    1  0.1704459E-009  0.7727856E+03  0.7561462E-02  0.8931422E-01
         22   -1    0    0    0    0  0.00000000000E+00  0.00000000000E+00  0.42613694483E+03  0.42613694483E+03  0.00000000000E+00 0. -1.
         22   -1    0    0    0    0 -0.00000000000E+00 -0.00000000000E+00 -0.17766701920E+04  0.17766701920E+04  0.00000000000E+00 0. -1.
         25    2    1    2    0    0  0.36939988826E+03  0.61850458981E+03 -0.69878577718E+03  0.10114113098E+04  0.12508824905E+03 0.  0.
        -24    2    1    2    0    0 -0.47186688229E+03 -0.66696507710E+03 -0.65901020197E+03  0.10528170784E+04  0.81416126547E+02 0.  0.
         24    2    1    2    0    0  0.10246699403E+03  0.48460487293E+02  0.72627319485E+01  0.13857874867E+03  0.79394071638E+02 0.  0.
        -11    1    5    5    0    0  0.45222329781E+01  0.30711008620E+02  0.21870119912E+02  0.37972605738E+02  0.00000000000E+00 0.  1.
         12    1    5    5    0    0  0.97944761057E+02  0.17749478673E+02 -0.14607387964E+02  0.10060614293E+03  0.00000000000E+00 0. -1.
         11    1    4    4    0    0 -0.19026556334E+03 -0.20543531891E+03 -0.20957967990E+03  0.34975462410E+03  0.00000000000E+00 0. -1.
        -12    1    4    4    0    0 -0.28160131895E+03 -0.46152975819E+03 -0.44943052207E+03  0.70306245434E+03  0.00000000000E+00 0.  1.
          5    1    3    3  501    0  0.34572865873E+03  0.48628838368E+03 -0.57789253310E+03  0.83065152127E+03  0.41800000000E+01 0.  1.
         -5    1    3    3    0  501  0.23671229531E+02  0.13221620613E+03 -0.12089324408E+03  0.18075978849E+03  0.41800000000E+01 0.  1.
</event>
<event>
11    1  0.1704459E-009  0.1800588E+03  0.7561462E-02  0.1069595E+00
         22   -1    0    0    0    0  0.00000000000E+00  0.00000000000E+00  0.17414323041E+03  0.17414323041E+03  0.00000000000E+00 0. -1.
         22   -1    0    0    0    0 -0.00000000000E+00 -0.00000000000E+00 -0.36833827982E+03  0.36833827982E+03  0.00000000000E+00 0.  1.
         25    2    1    2    0    0  0.96938083417E+02 -0.69777835917E+02 -0.14990273349E+03  0.22887671125E+03  0.12509109099E+03 0.  0.
        -24    2    1    2    0    0 -0.41277261781E+02 -0.84605381801E+02  0.28196710075E+01  0.12545503703E+03  0.82880231664E+02 0.  0.
         24    2    1    2    0    0 -0.55660821636E+02  0.15438321772E+03 -0.47111986925E+02  0.18814976195E+03  0.79047382186E+02 0.  0.
        -13    1    5    5    0    0 -0.27107443035E+02  0.50128735086E+02 -0.55734856240E+02  0.79712469221E+02  0.00000000000E+00 0.  1.
         14    1    5    5    0    0 -0.28553378601E+02  0.10425448263E+03  0.86228693155E+01  0.10843729273E+03  0.00000000000E+00 0. -1.
         13    1    4    4    0    0 -0.76700190647E+01 -0.52365330906E+02  0.39609977146E+02  0.66105274849E+02  0.00000000000E+00 0. -1.
        -14    1    4    4    0    0 -0.33607242716E+02 -0.32240050895E+02 -0.36790306138E+02  0.59349762176E+02  0.00000000000E+00 0.  1.
          5    1    3    3  501    0 -0.15931887804E+02 -0.79902940112E+01 -0.80625448692E+02  0.82677719031E+02  0.41800000000E+01 0.  1.
         -5    1    3    3    0  501  0.11286997122E+03 -0.61787541906E+02 -0.69277284796E+02  0.14619899222E+03  0.41800000000E+01 0.  1.
</event>
<event>
11    1  0.1704459E-009  0.2377324E+03  0.7561462E-02  0.1030645E+00
         22   -1    0    0    0    0  0.00000000000E+00  0.00000000000E+00  0.60905860097E+03  0.60905860097E+03  0.00000000000E+00 0.  1.
         22   -1    0    0    0    0 -0.00000000000E+00 -0.00000000000E+00 -0.19143268167E+03  0.19143268167E+03  0.00000000000E+00 0. -1.
         25    2    1    2    0    0 -0.19957827835E+03  0.71279118557E+01  0.95559784067E+02  0.25428542807E+03  0.12508840985E+03 0.  0.
         24    2    1    2    0    0  0.20243315131E+03  0.35532171645E+02  0.89360822274E+01  0.22062416512E+03  0.79708548461E+02 0.  0.
        -24    2    1    2    0    0 -0.28548729517E+01 -0.42660083501E+02  0.31313005300E+03  0.32558168946E+03  0.78262209234E+02 0.  0.
        -11    1    4    4    0    0  0.27219517283E+02 -0.16434599048E+02 -0.16967016786E+02  0.36039947636E+02  0.00000000000E+00 0.  1.
         12    1    4    4    0    0  0.17521363402E+03  0.51966770693E+02  0.25903099014E+02  0.18458421748E+03  0.00000000000E+00 0. -1.
         13    1    5    5    0    0 -0.34887692755E+02 -0.12667790283E+01  0.93603830518E+02  0.99902116707E+02  0.00000000000E+00 0. -1.
        -14    1    5    5    0    0  0.32032819803E+02 -0.41393304473E+02  0.21952622248E+03  0.22567957275E+03  0.00000000000E+00 0.  1.
          5    1    3    3  501    0 -0.13168021078E+03  0.57079224339E+02  0.28245297455E+02  0.14633176344E+03  0.41800000000E+01 0. -1.
         -5    1    3    3    0  501 -0.67898067573E+02 -0.49951312483E+02  0.67314486612E+02  0.10795366463E+03  0.41800000000E+01 0. -1.
</event>
<event>
11    1  0.1704459E-009  0.3192587E+03  0.7561462E-02  0.9923546E-01
         22   -1    0    0    0    0  0.00000000000E+00  0.00000000000E+00  0.39564787651E+03  0.39564787651E+03  0.00000000000E+00 0.  1.
         22   -1    0    0    0    0 -0.00000000000E+00 -0.00000000000E+00 -0.42455604734E+03  0.42455604734E+03  0.00000000000E+00 0.  1.
         25    2    1    2    0    0  0.47923137847E+02 -0.53470623867E+02 -0.26997696184E+02  0.14673930431E+03  0.12509121900E+03 0.  0.
         24    2    1    2    0    0  0.13776538752E+03  0.29319859649E+03 -0.95380784565E+02  0.34585887680E+03  0.74673620567E+02 0.  0.
        -24    2    1    2    0    0 -0.18568852537E+03 -0.23972797263E+03  0.93470309911E+02  0.32760574275E+03  0.81480638991E+02 0.  0.
        -11    1    4    4    0    0  0.14081463560E+03  0.29467590466E+03 -0.98633952000E+02  0.34116170194E+03  0.00000000000E+00 0.  1.
         12    1    4    4    0    0 -0.30492480727E+01 -0.14773081678E+01  0.32531674343E+01  0.46971748516E+01  0.00000000000E+00 0. -1.
         13    1    5    5    0    0 -0.49727438056E+02 -0.11287393391E+03  0.98980197524E+01  0.12373889384E+03  0.00000000000E+00 0. -1.
        -14    1    5    5    0    0 -0.13596108731E+03 -0.12685403871E+03  0.83572290159E+02  0.20386684891E+03  0.00000000000E+00 0.  1.
          5    1    3    3  501    0  0.16162425006E+02 -0.26678361901E+02  0.50037996872E+02  0.59112033519E+02  0.41800000000E+01 0. -1.
         -5    1    3    3    0  501  0.31760712841E+02 -0.26792261966E+02 -0.77035693056E+02  0.87627270790E+02  0.41800000000E+01 0. -1.
</event>
<event>
11    1  0.1704459E-009  0.4643811E+03  0.7561462E-02  0.9476836E-01
         22   -1    0    0    0    0  0.00000000000E+00  0.00000000000E+00  0.77721090728E+03  0.77721090728E+03  0.00000000000E+00 0.  1.
         22   -1    0    0    0    0 -0.00000000000E+00 -0.00000000000E+00 -0.24351775297E+03  0.24351775297E+03  0.00000000000E+00 0.  1.
         25    2    1    2    0    0 -0.11583768798E+02 -0.15800673061E+03  0.54418534038E+02  0.20907089903E+03  0.12509577673E+03 0.  0.
        -24    2    1    2    0    0 -0.10344022363E+03  0.37273447628E+03  0.32050908070E+03  0.50975188114E+03  0.86545016299E+02 0.  0.
         24    2    1    2    0    0  0.11502399243E+03 -0.21472774567E+03  0.15876553958E+03  0.30190588009E+03  0.81253555493E+02 0.  0.
        -11    1    5    5    0    0  0.34196083540E+02 -0.10486061855E+03  0.29934496395E+02  0.11428558757E+03  0.00000000000E+00 0.  1.
         12    1    5    5    0    0  0.80827908889E+02 -0.10986712712E+03  0.12883104318E+03  0.18762029252E+03  0.00000000000E+00 0. -1.
         11    1    4    4    0    0 -0.81665016841E+02  0.27689692862E+03  0.18697112648E+03  0.34394663277E+03  0.00000000000E+00 0. -1.
        -12    1    4    4    0    0 -0.21775206790E+02  0.95837547658E+02  0.13353795421E+03  0.16580524837E+03  0.00000000000E+00 0.  1.
          5    1    3    3  501    0 -0.54237460680E+02 -0.63635805018E+02  0.63429120470E+02  0.10503305930E+03  0.41800000000E+01 0.  1.
         -5    1    3    3    0  501  0.42653691881E+02 -0.94370925590E+02 -0.90105864315E+01  0.10403783973E+03  0.41800000000E+01 0.  1.
</event>
<event>
11    1  0.1704459E-009  0.1669024E+03  0.7561462E-02  0.1080759E+00
         22   -1    0    0    0    0  0.00000000000E+00  0.00000000000E+00  0.78248090584E+02  0.78248090584E+02  0.00000000000E+00 0. -1.
         22   -1    0    0    0    0 -0.00000000000E+00 -0.00000000000E+00 -0.73699891096E+03  0.73699891096E+03  0.00000000000E+00 0.  1.
         25    2    1    2    0    0 -0.34814314783E+02 -0.10152070833E+03 -0.33149180057E+03  0.37020738503E+03  0.12509277899E+03 0.  0.
        -24    2    1    2    0    0 -0.53070799814E+02  0.12526130832E+03 -0.16449324212E+03  0.22838684597E+03  0.81213419797E+02 0.  0.
         24    2    1    2    0    0  0.87885114596E+02 -0.23740599986E+02 -0.16276577770E+03  0.21665277055E+03  0.11026475022E+03 0.  0.
        -13    1    5    5    0    0  0.20311898539E+02  0.19895221605E+02 -0.12426422765E+03  0.12747545387E+03  0.00000000000E+00 0.  1.
         14    1    5    5    0    0  0.67573216058E+02 -0.43635821591E+02 -0.38501550047E+02  0.89177316680E+02  0.00000000000E+00 0. -1.
         13    1    4    4    0    0  0.52770998661E+01  0.34754285660E+02 -0.92231936813E+02  0.98703790824E+02  0.00000000000E+00 0. -1.
        -14    1    4    4    0    0 -0.58347899680E+02  0.90507022657E+02 -0.72261305303E+02  0.12968305514E+03  0.00000000000E+00 0.  1.
          5    1    3    3  501    0  0.40897500430E+02 -0.12770291794E+02 -0.53272874227E+02  0.68492024516E+02  0.41800000000E+01 0. -1.
         -5    1    3    3    0  501 -0.75711815212E+02 -0.88750416536E+02 -0.27821892634E+03  0.30171536052E+03  0.41800000000E+01 0. -1.
</event>
<event>
11    1  0.1704459E-009  0.3213260E+03  0.7561462E-02  0.9915488E-01
         22   -1    0    0    0    0  0.00000000000E+00  0.00000000000E+00  0.72886686374E+03  0.72886686374E+03  0.00000000000E+00 0.  1.
         22   -1    0    0    0    0 -0.00000000000E+00 -0.00000000000E+00 -0.24756485240E+03  0.24756485240E+03  0.00000000000E+00 0.  1.
         25    2    1    2    0    0  0.29421803626E+03  0.29357291757E+02 -0.11871765667E+02  0.32126993516E+03  0.12508928401E+03 0.  0.
         24    2    1    2    0    0 -0.29688242242E+03 -0.98035499970E+01  0.24901060966E+03  0.39599037372E+03  0.81035856415E+02 0.  0.
        -24    2    1    2    0    0  0.26643861575E+01 -0.19553741760E+02  0.24416316735E+03  0.25917140727E+03  0.84644658926E+02 0.  0.
        -13    1    4    4    0    0 -0.21894305890E+03 -0.99642669376E+01  0.22578183352E+03  0.31466297209E+03  0.00000000000E+00 0.  1.
         14    1    4    4    0    0 -0.77939363513E+02  0.16071694063E+00  0.23228776135E+02  0.81327401628E+02  0.00000000000E+00 0. -1.
         11    1    5    5    0    0  0.42792353329E+02 -0.81025334647E+01  0.99604284368E+02  0.10870993522E+03  0.00000000000E+00 0. -1.
        -12    1    5    5    0    0 -0.40127967172E+02 -0.11451208295E+02  0.14455888298E+03  0.15046147204E+03  0.00000000000E+00 0.  1.
          5    1    3    3  501    0  0.17986225688E+03  0.40407463402E+02 -0.63804824149E+02  0.19511976459E+03  0.41800000000E+01 0. -1.
         -5    1    3    3    0  501  0.11435577938E+03 -0.11050171645E+02  0.51933058482E+02  0.12615017057E+03  0.41800000000E+01 0. -1.
</event>
<event>
11    1  0.1704459E-009  0.4774450E+03  0.7561462E-02  0.9445383E-01
         22   -1    0    0    0    0  0.00000000000E+00  0.00000000000E+00  0.41293404942E+04  0.41293404942E+04  0.00000000000E+00 0. -1.
         22   -1    0    0    0    0 -0.00000000000E+00 -0.00000000000E+00 -0.20593736075E+04  0.20593736075E+04  0.00000000000E+00 0. -1.
         25    2    1    2    0    0 -0.41494355948E+03  0.19995402523E+03 -0.20112385152E+04  0.20670963381E+04  0.12508851409E+03 0.  0.
         24    2    1    2    0    0  0.42141265174E+03 -0.23392979408E+03  0.35634357303E+04  0.35967641619E+04  0.79539051314E+02 0.  0.
        -24    2    1    2    0    0 -0.64690922585E+01  0.33975768849E+02  0.51776967151E+03  0.52485360162E+03  0.78674445529E+02 0.  0.
        -13    1    4    4    0    0  0.20819129994E+02 -0.95854146208E+01  0.80605191306E+02  0.83800436829E+02  0.00000000000E+00 0.  1.
         14    1    4    4    0    0  0.40059352174E+03 -0.22434437946E+03  0.34828305390E+04  0.35129637251E+04  0.00000000000E+00 0. -1.
         11    1    5    5    0    0 -0.31254160559E+02  0.43268632651E+02  0.24199904535E+03  0.24781552629E+03  0.00000000000E+00 0. -1.
        -12    1    5    5    0    0  0.24785068301E+02 -0.92928638023E+01  0.27577062616E+03  0.27703807533E+03  0.00000000000E+00 0.  1.
          5    1    3    3  501    0 -0.16553310106E+02 -0.22934687029E+01 -0.23109271890E+03  0.23173387582E+03  0.41800000000E+01 0. -1.
         -5    1    3    3    0  501 -0.39839024937E+03  0.20224749393E+03 -0.17801457963E+04  0.18353624623E+04  0.41800000000E+01 0. -1.
</event>
<event>
11    1  0.1927557E-009  0.1887988E+04  0.7561462E-02  0.8114511E-01
         22   -1    0    0    0    0  0.00000000000E+00  0.00000000000E+00  0.39688220395E+03  0.39688220395E+03  0.00000000000E+00 0. -1.
         22   -1    0    0    0    0 -0.00000000000E+00 -0.00000000000E+00 -0.22453128061E+04  0.22453128061E+04  0.00000000000E+00 0. -1.
         25    2    1    2    0    0 -0.24458147409E+03  0.48295073301E+03 -0.19596242951E+04  0.20368692048E+04  0.12508905441E+03 0.  0.
         24    2    1    2    0    0  0.18744799497E+03 -0.24118102173E+03 -0.11520695268E+02  0.31698464426E+03  0.83913659297E+02 0.  0.
        -24    2    1    2    0    0  0.57133479119E+02 -0.24176971128E+03  0.12271438816E+03  0.28834116105E+03  0.79780801977E+02 0.  0.
        -13    1    4    4    0    0  0.77502645664E+02 -0.13669464072E+03 -0.41164888719E+02  0.16243962863E+03  0.00000000000E+00 0.  1.
         14    1    4    4    0    0  0.10994534930E+03 -0.10448638101E+03  0.29644193452E+02  0.15454501563E+03  0.00000000000E+00 0. -1.
         11    1    5    5    0    0  0.22304808403E+02 -0.15483022177E+03  0.35589323691E+02  0.16042600167E+03  0.00000000000E+00 0. -1.
        -12    1    5    5    0    0  0.34828670717E+02 -0.86939489516E+02  0.87125064467E+02  0.12791515938E+03  0.00000000000E+00 0.  1.
          5    1    3    3  501    0 -0.20742849305E+02  0.50549459324E+02 -0.94560399328E+02  0.10929160607E+03  0.41800000000E+01 0.  1.
         -5    1    3    3    0  501 -0.22383862478E+03  0.43240127369E+03 -0.18650638958E+04  0.19275775987E+04  0.41800000000E+01 0.  1.
</event>
<event>
11    1  0.1704459E-009  0.1962339E+03  0.7561462E-02  0.1057219E+00
         22   -1    0    0    0    0  0.00000000000E+00  0.00000000000E+00  0.11849853392E+04  0.11849853392E+04  0.00000000000E+00 0. -1.
         22   -1    0    0    0    0 -0.00000000000E+00 -0.00000000000E+00 -0.11466636691E+03  0.11466636691E+03  0.00000000000E+00 0. -1.
         25    2    1    2    0    0 -0.12247254735E+03  0.10339480267E+03  0.13112259159E+03  0.24193133477E+03  0.12509047383E+03 0.  0.
        -24    2    1    2    0    0  0.16660576979E+03  0.16677630952E+02  0.11229187089E+03  0.21714791601E+03  0.80672964841E+02 0.  0.
         24    2    1    2    0    0 -0.44133222443E+02 -0.12007243362E+03  0.82690450984E+03  0.84057245538E+03  0.80161422868E+02 0.  0.
        -11    1    5    5    0    0 -0.48790118412E+02 -0.52577010270E+02  0.26235316889E+03  0.27198162234E+03  0.00000000000E+00 0.  1.
         12    1    5    5    0    0  0.46568959687E+01 -0.67495423355E+02  0.56455134095E+03  0.56859083305E+03  0.00000000000E+00 0. -1.
         13    1    4    4    0    0  0.84943701743E+02  0.47542650913E+02  0.71540354613E+02  0.12080462930E+03  0.00000000000E+00 0. -1.
        -14    1    4    4    0    0  0.81662068045E+02 -0.30865019961E+02  0.40751516281E+02  0.96343286708E+02  0.00000000000E+00 0.  1.
          5    1    3    3  501    0 -0.11119250018E+03  0.68315326043E+02  0.15118897082E+03  0.19976569567E+03  0.41800000000E+01 0.  1.
         -5    1    3    3    0  501 -0.11280047163E+02  0.35079476629E+02 -0.20066379231E+02  0.42165639092E+02  0.41800000000E+01 0.  1.
</event>
<event>
11    1  0.1704459E-009  0.4313036E+03  0.7561462E-02  0.9561658E-01
         22   -1    0    0    0    0  0.00000000000E+00  0.00000000000E+00  0.29367289548E+04  0.29367289548E+04  0.00000000000E+00 0. -1.
         22   -1    0    0    0    0 -0.00000000000E+00 -0.00000000000E+00 -0.17675584522E+03  0.17675584522E+03  0.00000000000E+00 0.  1.
         25    2    1    2    0    0 -0.42667097155E+03 -0.38107306986E+02  0.25089876899E+03  0.51195526300E+03  0.12509082388E+03 0.  0.
        -24    2    1    2    0    0  0.37537729050E+03 -0.12699940237E+03  0.97972928552E+03  0.10599030554E+04  0.80548467247E+02 0.  0.
         24    2    1    2    0    0  0.51293681047E+02  0.16510670935E+03  0.15293450551E+04  0.15416264816E+04  0.88457018395E+02 0.  0.
        -11    1    5    5    0    0  0.47183936774E+02  0.83289786868E+02  0.11250656649E+04  0.11291307554E+04  0.00000000000E+00 0.  1.
         12    1    5    5    0    0  0.41097442735E+01  0.81816922486E+02  0.40427939024E+03  0.41249572626E+03  0.00000000000E+00 0. -1.
         13    1    4    4    0    0  0.29339135109E+03 -0.62334525545E+02  0.73171056092E+03  0.79079986275E+03  0.00000000000E+00 0. -1.
        -14    1    4    4    0    0  0.81985939409E+02 -0.64664876823E+02  0.24801872460E+03  0.26910319267E+03  0.00000000000E+00 0.  1.
          5    1    3    3  501    0 -0.15573839628E+03  0.40923301810E+02  0.63445258499E+02  0.17312405359E+03  0.41800000000E+01 0. -1.
         -5    1    3    3    0  501 -0.27093257527E+03 -0.79030608796E+02  0.18745351049E+03  0.33883120940E+03  0.41800000000E+01 0. -1.
</event>
<event>
11    1  0.1704459E-009  0.1475525E+03  0.7561462E-02  0.1099406E+00
         22   -1    0    0    0    0  0.00000000000E+00  0.00000000000E+00  0.18460443881E+04  0.18460443881E+04  0.00000000000E+00 0. -1.
         22   -1    0    0    0    0 -0.00000000000E+00 -0.00000000000E+00 -0.44858851272E+03  0.44858851272E+03  0.00000000000E+00 0. -1.
         25    2    1    2    0    0 -0.79471678473E+02 -0.10072998680E+03 -0.22291864013E+03  0.28601591695E+03  0.12510038654E+03 0.  0.
        -24    2    1    2    0    0  0.92285041510E+01  0.66838170192E+02 -0.17836441180E+03  0.20647811670E+03  0.79163394289E+02 0.  0.
         24    2    1    2    0    0  0.70243174322E+02  0.33891816605E+02  0.17987389274E+04  0.18021388672E+04  0.78485725653E+02 0.  0.
        -11    1    5    5    0    0  0.55232240634E+02  0.14722374520E+02  0.51388810638E+03  0.51705738037E+03  0.00000000000E+00 0.  1.
         12    1    5    5    0    0  0.15010933688E+02  0.19169442086E+02  0.12848508210E+04  0.12850814868E+04  0.00000000000E+00 0. -1.
         13    1    4    4    0    0  0.15350632266E+01  0.48585497890E+02 -0.30703216694E+02  0.57494300063E+02  0.00000000000E+00 0. -1.
        -14    1    4    4    0    0  0.76934409244E+01  0.18252672302E+02 -0.14766119511E+03  0.14898381664E+03  0.00000000000E+00 0.  1.
          5    1    3    3  501    0  0.26412750871E+02 -0.55366124884E+02 -0.56007217883E+02  0.83170439750E+02  0.41800000000E+01 0.  1.
         -5    1    3    3    0  501 -0.10588442934E+03 -0.45363861914E+02 -0.16691142225E+03  0.20284547720E+03  0.41800000000E+01 0.  1.
</event>
<event>
11    1  0.1704459E-009  0.2188456E+03  0.7561462E-02  0.1041943E+00
         22   -1    0    0    0    0  0.00000000000E+00  0.00000000000E+00  0.42709909532E+03  0.42709909532E+03  0.00000000000E+00 0. -1.
         22   -1    0    0    0    0 -0.00000000000E+00 -0.00000000000E+00 -0.15844709956E+03  0.15844709956E+03  0.00000000000E+00 0. -1.
         25    2    1    2    0    0  0.55140966472E+02  0.15195234074E+03  0.79379086833E+02  0.21926834117E+03  0.12509007145E+03 0.  0.
        -24    2    1    2    0    0 -0.42628049308E+02 -0.19971767625E+03  0.13594210163E+03  0.25819784391E+03  0.80508203386E+02 0.  0.
         24    2    1    2    0    0 -0.12512917164E+02  0.47765335508E+02  0.53330807295E+02  0.10808000979E+03  0.79993831872E+02 0.  0.
        -11    1    5    5    0    0  0.84315875522E+01 -0.20087393305E+02  0.20241403829E+02  0.29737341297E+02  0.00000000000E+00 0.  1.
         12    1    5    5    0    0 -0.20944504716E+02  0.67852728812E+02  0.33089403466E+02  0.78342668495E+02  0.00000000000E+00 0. -1.
         13    1    4    4    0    0 -0.52798714637E+02 -0.16113075704E+03  0.75124947965E+02  0.18545776591E+03  0.00000000000E+00 0. -1.
        -14    1    4    4    0    0  0.10170665329E+02 -0.38586919207E+02  0.60817153666E+02  0.72740077998E+02  0.00000000000E+00 0.  1.
          5    1    3    3  501    0  0.60734941246E+02  0.95874806358E+01  0.19215074804E+02  0.64554971713E+02  0.41800000000E+01 0.  1.
         -5    1    3    3    0  501 -0.55939747737E+01  0.14236486010E+03  0.60164012029E+02  0.15471336946E+03  0.41800000000E+01 0.  1.
</event>
<event>
11    1  0.1704459E-009  0.7745150E+03  0.7561462E-02  0.8929169E-01
         22   -1    0    0    0    0  0.00000000000E+00  0.00000000000E+00  0.19250708912E+04  0.19250708912E+04  0.00000000000E+00 0.  1.
         22   -1    0    0    0    0 -0.00000000000E+00 -0.00000000000E+00 -0.22067167425E+04  0.22067167425E+04  0.00000000000E+00 0.  1.
         25    2    1    2    0    0  0.45797853285E+03 -0.29088032618E+03 -0.15892054484E+04  0.16839182342E+04  0.12510380333E+03 0.  0.
         24    2    1    2    0    0  0.28858173704E+03  0.63092422586E+03 -0.20295823213E+03  0.72707067118E+03  0.78069963349E+02 0.  0.
        -24    2    1    2    0    0 -0.74656026989E+03 -0.34004389968E+03  0.15105178292E+04  0.17207987283E+04  0.80635356021E+02 0.  0.
        -13    1    4    4    0    0  0.10751774111E+03  0.18394146712E+03 -0.32255686227E+02  0.21548771954E+03  0.00000000000E+00 0.  1.
         14    1    4    4    0    0  0.18106399593E+03  0.44698275874E+03 -0.17070254590E+03  0.51158295164E+03  0.00000000000E+00 0. -1.
         13    1    5    5    0    0 -0.13363529868E+03 -0.83766023875E+02  0.24228839611E+03  0.28909999429E+03  0.00000000000E+00 0. -1.
        -14    1    5    5    0    0 -0.61292497121E+03 -0.25627787580E+03  0.12682294331E+04  0.14316987340E+04  0.00000000000E+00 0.  1.
          5    1    3    3  501    0  0.28787193571E+02 -0.53523888597E+02 -0.11312457071E+03  0.12848404595E+03  0.41800000000E+01 0.  1.
         -5    1    3    3    0  501  0.42919133927E+03 -0.23735643758E+03 -0.14760808777E+04  0.15554341883E+04  0.41800000000E+01 0.  1.
</event>
<event>
11    1  0.1704459E-009  0.1525495E+03  0.7561462E-02  0.1094302E+00
         22   -1    0    0    0    0  0.00000000000E+00  0.00000000000E+00  0.18047152900E+04  0.18047152900E+04  0.00000000000E+00 0.  1.
         22   -1    0    0    0    0 -0.00000000000E+00 -0.00000000000E+00 -0.50709783241E+02  0.50709783241E+02  0.00000000000E+00 0.  1.
         25    2    1    2    0    0 -0.13941254216E+02  0.10084142555E+03  0.12959207100E+03  0.20689465002E+03  0.12509172501E+03 0.  0.
         24    2    1    2    0    0 -0.14529816104E+02 -0.64669478483E+02  0.26908362172E+03  0.29006894225E+03  0.85678111434E+02 0.  0.
        -24    2    1    2    0    0  0.28471070320E+02 -0.36171947068E+02  0.13553298140E+04  0.13584614809E+04  0.79872891743E+02 0.  0.
        -13    1    4    4    0    0  0.17196355237E+02 -0.48859839013E+02  0.65918190216E+02  0.83834398091E+02  0.00000000000E+00 0.  1.
         14    1    4    4    0    0 -0.31726171341E+02 -0.15809639470E+02  0.20316543150E+03  0.20623454416E+03  0.00000000000E+00 0. -1.
         13    1    5    5    0    0 -0.57967704052E+01  0.80624627789E+01  0.84751688356E+03  0.84757505495E+03  0.00000000000E+00 0. -1.
        -14    1    5    5    0    0  0.34267840725E+02 -0.44234409846E+02  0.50781293044E+03  0.51088642597E+03  0.00000000000E+00 0.  1.
          5    1    3    3  501    0 -0.32356694459E+01 -0.25666466096E+02  0.51494218774E+02  0.57778577395E+02  0.41800000000E+01 0. -1.
         -5    1    3    3    0  501 -0.10705584770E+02  0.12650789165E+03  0.78097852225E+02  0.14911607263E+03  0.41800000000E+01 0. -1.
</event>
<event>
11    1  0.1704459E-009  0.2101876E+03  0.7561462E-02  0.1047544E+00
         22   -1    0    0    0    0  0.00000000000E+00  0.00000000000E+00  0.15016001288E+04  0.15016001288E+04  0.00000000000E+00 0. -1.
         22   -1    0    0    0    0 -0.00000000000E+00 -0.00000000000E+00 -0.84528588025E+02  0.84528588025E+02  0.00000000000E+00 0. -1.
         25    2    1    2    0    0  0.10525249166E+03  0.35718013306E+01  0.12115446412E+03  0.20351417944E+03  0.12509505302E+03 0.  0.
         24    2    1    2    0    0 -0.27013792249E+03  0.63434982390E+01  0.60182219935E+03  0.66460460572E+03  0.80588989192E+02 0.  0.
        -24    2    1    2    0    0  0.16488543084E+03 -0.99152995696E+01  0.69409487729E+03  0.71800993165E+03  0.80529775869E+02 0.  0.
        -13    1    4    4    0    0 -0.41092197272E+02 -0.12128111318E+02  0.44521522242E+02  0.61788556412E+02  0.00000000000E+00 0.  1.
         14    1    4    4    0    0 -0.22904572522E+03  0.18471609556E+02  0.55730067711E+03  0.60281604931E+03  0.00000000000E+00 0. -1.
         11    1    5    5    0    0  0.14685340794E+03 -0.36551514865E+02  0.58652297872E+03  0.60573190541E+03  0.00000000000E+00 0. -1.
        -12    1    5    5    0    0  0.18032022892E+02  0.26636215295E+02  0.10757189857E+03  0.11227802624E+03  0.00000000000E+00 0.  1.
          5    1    3    3  501    0 -0.14926475834E+02  0.33457265557E+02  0.44576678973E+02  0.57851024257E+02  0.41800000000E+01 0.  1.
         -5    1    3    3    0  501  0.12017896749E+03 -0.29885464226E+02  0.76577785145E+02  0.14566315518E+03  0.41800000000E+01 0.  1.
</event>
<event>
11    1  0.1704459E-009  0.6326605E+03  0.7561462E-02  0.9137883E-01
         22   -1    0    0    0    0  0.00000000000E+00  0.00000000000E+00  0.17913608606E+04  0.17913608606E+04  0.00000000000E+00 0.  1.
         22   -1    0    0    0    0 -0.00000000000E+00 -0.00000000000E+00 -0.40955324784E+03  0.40955324784E+03  0.00000000000E+00 0.  1.
         25    2    1    2    0    0  0.29741275944E+03 -0.11226285238E+03  0.82350400129E+02  0.35140629690E+03  0.12508996601E+03 0.  0.
         24    2    1    2    0    0  0.33712972230E+03  0.43489581371E+03  0.33716392895E+03  0.64990570379E+03  0.76857598160E+02 0.  0.
        -24    2    1    2    0    0 -0.63454248175E+03 -0.32263296133E+03  0.96229328364E+03  0.11996021077E+04  0.79376723394E+02 0.  0.
        -13    1    4    4    0    0  0.17849704786E+03  0.23128109436E+03  0.13394920711E+03  0.32139466515E+03  0.00000000000E+00 0.  1.
         14    1    4    4    0    0  0.15863267445E+03  0.20361471936E+03  0.20321472184E+03  0.32851103865E+03  0.00000000000E+00 0. -1.
         11    1    5    5    0    0 -0.11596700991E+03 -0.60286074262E+02  0.12877374869E+03  0.18348143363E+03  0.00000000000E+00 0. -1.
        -12    1    5    5    0    0 -0.51857547183E+03 -0.26234688707E+03  0.83351953496E+03  0.10161206741E+04  0.00000000000E+00 0.  1.
          5    1    3    3  501    0  0.20464610620E+02 -0.16910415234E+02 -0.27595880142E+02  0.38519701868E+02  0.41800000000E+01 0.  1.
         -5    1    3    3    0  501  0.27694814882E+03 -0.95352437145E+02  0.10994628027E+03  0.31288659503E+03  0.41800000000E+01 0.  1.
</event>
<event>
11    1  0.1704459E-009  0.1859572E+03  0.7561462E-02  0.1064923E+00
         22   -1    0    0    0    0  0.00000000000E+00  0.00000000000E+00  0.35498819211E+02  0.35498819211E+02  0.00000000000E+00 0.  1.
         22   -1    0    0    0    0 -0.00000000000E+00 -0.00000000000E+00 -0.26575079186E+04  0.26575079186E+04  0.00000000000E+00 0.  1.
         25    2    1    2    0    0 -0.14167668433E+02  0.10827679675E+03 -0.88208719911E+03  0.89757996360E+03  0.12508947475E+03 0.  0.
        -24    2    1    2    0    0  0.87334412440E+02 -0.13461558494E+03 -0.16282275963E+04  0.16380942708E+04  0.80492729568E+02 0.  0.
         24    2    1    2    0    0 -0.73166744007E+02  0.26338788185E+02 -0.11169430400E+03  0.15733250338E+03  0.78935384224E+02 0.  0.
        -11    1    5    5    0    0 -0.29437429381E+02  0.22685888097E+02  0.17444121321E+00  0.37165066892E+02  0.00000000000E+00 0.  1.
         12    1    5    5    0    0 -0.43729314626E+02  0.36529000878E+01 -0.11186874522E+03  0.12016743649E+03  0.00000000000E+00 0. -1.
         11    1    4    4    0    0  0.19142262767E+01 -0.12049745307E+02 -0.48415639953E+03  0.48431010709E+03  0.00000000000E+00 0. -1.
        -12    1    4    4    0    0  0.85420186163E+02 -0.12256583963E+03 -0.11440711968E+04  0.11537841637E+04  0.00000000000E+00 0.  1.
          5    1    3    3  501    0 -0.32259068134E+01  0.80131321641E+02 -0.21044935622E+03  0.22525061402E+03  0.41800000000E+01 0. -1.
         -5    1    3    3    0  501 -0.10941761619E+02  0.28145475112E+02 -0.67163784288E+03  0.67232934958E+03  0.41800000000E+01 0. -1.
</event>
<event>
11    1  0.1704459E-009  0.1653153E+03  0.7561462E-02  0.1082182E+00
         22   -1    0    0    0    0  0.00000000000E+00  0.00000000000E+00  0.27219300214E+03  0.27219300214E+03  0.00000000000E+00 0. -1.
         22   -1    0    0    0    0 -0.00000000000E+00 -0.00000000000E+00 -0.16488125630E+03  0.16488125630E+03  0.00000000000E+00 0.  1.
         25    2    1    2    0    0 -0.11672859594E+03 -0.54151065747E+02 -0.16719705523E+02  0.18023167193E+03  0.12508398772E+03 0.  0.
        -24    2    1    2    0    0  0.20328379297E+02  0.20537898632E+02  0.13796307925E+02  0.87946135407E+02  0.81909317758E+02 0.  0.
         24    2    1    2    0    0  0.96400216641E+02  0.33613167115E+02  0.11023514344E+03  0.16889645111E+03  0.77145172080E+02 0.  0.
        -11    1    5    5    0    0  0.66020204557E+02  0.89754208261E+01  0.18466118637E+02  0.69139157691E+02  0.00000000000E+00 0.  1.
         12    1    5    5    0    0  0.30380012084E+02  0.24637746289E+02  0.91769024801E+02  0.99757293415E+02  0.00000000000E+00 0. -1.
         11    1    4    4    0    0  0.51909436090E+02  0.66345817375E+01  0.92264368820E+01  0.53138821661E+02  0.00000000000E+00 0. -1.
        -12    1    4    4    0    0 -0.31581056793E+02  0.13903316895E+02  0.45698710431E+01  0.34807313746E+02  0.00000000000E+00 0.  1.
          5    1    3    3  501    0 -0.10543346941E+03 -0.77410206799E+02 -0.48037601039E+02  0.13940459139E+03  0.41800000000E+01 0. -1.
         -5    1    3    3    0  501 -0.11295126531E+02  0.23259141051E+02  0.31317895516E+02  0.40827080539E+02  0.41800000000E+01 0. -1.
</event>
<event>
11    1  0.1704459E-009  0.3570803E+03  0.7561462E-02  0.9785639E-01
         22   -1    0    0    0    0  0.00000000000E+00  0.00000000000E+00  0.77768358339E+03  0.77768358339E+03  0.00000000000E+00 0.  1.
         22   -1    0    0    0    0 -0.00000000000E+00 -0.00000000000E+00 -0.11289727325E+04  0.11289727325E+04  0.00000000000E+00 0.  1.
         25    2    1    2    0    0  0.29470414169E+03 -0.13505951808E+03 -0.86725940377E+03  0.93427919936E+03  0.12508854617E+03 0.  0.
        -24    2    1    2    0    0 -0.39423554730E+03  0.36181164024E+03  0.45009174434E+03  0.70374155251E+03  0.79625778729E+02 0.  0.
         24    2    1    2    0    0  0.99531405616E+02 -0.22675212216E+03  0.65878510331E+02  0.26863556401E+03  0.80635367673E+02 0.  0.
        -13    1    5    5    0    0  0.20576600541E+02 -0.23727147805E+02 -0.16822397951E+02  0.35628178533E+02  0.00000000000E+00 0.  1.
         14    1    5    5    0    0  0.78954805075E+02 -0.20302497436E+03  0.82700908282E+02  0.23300738548E+03  0.00000000000E+00 0. -1.
         13    1    4    4    0    0 -0.11671615297E+03  0.14514875380E+03  0.12325846956E+03  0.22334607991E+03  0.00000000000E+00 0. -1.
        -14    1    4    4    0    0 -0.27751939434E+03  0.21666288644E+03  0.32683327478E+03  0.48039547260E+03  0.00000000000E+00 0.  1.
          5    1    3    3  501    0  0.14954978785E+02 -0.17517953179E+02 -0.11060811225E+02  0.25891002665E+02  0.41800000000E+01 0. -1.
         -5    1    3    3    0  501  0.27974916290E+03 -0.11754156490E+03 -0.85619859254E+03  0.90838819670E+03  0.41800000000E+01 0. -1.
</event>
<event>
11    1  0.1704459E-009  0.2077210E+03  0.7561462E-02  0.1049194E+00
         22   -1    0    0    0    0  0.00000000000E+00  0.00000000000E+00  0.14277926693E+04  0.14277926693E+04  0.00000000000E+00 0.  1.
         22   -1    0    0    0    0 -0.00000000000E+00 -0.00000000000E+00 -0.11721063817E+03  0.11721063817E+03  0.00000000000E+00 0.  1.
         25    2    1    2    0    0 -0.11918051827E+03 -0.10321436153E+03  0.18248387604E+02  0.20208221306E+03  0.12508803630E+03 0.  0.
         24    2    1    2    0    0  0.17911851334E+03  0.11467682238E+03  0.58636042737E+03  0.62878860460E+03  0.79513162921E+02 0.  0.
        -24    2    1    2    0    0 -0.59937995074E+02 -0.11462460846E+02  0.70597321620E+03  0.71413248984E+03  0.88674008558E+02 0.  0.
        -11    1    4    4    0    0  0.17965680973E+03  0.89373457716E+02  0.53807043790E+03  0.57426821292E+03  0.00000000000E+00 0.  1.
         12    1    4    4    0    0 -0.53829638951E+00  0.25303364661E+02  0.48289989477E+02  0.54520391688E+02  0.00000000000E+00 0. -1.
         11    1    5    5    0    0 -0.74602858949E+02 -0.10142193834E+02  0.35718708234E+03  0.36503570024E+03  0.00000000000E+00 0. -1.
        -12    1    5    5    0    0  0.14664863875E+02 -0.13202670114E+01  0.34878613385E+03  0.34909678960E+03  0.00000000000E+00 0.  1.
          5    1    3    3  501    0 -0.13456080727E+03 -0.62397187053E+02 -0.11953454323E+02  0.14886361972E+03  0.41800000000E+01 0.  1.
         -5    1    3    3    0  501  0.15380288997E+02 -0.40817174477E+02  0.30201841927E+02  0.53218593346E+02  0.41800000000E+01 0.  1.
</event>
<event>
11    1  0.1704459E-009  0.1916766E+03  0.7561462E-02  0.1060571E+00
         22   -1    0    0    0    0  0.00000000000E+00  0.00000000000E+00  0.59518532330E+02  0.59518532330E+02  0.00000000000E+00 0. -1.
         22   -1    0    0    0    0 -0.00000000000E+00 -0.00000000000E+00 -0.17139674727E+04  0.17139674727E+04  0.00000000000E+00 0. -1.
         25    2    1    2    0    0 -0.11157405400E+03 -0.53717239271E+02 -0.66280391328E+03  0.68577603467E+03  0.12508169713E+03 0.  0.
        -24    2    1    2    0    0  0.14059324682E+03  0.77925559686E+02 -0.98056211433E+03  0.99709906834E+03  0.82859146315E+02 0.  0.
         24    2    1    2    0    0 -0.29019192816E+02 -0.24208320415E+02 -0.11082912805E+02  0.90610902055E+02  0.81604830040E+02 0.  0.
        -13    1    5    5    0    0 -0.27094757879E+02  0.55711748586E+01 -0.40278847079E+02  0.48862556378E+02  0.00000000000E+00 0.  1.
         14    1    5    5    0    0 -0.19244349369E+01 -0.29779495274E+02  0.29195934274E+02  0.41748345676E+02  0.00000000000E+00 0. -1.
         11    1    4    4    0    0  0.13370383595E+03  0.91393240855E+02 -0.93911323646E+03  0.95297592368E+03  0.00000000000E+00 0. -1.
        -12    1    4    4    0    0  0.68894108639E+01 -0.13467681168E+02 -0.41448877865E+02  0.44123144656E+02  0.00000000000E+00 0.  1.
          5    1    3    3  501    0 -0.12458521098E+03 -0.13706094723E+02 -0.57235815487E+03  0.58593571462E+03  0.41800000000E+01 0.  1.
         -5    1    3    3    0  501  0.13011156976E+02 -0.40011144548E+02 -0.90445758409E+02  0.99840320052E+02  0.41800000000E+01 0.  1.
</event>
<event>
11    1  0.1704459E-009  0.1513519E+03  0.7561462E-02  0.1095505E+00
         22   -1    0    0    0    0  0.00000000000E+00  0.00000000000E+00  0.10155074779E+03  0.10155074779E+03  0.00000000000E+00 0.  1.
         22   -1    0    0    0    0 -0.00000000000E+00 -0.00000000000E+00 -0.81587426944E+03  0.81587426944E+03  0.00000000000E+00 0. -1.
         25    2    1    2    0    0 -0.13414806529E+03  0.16032692093E+02 -0.42503905456E+03  0.46320540753E+03  0.12509316937E+03 0.  0.
         24    2    1    2    0    0  0.58234079016E+02  0.10652521257E+02 -0.31982834970E+03  0.33448723582E+03  0.78018289463E+02 0.  0.
        -24    2    1    2    0    0  0.75913986278E+02 -0.26685213351E+02  0.30543882609E+02  0.11973237388E+03  0.83233879314E+02 0.  0.
        -13    1    4    4    0    0  0.77428368053E+00 -0.42127566245E+01  0.36386734614E+01  0.56202115755E+01  0.00000000000E+00 0.  1.
         14    1    4    4    0    0  0.57459795335E+02  0.14865277882E+02 -0.32346702316E+03  0.32886702425E+03  0.00000000000E+00 0. -1.
         13    1    5    5    0    0 -0.17730207173E+02 -0.10808801459E+02  0.45229849302E+01  0.21252007624E+02  0.00000000000E+00 0. -1.
        -14    1    5    5    0    0  0.93644193451E+02 -0.15876411892E+02  0.26020897678E+02  0.98480366255E+02  0.00000000000E+00 0.  1.
          5    1    3    3  501    0  0.21967317057E+02  0.10022541181E+02 -0.32538637598E+02  0.40733888682E+02  0.41800000000E+01 0. -1.
         -5    1    3    3    0  501 -0.15611538235E+03  0.60101509125E+01 -0.39250041697E+03  0.42247151885E+03  0.41800000000E+01 0. -1.
</event>
<event>
11    1  0.1704459E-009  0.3198868E+03  0.7561462E-02  0.9921091E-01
         22   -1    0    0    0    0  0.00000000000E+00  0.00000000000E+00  0.15467265335E+04  0.15467265335E+04  0.00000000000E+00 0. -1.
         22   -1    0    0    0    0 -0.00000000000E+00 -0.00000000000E+00 -0.91942783769E+03  0.91942783769E+03  0.00000000000E+00 0. -1.
         25    2    1    2    0    0 -0.29095706647E+03  0.91756054352E+02 -0.69611503531E+03  0.77025910444E+03  0.12509099709E+03 0.  0.
         24    2    1    2    0    0  0.27002229913E+03 -0.12266309879E+02 -0.75802371931E+02  0.29200548725E+03  0.80366041362E+02 0.  0.
        -24    2    1    2    0    0  0.20934767340E+02 -0.79489744473E+02  0.13992161030E+04  0.14038897795E+04  0.79648766406E+02 0.  0.
        -11    1    4    4    0    0  0.20934440935E+03  0.21375711595E+02 -0.41015240025E+02  0.21439275335E+03  0.00000000000E+00 0.  1.
         12    1    4    4    0    0  0.60677889781E+02 -0.33642021474E+02 -0.34787131906E+02  0.77612733899E+02  0.00000000000E+00 0. -1.
         13    1    5    5    0    0  0.49245997685E+02 -0.53438921456E+02  0.74249489431E+03  0.74604259576E+03  0.00000000000E+00 0. -1.
        -14    1    5    5    0    0 -0.28311230345E+02 -0.26050823017E+02  0.65672120872E+03  0.65784718372E+03  0.00000000000E+00 0.  1.
          5    1    3    3  501    0 -0.10579197195E+02  0.17874941860E+02 -0.15409767180E+03  0.15554741340E+03  0.41800000000E+01 0.  1.
         -5    1    3    3    0  501 -0.28037786928E+03  0.73881112491E+02 -0.54201736351E+03  0.61471169104E+03  0.41800000000E+01 0.  1.
</event>
<event>
11    1  0.1704459E-009  0.1421227E+03  0.7561462E-02  0.1105211E+00
         22   -1    0    0    0    0  0.00000000000E+00  0.00000000000E+00  0.44786204801E+03  0.44786204801E+03  0.00000000000E+00 0.  1.
         22   -1    0    0    0    0 -0.00000000000E+00 -0.00000000000E+00 -0.65313697353E+03  0.65313697353E+03  0.00000000000E+00 0.  1.
         25    2    1    2    0    0 -0.48818798318E+01  0.63932252093E+02 -0.34390676306E+03  0.37152386603E+03  0.12508779214E+03 0.  0.
         24    2    1    2    0    0 -0.69729094559E+00 -0.70224992625E+02 -0.28077273598E+03  0.30263481247E+03  0.88444698232E+02 0.  0.
        -24    2    1    2    0    0  0.55791707774E+01  0.62927405323E+01  0.41940457352E+03  0.42684034304E+03  0.78878111164E+02 0.  0.
        -13    1    4    4    0    0  0.28347733152E+02 -0.64690520879E+02 -0.25070839636E+03  0.26046719078E+03  0.00000000000E+00 0.  1.
         14    1    4    4    0    0 -0.29045024098E+02 -0.55344717467E+01 -0.30064339617E+02  0.42167621690E+02  0.00000000000E+00 0. -1.
         13    1    5    5    0    0 -0.76871248894E+01  0.11992631617E+02  0.10538367195E+02  0.17719263114E+02  0.00000000000E+00 0. -1.
        -14    1    5    5    0    0  0.13266295667E+02 -0.56998910848E+01  0.40886620633E+03  0.40912107992E+03  0.00000000000E+00 0.  1.
          5    1    3    3  501    0 -0.41247732370E+02  0.41612743300E+02 -0.31351730943E+03  0.31897268150E+03  0.41800000000E+01 0. -1.
         -5    1    3    3    0  501  0.36365852538E+02  0.22319508793E+02 -0.30389453630E+02  0.52551184530E+02  0.41800000000E+01 0. -1.
</event>
<event>
11    1  0.1704459E-009  0.1741127E+03  0.7561462E-02  0.1074507E+00
         22   -1    0    0    0    0  0.00000000000E+00  0.00000000000E+00  0.16930594921E+03  0.16930594921E+03  0.00000000000E+00 0.  1.
         22   -1    0    0    0    0 -0.00000000000E+00 -0.00000000000E+00 -0.47699290084E+03  0.47699290084E+03  0.00000000000E+00 0.  1.
         25    2    1    2    0    0  0.67728598279E+02 -0.12392374015E+02 -0.19680504767E+03  0.24314651738E+03  0.12508904095E+03 0.  0.
        -24    2    1    2    0    0  0.64580243017E+02  0.27595335679E+02 -0.19450247301E+03  0.22289568812E+03  0.83181520998E+02 0.  0.
         24    2    1    2    0    0 -0.13230884130E+03 -0.15202961664E+02  0.83620569058E+02  0.18025664455E+03  0.88109584084E+02 0.  0.
        -13    1    5    5    0    0 -0.10375566299E+03 -0.94982005759E+00  0.10024367769E+03  0.14427381841E+03  0.00000000000E+00 0.  1.
         14    1    5    5    0    0 -0.28553178301E+02 -0.14253141606E+02 -0.16623108631E+02  0.35982826144E+02  0.00000000000E+00 0. -1.
         13    1    4    4    0    0  0.45086434508E+02 -0.18797881155E+02 -0.50084613509E+02  0.69961528163E+02  0.00000000000E+00 0. -1.
        -14    1    4    4    0    0  0.19493808509E+02  0.46393216834E+02 -0.14441785951E+03  0.15293415996E+03  0.00000000000E+00 0.  1.
          5    1    3    3  501    0  0.92768201617E+02 -0.65840697495E+01 -0.19612158633E+03  0.21709545880E+03  0.41800000000E+01 0.  1.
         -5    1    3    3    0  501 -0.25039603339E+02 -0.58083042653E+01 -0.68346134040E+00  0.26051058581E+02  0.41800000000E+01 0.  1.
</event>
<event>
11    1  0.1704459E-009  0.1460717E+03  0.7561462E-02  0.1100962E+00
         22   -1    0    0    0    0  0.00000000000E+00  0.00000000000E+00  0.15882708866E+03  0.15882708866E+03  0.00000000000E+00 0. -1.
         22   -1    0    0    0    0 -0.00000000000E+00 -0.00000000000E+00 -0.45173860214E+03  0.45173860214E+03  0.00000000000E+00 0.  1.
         25    2    1    2    0    0  0.15170101369E+02 -0.55502258872E+02 -0.24271534541E+03  0.27904767707E+03  0.12508490902E+03 0.  0.
         24    2    1    2    0    0 -0.11698761830E+03  0.69773290926E+02 -0.10660871104E+03  0.19041428033E+03  0.79610086801E+02 0.  0.
        -24    2    1    2    0    0  0.10181751693E+03 -0.14271032054E+02  0.56412542975E+02  0.14110373341E+03  0.78469226235E+02 0.  0.
        -13    1    4    4    0    0  0.64695846277E+01  0.23827199606E+02 -0.83102768441E+01  0.26050943698E+02  0.00000000000E+00 0.  1.
         14    1    4    4    0    0 -0.12345720293E+03  0.45946091320E+02 -0.98298434196E+02  0.16436333663E+03  0.00000000000E+00 0. -1.
         13    1    5    5    0    0  0.39368477718E+02 -0.31511492074E+02  0.57278197931E+02  0.76312797936E+02  0.00000000000E+00 0. -1.
        -14    1    5    5    0    0  0.62449039214E+02  0.17240460021E+02 -0.86565495656E+00  0.64790935469E+02  0.00000000000E+00 0.  1.
          5    1    3    3  501    0 -0.50311945426E+02 -0.26292357356E+02 -0.15823941168E+03  0.16816588154E+03  0.41800000000E+01 0.  1.
         -5    1    3    3    0  501  0.65482046795E+02 -0.29209901516E+02 -0.84475933735E+02  0.11088179553E+03  0.41800000000E+01 0.  1.
</event>
<event>
11    1  0.1704459E-009  0.1588417E+03  0.7561462E-02  0.1088172E+00
         22   -1    0    0    0    0  0.00000000000E+00  0.00000000000E+00  0.64607766166E+02  0.64607766166E+02  0.00000000000E+00 0.  1.
         22   -1    0    0    0    0 -0.00000000000E+00 -0.00000000000E+00 -0.12430419352E+04  0.12430419352E+04  0.00000000000E+00 0.  1.
         25    2    1    2    0    0  0.77554444982E+02  0.93612681620E+02 -0.63733491252E+03  0.66077333617E+03  0.12509030732E+03 0.  0.
         24    2    1    2    0    0 -0.72194120027E+02  0.37525277146E+01 -0.50383501704E+03  0.51504760154E+03  0.78728870372E+02 0.  0.
        -24    2    1    2    0    0 -0.53603249553E+01 -0.97365209335E+02 -0.37264239436E+02  0.13182876361E+03  0.80507653685E+02 0.  0.
        -13    1    4    4    0    0 -0.87899871421E+02 -0.63421191382E+01 -0.40763856043E+03  0.41705611832E+03  0.00000000000E+00 0.  1.
         14    1    4    4    0    0  0.15705751395E+02  0.10094646853E+02 -0.96196456604E+02  0.97991483227E+02  0.00000000000E+00 0. -1.
         11    1    5    5    0    0  0.28817950860E+02 -0.83533370517E+02 -0.34477689312E+02  0.94852566343E+02  0.00000000000E+00 0. -1.
        -12    1    5    5    0    0 -0.34178275815E+02 -0.13831838818E+02 -0.27865501244E+01  0.36976197268E+02  0.00000000000E+00 0.  1.
          5    1    3    3  501    0  0.71556078670E+02  0.10746208740E+03 -0.63065398554E+03  0.64374707339E+03  0.41800000000E+01 0.  1.
         -5    1    3    3    0  501  0.59983663124E+01 -0.13849405785E+02 -0.66809269815E+01  0.17026262782E+02  0.41800000000E+01 0.  1.
</event>
<event>
11    1  0.1704459E-009  0.4331708E+03  0.7561462E-02  0.9556657E-01
         22   -1    0    0    0    0  0.00000000000E+00  0.00000000000E+00  0.10345963605E+04  0.10345963605E+04  0.00000000000E+00 0. -1.
         22   -1    0    0    0    0 -0.00000000000E+00 -0.00000000000E+00 -0.50886293415E+03  0.50886293415E+03  0.00000000000E+00 0.  1.
         25    2    1    2    0    0 -0.13787899671E+03  0.40102942255E+03  0.24632110214E+03  0.50612341135E+03  0.12510638139E+03 0.  0.
         24    2    1    2    0    0  0.11865722669E+03 -0.39440660212E+03 -0.25820053528E+03  0.49280586034E+03  0.80956743567E+02 0.  0.
        -24    2    1    2    0    0  0.19221770018E+02 -0.66228204357E+01  0.53761285945E+03  0.54453002294E+03  0.84095309259E+02 0.  0.
        -11    1    4    4    0    0  0.22250786138E+02 -0.21214201088E+03 -0.13985131239E+03  0.25506414848E+03  0.00000000000E+00 0.  1.
         12    1    4    4    0    0  0.96406440556E+02 -0.18226459124E+03 -0.11834922289E+03  0.23774171186E+03  0.00000000000E+00 0. -1.
         13    1    5    5    0    0  0.40958384633E+02 -0.18311225551E+02  0.16172588273E+03  0.16783370161E+03  0.00000000000E+00 0. -1.
        -14    1    5    5    0    0 -0.21736614615E+02  0.11688405115E+02  0.37588697672E+03  0.37669632132E+03  0.00000000000E+00 0.  1.
          5    1    3    3  501    0 -0.45111036724E+02  0.26078670492E+03  0.19971777291E+03  0.33158614615E+03  0.41800000000E+01 0.  1.
         -5    1    3    3    0  501 -0.92767959988E+02  0.14024271763E+03  0.46603329235E+02  0.17453726520E+03  0.41800000000E+01 0.  1.
</event>
<event>
11    1  0.1704459E-009  0.1679850E+03  0.7561462E-02  0.1079799E+00
         22   -1    0    0    0    0  0.00000000000E+00  0.00000000000E+00  0.34146382570E+02  0.34146382570E+02  0.00000000000E+00 0. -1.
         22   -1    0    0    0    0 -0.00000000000E+00 -0.00000000000E+00 -0.15095385229E+04  0.15095385229E+04  0.00000000000E+00 0. -1.
         25    2    1    2    0    0 -0.79824381155E+02  0.28100730781E+02 -0.79865485744E+03  0.81280991781E+03  0.12509515691E+03 0.  0.
        -24    2    1    2    0    0 -0.16940273190E+02  0.44323399839E+02 -0.46985511482E+03  0.47903824299E+03  0.80388262164E+02 0.  0.
         24    2    1    2    0    0  0.96764654345E+02 -0.72424130620E+02 -0.20688216811E+03  0.25183674471E+03  0.77542642966E+02 0.  0.
        -13    1    5    5    0    0 -0.57123806160E+01 -0.30795144944E+02 -0.62963813195E+02  0.70323637680E+02  0.00000000000E+00 0.  1.
         14    1    5    5    0    0  0.10247703496E+03 -0.41628985677E+02 -0.14391835492E+03  0.18151310703E+03  0.00000000000E+00 0. -1.
         11    1    4    4    0    0  0.31267790098E+02  0.66034694670E+01 -0.17552969782E+03  0.17841512078E+03  0.00000000000E+00 0. -1.
        -12    1    4    4    0    0 -0.48208063288E+02  0.37719930372E+02 -0.29432541700E+03  0.30062312221E+03  0.00000000000E+00 0.  1.
          5    1    3    3  501    0 -0.66755770436E+02 -0.37109902858E+02 -0.55346605659E+03  0.55872679010E+03  0.41800000000E+01 0.  1.
         -5    1    3    3    0  501 -0.13068610719E+02  0.65210633640E+02 -0.24518880084E+03  0.25408312770E+03  0.41800000000E+01 0.  1.
</event>
<event>
11    1  0.1704459E-009  0.3320423E+03  0.7561462E-02  0.9874738E-01
         22   -1    0    0    0    0  0.00000000000E+00  0.00000000000E+00  0.22294000869E+03  0.22294000869E+03  0.00000000000E+00 0.  1.
         22   -1    0    0    0    0 -0.00000000000E+00 -0.00000000000E+00 -0.11326339220E+04  0.11326339220E+04  0.00000000000E+00 0.  1.
         25    2    1    2    0    0 -0.25411764904E+03 -0.12583412792E+03 -0.38672620578E+03  0.49559621299E+03  0.12509372805E+03 0.  0.
        -24    2    1    2    0    0 -0.91902129494E+02  0.26446764635E+03 -0.30033940299E+03  0.41853910955E+03  0.81130092217E+02 0.  0.
         24    2    1    2    0    0  0.34601977853E+03 -0.13863351843E+03 -0.22262830451E+03  0.44143860812E+03  0.79722915175E+02 0.  0.
        -11    1    5    5    0    0  0.27101005869E+03 -0.13627915863E+03 -0.19886330406E+03  0.36271900238E+03  0.00000000000E+00 0.  1.
         12    1    5    5    0    0  0.75009719845E+02 -0.23543597943E+01 -0.23765000447E+02  0.78719605738E+02  0.00000000000E+00 0. -1.
         13    1    4    4    0    0 -0.67652617400E+02  0.21768561540E+03 -0.28229424886E+03  0.36284148982E+03  0.00000000000E+00 0. -1.
        -14    1    4    4    0    0 -0.24249512094E+02  0.46782030944E+02 -0.18045154132E+02  0.55697619731E+02  0.00000000000E+00 0.  1.
          5    1    3    3  501    0 -0.83548382725E+01  0.93599990575E+01 -0.75304629141E+02  0.76456997554E+02  0.41800000000E+01 0. -1.
         -5    1    3    3    0  501 -0.24576281077E+03 -0.13519412698E+03 -0.31142157664E+03  0.41913921544E+03  0.41800000000E+01 0. -1.
</event>
<event>
11    1  0.1704459E-009  0.9770101E+03  0.7561462E-02  0.8701193E-01
         22   -1    0    0    0    0  0.00000000000E+00  0.00000000000E+00  0.26908473621E+04  0.26908473621E+04  0.00000000000E+00 0. -1.
         22   -1    0    0    0    0 -0.00000000000E+00 -0.00000000000E+00 -0.72780906632E+03  0.72780906632E+03  0.00000000000E+00 0. -1.
         25    2    1    2    0    0 -0.20511591863E+03 -0.94902204265E+03 -0.20371222723E+03  0.99993100272E+03  0.12509181094E+03 0.  0.
         24    2    1    2    0    0  0.12911762352E+03  0.95259756508E+03  0.19356003262E+04  0.21626640409E+04  0.80334607049E+02 0.  0.
        -24    2    1    2    0    0  0.75998295111E+02 -0.35755224226E+01  0.23115019680E+03  0.25606138484E+03  0.79677437861E+02 0.  0.
        -11    1    4    4    0    0  0.74385176270E+02  0.47457016323E+03  0.87978103138E+03  0.10023794977E+04  0.00000000000E+00 0.  1.
         12    1    4    4    0    0  0.54732447253E+02  0.47802740184E+03  0.10558192948E+04  0.11602845431E+04  0.00000000000E+00 0. -1.
         13    1    5    5    0    0  0.75641112900E+02 -0.26119344462E+02  0.21157414765E+03  0.22620216195E+03  0.00000000000E+00 0. -1.
        -14    1    5    5    0    0  0.35718221059E+00  0.22543822039E+02  0.19576049149E+02  0.29859222890E+02  0.00000000000E+00 0.  1.
          5    1    3    3  501    0 -0.65401194610E+02 -0.52126752560E+03 -0.67097058935E+02  0.52963821352E+03  0.41800000000E+01 0. -1.
         -5    1    3    3    0  501 -0.13971472402E+03 -0.42775451706E+03 -0.13661516830E+03  0.47029278921E+03  0.41800000000E+01 0. -1.
</event>
<event>
11    1  0.1704459E-009  0.5709192E+03  0.7561462E-02  0.9247670E-01
         22   -1    0    0    0    0  0.00000000000E+00  0.00000000000E+00  0.70441150265E+03  0.70441150265E+03  0.00000000000E+00 0.  1.
         22   -1    0    0    0    0 -0.00000000000E+00 -0.00000000000E+00 -0.13093302136E+04  0.13093302136E+04  0.00000000000E+00 0. -1.
         25    2    1    2    0    0 -0.59298552193E+03  0.16566896597E+02 -0.10123410070E+04  0.11799951056E+04  0.12509134066E+03 0.  0.
        -24    2    1    2    0    0  0.43975811271E+03 -0.60797350974E+02  0.76632176644E+02  0.45760360427E+03  0.80281084702E+02 0.  0.
         24    2    1    2    0    0  0.15322740922E+03  0.44230454377E+02  0.33079011946E+03  0.37614300632E+03  0.81403231117E+02 0.  0.
        -11    1    5    5    0    0  0.75222647825E+02  0.13987596705E+02  0.24348437978E+03  0.25522292766E+03  0.00000000000E+00 0.  1.
         12    1    5    5    0    0  0.78004761395E+02  0.30242857672E+02  0.87305739684E+02  0.12092007866E+03  0.00000000000E+00 0. -1.
         11    1    4    4    0    0  0.24367967578E+02 -0.13293185840E+02 -0.11956726733E+02  0.30223665360E+02  0.00000000000E+00 0. -1.
        -12    1    4    4    0    0  0.41539014514E+03 -0.47504165134E+02  0.88588903377E+02  0.42737993891E+03  0.00000000000E+00 0.  1.
          5    1    3    3  501    0 -0.27431732880E+03  0.59779487454E+02 -0.40594726396E+03  0.49359319031E+03  0.41800000000E+01 0.  1.
         -5    1    3    3    0  501 -0.31866819313E+03 -0.43212590856E+02 -0.60639374309E+03  0.68640191534E+03  0.41800000000E+01 0.  1.
</event>
<event>
11    1  0.1704459E-009  0.3731103E+03  0.7561462E-02  0.9732608E-01
         22   -1    0    0    0    0  0.00000000000E+00  0.00000000000E+00  0.11979721219E+03  0.11979721219E+03  0.00000000000E+00 0. -1.
         22   -1    0    0    0    0 -0.00000000000E+00 -0.00000000000E+00 -0.21941070549E+04  0.21941070549E+04  0.00000000000E+00 0.  1.
         25    2    1    2    0    0  0.73257775660E+02  0.34020650408E+03 -0.16173075359E+04  0.16590472547E+04  0.12508781034E+03 0.  0.
         24    2    1    2    0    0 -0.80236340052E+02 -0.35636241954E+03 -0.34688806228E+03  0.51031863408E+03  0.81619459764E+02 0.  0.
        -24    2    1    2    0    0  0.69785643918E+01  0.16155915469E+02 -0.11011424450E+03  0.14453837835E+03  0.91959132282E+02 0.  0.
        -11    1    4    4    0    0 -0.14876666235E+02 -0.16482528167E+03 -0.20344977412E+03  0.26226036541E+03  0.00000000000E+00 0.  1.
         12    1    4    4    0    0 -0.65359673817E+02 -0.19153713788E+03 -0.14343828816E+03  0.24805826868E+03  0.00000000000E+00 0. -1.
         13    1    5    5    0    0  0.10729951780E+02 -0.35957071739E+02 -0.26483714444E+02  0.45928531481E+02  0.00000000000E+00 0. -1.
        -14    1    5    5    0    0 -0.37513873885E+01  0.52112987208E+02 -0.83630530056E+02  0.98609846874E+02  0.00000000000E+00 0.  1.
          5    1    3    3  501    0  0.21957454645E+02  0.11255687037E+03 -0.29951508516E+03  0.32074590803E+03  0.41800000000E+01 0.  1.
         -5    1    3    3    0  501  0.51300321016E+02  0.22764963370E+03 -0.13177924508E+04  0.13383013466E+04  0.41800000000E+01 0.  1.
</event>
<event>
11    1  0.1704459E-009  0.1305150E+03  0.7561462E-02  0.1118638E+00
         22   -1    0    0    0    0  0.00000000000E+00  0.00000000000E+00  0.63214754271E+03  0.63214754271E+03  0.00000000000E+00 0. -1.
         22   -1    0    0    0    0 -0.00000000000E+00 -0.00000000000E+00 -0.32453055440E+03  0.32453055440E+03  0.00000000000E+00 0.  1.
         25    2    1    2    0    0 -0.24691141349E+02 -0.70545100906E+02 -0.20722583186E+03  0.25332968170E+03  0.12508844279E+03 0.  0.
        -24    2    1    2    0    0  0.15029314879E+02  0.35217583896E+02 -0.65846264272E+02  0.11503097284E+03  0.86198814794E+02 0.  0.
         24    2    1    2    0    0  0.96618264693E+01  0.35327517010E+02  0.58068908443E+03  0.58831744257E+03  0.87041461970E+02 0.  0.
        -13    1    5    5    0    0  0.47300046188E+01 -0.21004158464E+02  0.47661710101E+02  0.52299007889E+02  0.00000000000E+00 0.  1.
         14    1    5    5    0    0  0.49318218506E+01  0.56331675474E+02  0.53302737433E+03  0.53601843468E+03  0.00000000000E+00 0. -1.
         13    1    4    4    0    0  0.26277018008E+02 -0.14814989248E+02  0.17120033710E+01  0.30214177754E+02  0.00000000000E+00 0. -1.
        -14    1    4    4    0    0 -0.11247703129E+02  0.50032573144E+02 -0.67558267643E+02  0.84816795082E+02  0.00000000000E+00 0.  1.
          5    1    3    3  501    0  0.38468591292E+02 -0.72328375744E+02 -0.12576739429E+03  0.15015370898E+03  0.41800000000E+01 0. -1.
         -5    1    3    3    0  501 -0.63159732640E+02  0.17832748383E+01 -0.81458437569E+02  0.10317597272E+03  0.41800000000E+01 0. -1.
</event>
<event>
11    1  0.1704459E-009  0.1744412E+03  0.7561462E-02  0.1074230E+00
         22   -1    0    0    0    0  0.00000000000E+00  0.00000000000E+00  0.10279520377E+04  0.10279520377E+04  0.00000000000E+00 0. -1.
         22   -1    0    0    0    0 -0.00000000000E+00 -0.00000000000E+00 -0.54418901137E+02  0.54418901137E+02  0.00000000000E+00 0.  1.
         25    2    1    2    0    0 -0.57477710151E+02 -0.73516137634E+02  0.16546737969E+03  0.22745179767E+03  0.12508619775E+03 0.  0.
        -24    2    1    2    0    0  0.11124958565E+02 -0.49352299438E+02  0.15239585359E+03  0.18025363806E+03  0.81899106692E+02 0.  0.
         24    2    1    2    0    0  0.46352751586E+02  0.12286843707E+03  0.65566990324E+03  0.67466550307E+03  0.89583975162E+02 0.  0.
        -13    1    5    5    0    0  0.38419980537E+02  0.20953029290E+02  0.92958813918E+02  0.10274466130E+03  0.00000000000E+00 0.  1.
         14    1    5    5    0    0  0.79327710492E+01  0.10191540778E+03  0.56271108933E+03  0.57192084177E+03  0.00000000000E+00 0. -1.
         13    1    4    4    0    0  0.46439649094E+02 -0.21082268526E+02  0.82902996840E+02  0.97334525936E+02  0.00000000000E+00 0. -1.
        -14    1    4    4    0    0 -0.35314690529E+02 -0.28270030912E+02  0.69492856753E+02  0.82919112119E+02  0.00000000000E+00 0.  1.
          5    1    3    3  501    0 -0.26664098305E+02 -0.10571258533E+02 -0.15835880418E+02  0.33029882743E+02  0.41800000000E+01 0.  1.
         -5    1    3    3    0  501 -0.30813611845E+02 -0.62944879101E+02  0.18130326011E+03  0.19442191493E+03  0.41800000000E+01 0.  1.
</event>
<event>
11    1  0.1704459E-009  0.2729479E+03  0.7561462E-02  0.1012338E+00
         22   -1    0    0    0    0  0.00000000000E+00  0.00000000000E+00  0.46361576745E+03  0.46361576745E+03  0.00000000000E+00 0. -1.
         22   -1    0    0    0    0 -0.00000000000E+00 -0.00000000000E+00 -0.34184976176E+03  0.34184976176E+03  0.00000000000E+00 0. -1.
         25    2    1    2    0    0 -0.12704194152E+03 -0.22114618950E+03 -0.19814515320E+03  0.34634344849E+03  0.12508793126E+03 0.  0.
        -24    2    1    2    0    0  0.89226956399E+02  0.18623456905E+03  0.16131050355E+03  0.27394047907E+03  0.79859520785E+02 0.  0.
         24    2    1    2    0    0  0.37814985116E+02  0.34911620448E+02  0.15860065534E+03  0.18518160165E+03  0.80555964225E+02 0.  0.
        -11    1    5    5    0    0  0.53101960133E+02 -0.38768461085E+01  0.78053314790E+02  0.94483692008E+02  0.00000000000E+00 0.  1.
         12    1    5    5    0    0 -0.15286975018E+02  0.38788466557E+02  0.80547340552E+02  0.90697909639E+02  0.00000000000E+00 0. -1.
         13    1    4    4    0    0  0.10039816773E+03  0.13268276120E+03  0.12762275863E+03  0.20969519718E+03  0.00000000000E+00 0. -1.
        -14    1    4    4    0    0 -0.11171211327E+02  0.53551807852E+02  0.33687744918E+02  0.64245281884E+02  0.00000000000E+00 0.  1.
          5    1    3    3  501    0 -0.55409136351E+02 -0.10509312656E+03 -0.17808375461E+02  0.12020544196E+03  0.41800000000E+01 0. -1.
         -5    1    3    3    0  501 -0.71632805164E+02 -0.11605306294E+03 -0.18033677774E+03  0.22613800653E+03  0.41800000000E+01 0. -1.
</event>
<event>
11    1  0.1704459E-009  0.1817611E+03  0.7561462E-02  0.1068227E+00
         22   -1    0    0    0    0  0.00000000000E+00  0.00000000000E+00  0.15144359911E+03  0.15144359911E+03  0.00000000000E+00 0.  1.
         22   -1    0    0    0    0 -0.00000000000E+00 -0.00000000000E+00 -0.62739533220E+03  0.62739533220E+03  0.00000000000E+00 0.  1.
         25    2    1    2    0    0 -0.65120232102E+02  0.87836098135E+02 -0.26641116744E+03  0.31397481184E+03  0.12509775207E+03 0.  0.
         24    2    1    2    0    0  0.51907989581E+02 -0.15052716820E+03 -0.28623161776E+03  0.33735829920E+03  0.80803559854E+02 0.  0.
        -24    2    1    2    0    0  0.13212242521E+02  0.62691070065E+02  0.76691052106E+02  0.12750582027E+03  0.79192696067E+02 0.  0.
        -13    1    4    4    0    0  0.23949320777E+02 -0.14506625190E+03 -0.21334077111E+03  0.25909857588E+03  0.00000000000E+00 0.  1.
         14    1    4    4    0    0  0.27958668804E+02 -0.54609162958E+01 -0.72890846658E+02  0.78259723323E+02  0.00000000000E+00 0. -1.
         11    1    5    5    0    0  0.10529883820E+01  0.53192981486E+02  0.41755151235E+01  0.53367002824E+02  0.00000000000E+00 0. -1.
        -12    1    5    5    0    0  0.12159254139E+02  0.94980885789E+01  0.72515536983E+02  0.74138817442E+02  0.00000000000E+00 0.  1.
          5    1    3    3  501    0 -0.33241689205E+02  0.10178864772E+03 -0.25582547530E+03  0.27736273166E+03  0.41800000000E+01 0.  1.
         -5    1    3    3    0  501 -0.31878542897E+02 -0.13952549581E+02 -0.10585692140E+02  0.36612080180E+02  0.41800000000E+01 0.  1.
</event>
<event>
11    1  0.1704459E-009  0.1537964E+03  0.7561462E-02  0.1093062E+00
         22   -1    0    0    0    0  0.00000000000E+00  0.00000000000E+00  0.65558163807E+03  0.65558163807E+03  0.00000000000E+00 0. -1.
         22   -1    0    0    0    0 -0.00000000000E+00 -0.00000000000E+00 -0.12881857791E+03  0.12881857791E+03  0.00000000000E+00 0.  1.
         25    2    1    2    0    0 -0.84962718423E+02  0.62011355119E+01  0.99071678028E+02  0.18088495341E+03  0.12508817442E+03 0.  0.
         24    2    1    2    0    0  0.85609670014E+02  0.36899824438E+02 -0.39185184969E+02  0.12787160086E+03  0.78262730217E+02 0.  0.
        -24    2    1    2    0    0 -0.64695159105E+00 -0.43100959950E+02  0.46687656710E+03  0.47564366171E+03  0.80031573304E+02 0.  0.
        -11    1    4    4    0    0  0.83801620787E+02  0.74884754358E+01 -0.48316887931E+02  0.97022216890E+02  0.00000000000E+00 0.  1.
         12    1    4    4    0    0  0.18080492272E+01  0.29411349002E+02  0.91317029625E+01  0.30849383966E+02  0.00000000000E+00 0. -1.
         13    1    5    5    0    0  0.10408964002E+02  0.53552612416E+01  0.32682404674E+03  0.32703361124E+03  0.00000000000E+00 0. -1.
        -14    1    5    5    0    0 -0.11055915593E+02 -0.48456221191E+02  0.14005252036E+03  0.14861005047E+03  0.00000000000E+00 0.  1.
          5    1    3    3  501    0  0.26285789916E+02  0.12005803851E+02 -0.34877862770E+01  0.29406107032E+02  0.41800000000E+01 0. -1.
         -5    1    3    3    0  501 -0.11124850834E+03 -0.58046683393E+01  0.10255946430E+03  0.15147884638E+03  0.41800000000E+01 0. -1.
</event>
<event>
11    1  0.1704459E-009  0.1536549E+03  0.7561462E-02  0.1093202E+00
         22   -1    0    0    0    0  0.00000000000E+00  0.00000000000E+00  0.45070846035E+02  0.45070846035E+02  0.00000000000E+00 0.  1.
         22   -1    0    0    0    0 -0.00000000000E+00 -0.00000000000E+00 -0.16262884099E+04  0.16262884099E+04  0.00000000000E+00 0. -1.
         25    2    1    2    0    0 -0.78309316394E+02 -0.87581643575E+02 -0.85513382451E+03  0.87218316071E+03  0.12508682860E+03 0.  0.
         24    2    1    2    0    0  0.67228176225E+02  0.36228860455E+02 -0.68590866495E+03  0.69491517543E+03  0.81266514515E+02 0.  0.
        -24    2    1    2    0    0  0.11081140170E+02  0.51352783120E+02 -0.40175074416E+02  0.10426091980E+03  0.80600265455E+02 0.  0.
        -11    1    4    4    0    0  0.24183439790E+02 -0.16994154003E+02 -0.82473552101E+02  0.87610084045E+02  0.00000000000E+00 0.  1.
         12    1    4    4    0    0  0.43044736435E+02  0.53223014457E+02 -0.60343511285E+03  0.60730509138E+03  0.00000000000E+00 0. -1.
         11    1    5    5    0    0  0.13959801528E+02  0.53690251945E+02 -0.61379739502E+02  0.82734464608E+02  0.00000000000E+00 0. -1.
        -12    1    5    5    0    0 -0.28786613582E+01 -0.23374688253E+01  0.21204665086E+02  0.21526455192E+02  0.00000000000E+00 0.  1.
          5    1    3    3  501    0 -0.74362083415E+02 -0.27798681767E+02 -0.71910311519E+03  0.72348410407E+03  0.41800000000E+01 0.  1.
         -5    1    3    3    0  501 -0.39472329790E+01 -0.59782961808E+02 -0.13603070932E+03  0.14869905665E+03  0.41800000000E+01 0.  1.
</event>
<event>
11    1  0.1704459E-009  0.1522823E+03  0.7561462E-02  0.1094569E+00
         22   -1    0    0    0    0  0.00000000000E+00  0.00000000000E+00  0.46767696565E+03  0.46767696565E+03  0.00000000000E+00 0. -1.
         22   -1    0    0    0    0 -0.00000000000E+00 -0.00000000000E+00 -0.17805695948E+03  0.17805695948E+03  0.00000000000E+00 0. -1.
         25    2    1    2    0    0 -0.55657986717E+01 -0.86869972264E+02 -0.11260797930E+03  0.18948915634E+03  0.12509281822E+03 0.  0.
        -24    2    1    2    0    0  0.16838325460E+02  0.10486799863E+01  0.85117755498E+02  0.11795287581E+03  0.79895054140E+02 0.  0.
         24    2    1    2    0    0 -0.11272526789E+02  0.85821292277E+02  0.31711022998E+03  0.33829189299E+03  0.79938368982E+02 0.  0.
        -11    1    5    5    0    0  0.28648706797E+02  0.43168887840E+02  0.20987956093E+03  0.21617985885E+03  0.00000000000E+00 0.  1.
         12    1    5    5    0    0 -0.39921233586E+02  0.42652404437E+02  0.10723066905E+03  0.12211203413E+03  0.00000000000E+00 0. -1.
         11    1    4    4    0    0  0.22554221728E+02 -0.21991088936E+02  0.20584662933E+01  0.31567993186E+02  0.00000000000E+00 0. -1.
        -12    1    4    4    0    0 -0.57158962672E+01  0.23039768922E+02  0.83059289205E+02  0.86384882621E+02  0.00000000000E+00 0.  1.
          5    1    3    3  501    0 -0.26682013995E+02 -0.10185332554E+03 -0.12238579429E+03  0.16149855987E+03  0.41800000000E+01 0.  1.
         -5    1    3    3    0  501  0.21116215324E+02  0.14983353275E+02  0.97778149875E+01  0.27990596473E+02  0.41800000000E+01 0.  1.
</event>
<event>
11    1  0.1704459E-009  0.5291368E+03  0.7561462E-02  0.9330672E-01
         22   -1    0    0    0    0  0.00000000000E+00  0.00000000000E+00  0.13354252408E+03  0.13354252408E+03  0.00000000000E+00 0. -1.
         22   -1    0    0    0    0 -0.00000000000E+00 -0.00000000000E+00 -0.27569340228E+04  0.27569340228E+04  0.00000000000E+00 0. -1.
         25    2    1    2    0    0  0.32663630322E+03 -0.34699869815E+03 -0.16420356641E+04  0.17143592971E+04  0.12508919355E+03 0.  0.
         24    2    1    2    0    0 -0.38301913605E+03  0.37066781405E+03 -0.74739597951E+03  0.92164961980E+03  0.82091318386E+02 0.  0.
        -24    2    1    2    0    0  0.56382832829E+02 -0.23669115894E+02 -0.23395985512E+03  0.25446762997E+03  0.79229476880E+02 0.  0.
        -13    1    4    4    0    0 -0.41701166311E+02  0.79160111707E+02 -0.10459971137E+03  0.13764595953E+03  0.00000000000E+00 0.  1.
         14    1    4    4    0    0 -0.34131796974E+03  0.29150770234E+03 -0.64279626814E+03  0.78400366027E+03  0.00000000000E+00 0. -1.
         13    1    5    5    0    0  0.76276210444E+02 -0.13119347283E+02 -0.18719431113E+03  0.20256329300E+03  0.00000000000E+00 0. -1.
        -14    1    5    5    0    0 -0.19893377615E+02 -0.10549768611E+02 -0.46765543995E+02  0.51904336965E+02  0.00000000000E+00 0.  1.
          5    1    3    3  501    0  0.75369011502E+02 -0.16260438854E+03 -0.53205668125E+03  0.56144675574E+03  0.41800000000E+01 0. -1.
         -5    1    3    3    0  501  0.25126729172E+03 -0.18439430961E+03 -0.11099789828E+04  0.11529125413E+04  0.41800000000E+01 0. -1.
</event>
<event>
11    1  0.1704459E-009  0.1353689E+03  0.7561462E-02  0.1112843E+00
         22   -1    0    0    0    0  0.00000000000E+00  0.00000000000E+00  0.22282372447E+03  0.22282372447E+03  0.00000000000E+00 0. -1.
         22   -1    0    0    0    0 -0.00000000000E+00 -0.00000000000E+00 -0.42263047673E+03  0.42263047673E+03  0.00000000000E+00 0.  1.
         25    2    1    2    0    0  0.45189674654E+02 -0.40158155325E+02 -0.26722675100E+03  0.30118536432E+03  0.12509077942E+03 0.  0.
         24    2    1    2    0    0 -0.32029779390E+02  0.29179360168E+02 -0.11344212795E+03  0.14622779228E+03  0.81462316538E+02 0.  0.
        -24    2    1    2    0    0 -0.13159895264E+02  0.10978795157E+02  0.18086212669E+03  0.19804104460E+03  0.78837996468E+02 0.  0.
        -11    1    4    4    0    0 -0.58791979863E+02  0.15123339740E+02 -0.63495490579E+02  0.87845828728E+02  0.00000000000E+00 0.  1.
         12    1    4    4    0    0  0.26762200472E+02  0.14056020428E+02 -0.49946637366E+02  0.58381963555E+02  0.00000000000E+00 0. -1.
         13    1    5    5    0    0 -0.29984102310E+01 -0.24901050504E+02  0.14193620097E+03  0.14413513772E+03  0.00000000000E+00 0. -1.
        -14    1    5    5    0    0 -0.10161485033E+02  0.35879845662E+02  0.38925925721E+02  0.53905906875E+02  0.00000000000E+00 0.  1.
          5    1    3    3  501    0 -0.28059162180E+02 -0.43658085155E+02 -0.51238303110E+02  0.73049168970E+02  0.41800000000E+01 0. -1.
         -5    1    3    3    0  501  0.73248836834E+02  0.34999298299E+01 -0.21598844789E+03  0.22813619535E+03  0.41800000000E+01 0. -1.
</event>
<event>
11    1  0.1704459E-009  0.1404035E+03  0.7561462E-02  0.1107109E+00
         22   -1    0    0    0    0  0.00000000000E+00  0.00000000000E+00  0.25224332567E+03  0.25224332567E+03  0.00000000000E+00 0. -1.
         22   -1    0    0    0    0 -0.00000000000E+00 -0.00000000000E+00 -0.12812753256E+03  0.12812753256E+03  0.00000000000E+00 0.  1.
         25    2    1    2    0    0 -0.46579749150E+01 -0.49168498918E+02  0.14499729225E+02  0.13527377158E+03  0.12509801403E+03 0.  0.
        -24    2    1    2    0    0  0.60426044879E+02  0.61645682668E+02  0.36368764104E+02  0.12148859348E+03  0.77364683486E+02 0.  0.
         24    2    1    2    0    0 -0.55768069964E+02 -0.12477183750E+02  0.73247299779E+02  0.12360849317E+03  0.81536095794E+02 0.  0.
        -11    1    5    5    0    0 -0.40885444065E+02 -0.41854015457E+02  0.21628013095E+02  0.62379075792E+02  0.00000000000E+00 0.  1.
         12    1    5    5    0    0 -0.14882625900E+02  0.29376831708E+02  0.51619286684E+02  0.61229417379E+02  0.00000000000E+00 0. -1.
         11    1    4    4    0    0  0.61977085761E+02  0.75995779274E+02  0.20775295419E+02  0.10024036376E+03  0.00000000000E+00 0. -1.
        -12    1    4    4    0    0 -0.15510408818E+01 -0.14350096606E+02  0.15593468685E+02  0.21248229716E+02  0.00000000000E+00 0.  1.
          5    1    3    3  501    0 -0.75024718767E+01 -0.82717916351E+02  0.40527359777E+02  0.92512053594E+02  0.41800000000E+01 0.  1.
         -5    1    3    3    0  501  0.28444969617E+01  0.33549417433E+02 -0.26027630552E+02  0.42761717987E+02  0.41800000000E+01 0.  1.
</event>
<event>
11    1  0.1704459E-009  0.2212721E+03  0.7561462E-02  0.1040423E+00
         22   -1    0    0    0    0  0.00000000000E+00  0.00000000000E+00  0.24035004031E+03  0.24035004031E+03  0.00000000000E+00 0. -1.
         22   -1    0    0    0    0 -0.00000000000E+00 -0.00000000000E+00 -0.65076232324E+03  0.65076232324E+03  0.00000000000E+00 0. -1.
         25    2    1    2    0    0 -0.15192708905E+03 -0.64248055984E+01 -0.29203546751E+03  0.35221486851E+03  0.12508989090E+03 0.  0.
        -24    2    1    2    0    0  0.53506396437E+02  0.20211135652E+03 -0.19104192831E+03  0.29456263471E+03  0.80982667878E+02 0.  0.
         24    2    1    2    0    0  0.98420692616E+02 -0.19568655092E+03  0.72665112885E+02  0.24433486034E+03  0.80246161260E+02 0.  0.
        -11    1    5    5    0    0  0.63005356109E+01 -0.17774292889E+02  0.36028887048E+02  0.40665746503E+02  0.00000000000E+00 0.  1.
         12    1    5    5    0    0  0.92120157005E+02 -0.17791225804E+03  0.36636225837E+02  0.20366911383E+03  0.00000000000E+00 0. -1.
         11    1    4    4    0    0  0.74624561453E+01  0.14696028582E+03 -0.15660464122E+03  0.21489073389E+03  0.00000000000E+00 0. -1.
        -12    1    4    4    0    0  0.46043940292E+02  0.55151070700E+02 -0.34437287088E+02  0.79671900812E+02  0.00000000000E+00 0.  1.
          5    1    3    3  501    0 -0.94868015168E+02  0.49970684547E+02 -0.11220348288E+03  0.15525496316E+03  0.41800000000E+01 0.  1.
         -5    1    3    3    0  501 -0.57059073885E+02 -0.56395490146E+02 -0.17983198463E+03  0.19695990535E+03  0.41800000000E+01 0.  1.
</event>
<event>
11    1  0.1704459E-009  0.5703234E+03  0.7561462E-02  0.9248800E-01
         22   -1    0    0    0    0  0.00000000000E+00  0.00000000000E+00  0.26965600062E+03  0.26965600062E+03  0.00000000000E+00 0.  1.
         22   -1    0    0    0    0 -0.00000000000E+00 -0.00000000000E+00 -0.16741797134E+04  0.16741797134E+04  0.00000000000E+00 0.  1.
         25    2    1    2    0    0  0.33738027452E+03 -0.44381556854E+03 -0.88274554098E+03  0.10515145750E+04  0.12508198394E+03 0.  0.
        -24    2    1    2    0    0 -0.42407631290E+03  0.36579691508E+03 -0.33833762588E+03  0.66002164011E+03  0.86649374411E+02 0.  0.
         24    2    1    2    0    0  0.86696038375E+02  0.78018653461E+02 -0.18344054595E+03  0.23229949898E+03  0.81911598513E+02 0.  0.
        -13    1    5    5    0    0  0.10179091313E+03  0.74705068998E+02 -0.17038317980E+03  0.21206759604E+03  0.00000000000E+00 0.  1.
         14    1    5    5    0    0 -0.15094874758E+02  0.33135844630E+01 -0.13057366147E+02  0.20231902942E+02  0.00000000000E+00 0. -1.
         11    1    4    4    0    0 -0.32786237431E+03  0.26281546283E+03 -0.29189434205E+03  0.51163269140E+03  0.00000000000E+00 0. -1.
        -12    1    4    4    0    0 -0.96213938585E+02  0.10298145225E+03 -0.46443283831E+02  0.14838894871E+03  0.00000000000E+00 0.  1.
          5    1    3    3  501    0  0.17320410328E+03 -0.15457574804E+03 -0.44284575560E+03  0.50002315839E+03  0.41800000000E+01 0.  1.
         -5    1    3    3    0  501  0.16417617124E+03 -0.28923982050E+03 -0.43989978538E+03  0.55149141657E+03  0.41800000000E+01 0.  1.
</event>
<event>
11    1  0.1704459E-009  0.1884903E+03  0.7561462E-02  0.1062975E+00
         22   -1    0    0    0    0  0.00000000000E+00  0.00000000000E+00  0.99354715554E+02  0.99354715554E+02  0.00000000000E+00 0.  1.
         22   -1    0    0    0    0 -0.00000000000E+00 -0.00000000000E+00 -0.71105743372E+03  0.71105743372E+03  0.00000000000E+00 0.  1.
         25    2    1    2    0    0 -0.51422469943E+02  0.25813594766E+01 -0.25832726490E+03  0.29159833624E+03  0.12508269294E+03 0.  0.
        -24    2    1    2    0    0 -0.78495563264E+00 -0.16751116162E+03 -0.19310324203E+03  0.26923633602E+03  0.84491047631E+02 0.  0.
         24    2    1    2    0    0  0.52207425576E+02  0.16492980214E+03 -0.16027221123E+03  0.24957747701E+03  0.81696269316E+02 0.  0.
        -13    1    5    5    0    0  0.59304188794E+02  0.15292735792E+03 -0.16701492883E+03  0.23408919254E+03  0.00000000000E+00 0.  1.
         14    1    5    5    0    0 -0.70967632181E+01  0.12002444221E+02  0.67427176011E+01  0.15488284479E+02  0.00000000000E+00 0. -1.
         13    1    4    4    0    0  0.13882848385E+02 -0.21191954783E+02 -0.79424806474E+02  0.83367453543E+02  0.00000000000E+00 0. -1.
        -14    1    4    4    0    0 -0.14667804017E+02 -0.14631920683E+03 -0.11367843556E+03  0.18586888248E+03  0.00000000000E+00 0.  1.
          5    1    3    3  501    0  0.16992372735E+02  0.47339715716E+02 -0.12920899684E+03  0.13871635332E+03  0.41800000000E+01 0. -1.
         -5    1    3    3    0  501 -0.68414842678E+02 -0.44758356239E+02 -0.12911826807E+03  0.15288198292E+03  0.41800000000E+01 0. -1.
</event>
<event>
11    1  0.1704459E-009  0.3639004E+03  0.7561462E-02  0.9762719E-01
         22   -1    0    0    0    0  0.00000000000E+00  0.00000000000E+00  0.50954692863E+03  0.50954692863E+03  0.00000000000E+00 0. -1.
         22   -1    0    0    0    0 -0.00000000000E+00 -0.00000000000E+00 -0.12673934016E+04  0.12673934016E+04  0.00000000000E+00 0. -1.
         25    2    1    2    0    0  0.13216305765E+03  0.67082331220E+02 -0.97995894888E+03  0.99896835646E+03  0.12510444734E+03 0.  0.
         24    2    1    2    0    0  0.21640745603E+02 -0.37469895267E+03  0.17163959650E+03  0.42126037057E+03  0.84454258174E+02 0.  0.
        -24    2    1    2    0    0 -0.15380380325E+03  0.30761662145E+03  0.50472879425E+02  0.35671160319E+03  0.80075343335E+02 0.  0.
        -11    1    4    4    0    0  0.29461757627E+02 -0.18552118801E+03  0.44044008385E+02  0.19294035617E+03  0.00000000000E+00 0.  1.
         12    1    4    4    0    0 -0.78210120240E+01 -0.18917776466E+03  0.12759558811E+03  0.22832001440E+03  0.00000000000E+00 0. -1.
         11    1    5    5    0    0 -0.55923387100E+01  0.86071463234E+02  0.58378559228E+01  0.86450283963E+02  0.00000000000E+00 0. -1.
        -12    1    5    5    0    0 -0.14821146454E+03  0.22154515821E+03  0.44635023502E+02  0.27026131923E+03  0.00000000000E+00 0.  1.
          5    1    3    3  501    0  0.13805870409E+03  0.33623103569E+02 -0.56533702359E+03  0.58293579536E+03  0.41800000000E+01 0.  1.
         -5    1    3    3    0  501 -0.58956464469E+01  0.33459227651E+02 -0.41462192529E+03  0.41603256109E+03  0.41800000000E+01 0.  1.
</event>
<event>
11    1  0.1704459E-009  0.1507136E+03  0.7561462E-02  0.1096152E+00
         22   -1    0    0    0    0  0.00000000000E+00  0.00000000000E+00  0.32814983623E+03  0.32814983623E+03  0.00000000000E+00 0. -1.
         22   -1    0    0    0    0 -0.00000000000E+00 -0.00000000000E+00 -0.11005917578E+03  0.11005917578E+03  0.00000000000E+00 0.  1.
         25    2    1    2    0    0 -0.18638221154E+02 -0.83378160867E+02  0.14846951452E+02  0.15221548733E+03  0.12509924707E+03 0.  0.
        -24    2    1    2    0    0 -0.44516609079E+01  0.84076688518E+02  0.60305911103E+02  0.11988701091E+03  0.60393589339E+02 0.  0.
         24    2    1    2    0    0  0.23089882062E+02 -0.69852765103E+00  0.14293779790E+03  0.16610651377E+03  0.81403496571E+02 0.  0.
        -11    1    5    5    0    0 -0.40275173481E+01 -0.80019073067E+01 -0.83426788193E+01  0.12241393157E+02  0.00000000000E+00 0.  1.
         12    1    5    5    0    0  0.27117399410E+02  0.73033796556E+01  0.15128047672E+03  0.15386512061E+03  0.00000000000E+00 0. -1.
         13    1    4    4    0    0 -0.24258440225E+02  0.72732983138E+02  0.59494937091E+02  0.97047443540E+02  0.00000000000E+00 0. -1.
        -14    1    4    4    0    0  0.19806779317E+02  0.11343705381E+02  0.81097401253E+00  0.22839567367E+02  0.00000000000E+00 0.  1.
          5    1    3    3  501    0  0.36824170270E+02 -0.86849162910E+02  0.19053194775E+02  0.96329088262E+02  0.41800000000E+01 0. -1.
         -5    1    3    3    0  501 -0.55462391424E+02  0.34710020423E+01 -0.42062433235E+01  0.55886399066E+02  0.41800000000E+01 0. -1.
</event>
<event>
11    1  0.1704459E-009  0.3066163E+03  0.7561462E-02  0.9974293E-01
         22   -1    0    0    0    0  0.00000000000E+00  0.00000000000E+00  0.46879840762E+03  0.46879840762E+03  0.00000000000E+00 0. -1.
         22   -1    0    0    0    0 -0.00000000000E+00 -0.00000000000E+00 -0.52934023192E+03  0.52934023192E+03  0.00000000000E+00 0. -1.
         25    2    1    2    0    0 -0.75758794689E+02 -0.11527322183E+03 -0.12201692983E+03  0.22263077024E+03  0.12509603530E+03 0.  0.
         24    2    1    2    0    0 -0.22588316715E+03  0.43509504778E+02 -0.23178002876E+03  0.34073975941E+03  0.97289874620E+02 0.  0.
        -24    2    1    2    0    0  0.30164196184E+03  0.71763717056E+02  0.29325513429E+03  0.43476810989E+03  0.82986934888E+02 0.  0.
        -11    1    4    4    0    0 -0.10749276492E+03 -0.22818352856E+02 -0.13495003496E+03  0.17403127211E+03  0.00000000000E+00 0.  1.
         12    1    4    4    0    0 -0.11839040223E+03  0.66327857634E+02 -0.96829993804E+02  0.16670848730E+03  0.00000000000E+00 0. -1.
         13    1    5    5    0    0  0.26854214053E+03  0.77632459646E+02  0.22558334275E+03  0.35920679915E+03  0.00000000000E+00 0. -1.
        -14    1    5    5    0    0  0.33099821310E+02 -0.58687425896E+01  0.67671791539E+02  0.75561310738E+02  0.00000000000E+00 0.  1.
          5    1    3    3  501    0 -0.73454869310E+02 -0.55392010853E+02 -0.63718134283E+01  0.92314490185E+02  0.41800000000E+01 0.  1.
         -5    1    3    3    0  501 -0.23039253783E+01 -0.59881210982E+02 -0.11564511640E+03  0.13031628006E+03  0.41800000000E+01 0.  1.
</event>
<event>
11    1  0.1704459E-009  0.1453858E+03  0.7561462E-02  0.1101689E+00
         22   -1    0    0    0    0  0.00000000000E+00  0.00000000000E+00  0.10891139543E+04  0.10891139543E+04  0.00000000000E+00 0.  1.
         22   -1    0    0    0    0 -0.00000000000E+00 -0.00000000000E+00 -0.56169591483E+03  0.56169591483E+03  0.00000000000E+00 0.  1.
         25    2    1    2    0    0 -0.20143929875E+01 -0.35436282828E+02 -0.22779580981E+03  0.26229304708E+03  0.12508766391E+03 0.  0.
        -24    2    1    2    0    0 -0.56667452813E+02  0.96699633546E+02 -0.29827680930E+03  0.32852736058E+03  0.79994701969E+02 0.  0.
         24    2    1    2    0    0  0.58681845801E+02 -0.61263350717E+02  0.10534906586E+04  0.10599894615E+04  0.80859962583E+02 0.  0.
        -13    1    5    5    0    0  0.40199739844E+02 -0.58950422611E+02  0.10119691749E+04  0.10144815337E+04  0.00000000000E+00 0.  1.
         14    1    5    5    0    0  0.18482105956E+02 -0.23129281064E+01  0.41521483695E+02  0.45507927719E+02  0.00000000000E+00 0. -1.
         11    1    4    4    0    0 -0.15670352277E+02 -0.93418441679E+01 -0.83992072385E+02  0.85950556813E+02  0.00000000000E+00 0. -1.
        -12    1    4    4    0    0 -0.40997100536E+02  0.10604147771E+03 -0.21428473692E+03  0.24257680376E+03  0.00000000000E+00 0.  1.
          5    1    3    3  501    0 -0.52915002942E+02  0.18056987230E+02 -0.98093811163E+02  0.11298637313E+03  0.41800000000E+01 0.  1.
         -5    1    3    3    0  501  0.50900609954E+02 -0.53493270058E+02 -0.12970199864E+03  0.14930667395E+03  0.41800000000E+01 0.  1.
</event>
<event>
11    1  0.1704459E-009  0.3095804E+03  0.7561462E-02  0.9962162E-01
         22   -1    0    0    0    0  0.00000000000E+00  0.00000000000E+00  0.21572103188E+04  0.21572103188E+04  0.00000000000E+00 0. -1.
         22   -1    0    0    0    0 -0.00000000000E+00 -0.00000000000E+00 -0.10916924278E+04  0.10916924278E+04  0.00000000000E+00 0.  1.
         25    2    1    2    0    0  0.13965629686E+03  0.24647470300E+03 -0.10377182420E+04  0.10829403887E+04  0.12508826929E+03 0.  0.
         24    2    1    2    0    0  0.93060111654E+01 -0.32232313388E+03  0.13596860004E+04  0.13997602471E+04  0.81264539240E+02 0.  0.
        -24    2    1    2    0    0 -0.14896230803E+03  0.75848430881E+02  0.74355013264E+03  0.76620211077E+03  0.79095645406E+02 0.  0.
        -13    1    4    4    0    0  0.28652151231E+02 -0.75776989330E+02  0.44047826061E+03  0.44786627017E+03  0.00000000000E+00 0.  1.
         14    1    4    4    0    0 -0.19346140065E+02 -0.24654614455E+03  0.91920773978E+03  0.95189397698E+03  0.00000000000E+00 0. -1.
         11    1    5    5    0    0 -0.14212901950E+03  0.74202705789E+02  0.55954998778E+03  0.58206776973E+03  0.00000000000E+00 0. -1.
        -12    1    5    5    0    0 -0.68332885230E+01  0.16457250918E+01  0.18400014486E+03  0.18413434104E+03  0.00000000000E+00 0.  1.
          5    1    3    3  501    0  0.74131729641E+01  0.10072849768E+03 -0.50498576075E+03  0.51500415176E+03  0.41800000000E+01 0. -1.
         -5    1    3    3    0  501  0.13224312390E+03  0.14574620532E+03 -0.53273248130E+03  0.56793623693E+03  0.41800000000E+01 0. -1.
</event>
<event>
11    1  0.1704459E-009  0.1792305E+03  0.7561462E-02  0.1070267E+00
         22   -1    0    0    0    0  0.00000000000E+00  0.00000000000E+00  0.16158081420E+03  0.16158081420E+03  0.00000000000E+00 0.  1.
         22   -1    0    0    0    0 -0.00000000000E+00 -0.00000000000E+00 -0.14463431419E+04  0.14463431419E+04  0.00000000000E+00 0. -1.
         25    2    1    2    0    0  0.12795030472E+03  0.19167999778E+02 -0.13003523046E+04  0.13127461683E+04  0.12509074174E+03 0.  0.
         24    2    1    2    0    0 -0.12469191521E+03  0.77357348342E+02  0.34373446215E+01  0.16839706029E+03  0.82544058036E+02 0.  0.
        -24    2    1    2    0    0 -0.32583895143E+01 -0.96525348119E+02  0.12152632276E+02  0.12678072749E+03  0.81227498183E+02 0.  0.
        -13    1    4    4    0    0 -0.69196147376E+02  0.62643581210E+02 -0.34578201784E+02  0.99538822160E+02  0.00000000000E+00 0.  1.
         14    1    4    4    0    0 -0.55495767829E+02  0.14713767131E+02  0.38015546405E+02  0.68858238132E+02  0.00000000000E+00 0. -1.
         13    1    5    5    0    0  0.37669651005E+01  0.11879315810E+02  0.13186621587E+02  0.18143736083E+02  0.00000000000E+00 0. -1.
        -14    1    5    5    0    0 -0.70253546148E+01 -0.10840466393E+03 -0.10339893112E+01  0.10863699141E+03  0.00000000000E+00 0.  1.
          5    1    3    3  501    0 -0.83215579788E+01  0.37925759167E+01 -0.72758992107E+01  0.12411408808E+02  0.41800000000E+01 0.  1.
         -5    1    3    3    0  501  0.13627186270E+03  0.15375423861E+02 -0.12930764054E+04  0.13003347595E+04  0.41800000000E+01 0.  1.
</event>
<event>
11    1  0.1704459E-009  0.3930327E+03  0.7561462E-02  0.9670542E-01
         22   -1    0    0    0    0  0.00000000000E+00  0.00000000000E+00  0.22252816634E+03  0.22252816634E+03  0.00000000000E+00 0. -1.
         22   -1    0    0    0    0 -0.00000000000E+00 -0.00000000000E+00 -0.10931708454E+04  0.10931708454E+04  0.00000000000E+00 0. -1.
         25    2    1    2    0    0 -0.36383168019E+03  0.52276369730E+02 -0.65212852586E+03  0.75896303754E+03  0.12508784026E+03 0.  0.
        -24    2    1    2    0    0  0.37960354228E+03 -0.47571866136E+02 -0.25584613497E+03  0.46697392213E+03  0.79028269714E+02 0.  0.
         24    2    1    2    0    0 -0.15771862093E+02 -0.47045035937E+01  0.37331981805E+02  0.89762052013E+02  0.79954143909E+02 0.  0.
        -13    1    5    5    0    0 -0.48627467999E+02 -0.26328550888E+01  0.21549792430E+02  0.53253695868E+02  0.00000000000E+00 0.  1.
         14    1    5    5    0    0  0.32855605905E+02 -0.20716485048E+01  0.15782189375E+02  0.36508356145E+02  0.00000000000E+00 0. -1.
         11    1    4    4    0    0  0.18692789319E+03 -0.58483583258E+02 -0.10645857514E+03  0.22292553686E+03  0.00000000000E+00 0. -1.
        -12    1    4    4    0    0  0.19267564909E+03  0.10911717121E+02 -0.14938755983E+03  0.24404838528E+03  0.00000000000E+00 0.  1.
          5    1    3    3  501    0 -0.10744480175E+03 -0.22421995502E+02 -0.11459237990E+03  0.15873253364E+03  0.41800000000E+01 0. -1.
         -5    1    3    3    0  501 -0.25638687844E+03  0.74698365232E+02 -0.53753614596E+03  0.60023050390E+03  0.41800000000E+01 0. -1.
</event>
<event>
11    1  0.1704459E-009  0.1604796E+03  0.7561462E-02  0.1086627E+00
         22   -1    0    0    0    0  0.00000000000E+00  0.00000000000E+00  0.41700767863E+03  0.41700767863E+03  0.00000000000E+00 0.  1.
         22   -1    0    0    0    0 -0.00000000000E+00 -0.00000000000E+00 -0.95844848052E+02  0.95844848052E+02  0.00000000000E+00 0. -1.
         25    2    1    2    0    0 -0.59396375343E+02 -0.66410656068E+02  0.63451691398E+02  0.16617027452E+03  0.12509251916E+03 0.  0.
         24    2    1    2    0    0  0.71389785275E+02  0.96489485909E+02  0.16593228640E+03  0.22011554323E+03  0.80688328592E+02 0.  0.
        -24    2    1    2    0    0 -0.11993409932E+02 -0.30078829840E+02  0.91778852780E+02  0.12656670892E+03  0.80914745895E+02 0.  0.
        -13    1    4    4    0    0  0.47119017074E+02  0.94074996792E+02  0.16501899057E+03  0.19570787935E+03  0.00000000000E+00 0.  1.
         14    1    4    4    0    0  0.24270768201E+02  0.24144891169E+01  0.91329582420E+00  0.24407663879E+02  0.00000000000E+00 0. -1.
         13    1    5    5    0    0 -0.22134901301E+02 -0.26744465985E+02  0.55540842676E+00  0.34720725726E+02  0.00000000000E+00 0. -1.
        -14    1    5    5    0    0  0.10141491369E+02 -0.33343638555E+01  0.91223444354E+02  0.91845983196E+02  0.00000000000E+00 0.  1.
          5    1    3    3  501    0  0.15868868087E+02 -0.75778860786E+02  0.29331052627E+02  0.82897766946E+02  0.41800000000E+01 0.  1.
         -5    1    3    3    0  501 -0.75265243430E+02  0.93682047180E+01  0.34120638771E+02  0.83272507579E+02  0.41800000000E+01 0.  1.
</event>
<event>
11    1  0.1704459E-009  0.1571493E+03  0.7561462E-02  0.1089790E+00
         22   -1    0    0    0    0  0.00000000000E+00  0.00000000000E+00  0.84941919317E+02  0.84941919317E+02  0.00000000000E+00 0.  1.
         22   -1    0    0    0    0 -0.00000000000E+00 -0.00000000000E+00 -0.29010557739E+04  0.29010557739E+04  0.00000000000E+00 0.  1.
         25    2    1    2    0    0  0.11668631190E+03  0.41120496707E+02 -0.18565433987E+04  0.18648609475E+04  0.12508545736E+03 0.  0.
        -24    2    1    2    0    0 -0.48480754054E+02 -0.64139232101E+02 -0.10003083048E+04  0.10067518814E+04  0.80426496242E+02 0.  0.
         24    2    1    2    0    0 -0.68205557848E+02  0.23018735394E+02  0.40737848908E+02  0.11438486439E+03  0.79009268873E+02 0.  0.
        -11    1    5    5    0    0 -0.84378544232E+02  0.90286300829E+01  0.27364596729E+02  0.89163198922E+02  0.00000000000E+00 0.  1.
         12    1    5    5    0    0  0.16172986385E+02  0.13990105311E+02  0.13373252179E+02  0.25221665469E+02  0.00000000000E+00 0. -1.
         11    1    4    4    0    0  0.13839917010E+02 -0.42165265524E+02 -0.28994183032E+03  0.29331845815E+03  0.00000000000E+00 0. -1.
        -12    1    4    4    0    0 -0.62320671064E+02 -0.21973966577E+02 -0.71036647451E+03  0.71343342322E+03  0.00000000000E+00 0.  1.
          5    1    3    3  501    0  0.12995459161E+03  0.66568685330E+02 -0.16116839582E+04  0.16182899120E+04  0.41800000000E+01 0.  1.
         -5    1    3    3    0  501 -0.13268279711E+02 -0.25448188623E+02 -0.24485944045E+03  0.24657103547E+03  0.41800000000E+01 0.  1.
</event>
<event>
11    1  0.1704459E-009  0.1575549E+03  0.7561462E-02  0.1089400E+00
         22   -1    0    0    0    0  0.00000000000E+00  0.00000000000E+00  0.49204185253E+02  0.49204185253E+02  0.00000000000E+00 0.  1.
         22   -1    0    0    0    0 -0.00000000000E+00 -0.00000000000E+00 -0.12719011738E+04  0.12719011738E+04  0.00000000000E+00 0. -1.
         25    2    1    2    0    0  0.13729001824E+02 -0.38805178080E+02 -0.61529880692E+03  0.62923387607E+03  0.12509325186E+03 0.  0.
         24    2    1    2    0    0  0.63707512069E+02  0.13848899861E+03 -0.40370078646E+03  0.43862551754E+03  0.78614056066E+02 0.  0.
        -24    2    1    2    0    0 -0.77436513894E+02 -0.99683820529E+02 -0.20369739519E+03  0.25324596548E+03  0.81900015039E+02 0.  0.
        -13    1    4    4    0    0  0.14399216447E+02  0.78504236822E+02 -0.11725337114E+03  0.14184007078E+03  0.00000000000E+00 0.  1.
         14    1    4    4    0    0  0.49308295622E+02  0.59984761787E+02 -0.28644741532E+03  0.29678544676E+03  0.00000000000E+00 0. -1.
         11    1    5    5    0    0 -0.65146225869E+02 -0.39631977767E+02 -0.16218005526E+03  0.17921242907E+03  0.00000000000E+00 0. -1.
        -12    1    5    5    0    0 -0.12290288024E+02 -0.60051842762E+02 -0.41517339931E+02  0.74033536413E+02  0.00000000000E+00 0.  1.
          5    1    3    3  501    0  0.32480236488E+02 -0.35552361127E+02 -0.60549554352E+03  0.60742181535E+03  0.41800000000E+01 0. -1.
         -5    1    3    3    0  501 -0.18751234663E+02 -0.32528169527E+01 -0.98032634043E+01  0.21812060721E+02  0.41800000000E+01 0. -1.
</event>
<event>
11    1  0.1704459E-009  0.1658982E+03  0.7561462E-02  0.1081657E+00
         22   -1    0    0    0    0  0.00000000000E+00  0.00000000000E+00  0.17679396849E+03  0.17679396849E+03  0.00000000000E+00 0. -1.
         22   -1    0    0    0    0 -0.00000000000E+00 -0.00000000000E+00 -0.50399029735E+03  0.50399029735E+03  0.00000000000E+00 0. -1.
         25    2    1    2    0    0 -0.16543153990E+02  0.61217084575E+02 -0.30171127649E+03  0.33271473315E+03  0.12509273324E+03 0.  0.
        -24    2    1    2    0    0 -0.11353124340E+03 -0.11351685106E+03 -0.45831290416E+02  0.18513145863E+03  0.79985818062E+02 0.  0.
         24    2    1    2    0    0  0.13007439739E+03  0.52299766486E+02  0.20346238042E+02  0.16293807406E+03  0.80499889098E+02 0.  0.
        -11    1    5    5    0    0  0.29143697006E+02  0.20362592051E+02 -0.29244795443E+02  0.46035293968E+02  0.00000000000E+00 0.  1.
         12    1    5    5    0    0  0.10093070038E+03  0.31937174434E+02  0.49591033485E+02  0.11690278009E+03  0.00000000000E+00 0. -1.
         11    1    4    4    0    0 -0.12118740077E+03 -0.10770514298E+03 -0.55625213793E+02  0.17140871722E+03  0.00000000000E+00 0. -1.
        -12    1    4    4    0    0  0.76561573770E+01 -0.58117080838E+01  0.97939233770E+01  0.13722741408E+02  0.00000000000E+00 0.  1.
          5    1    3    3  501    0  0.46488420445E+02  0.60576231688E+02 -0.18041923018E+03  0.19595719967E+03  0.41800000000E+01 0. -1.
         -5    1    3    3    0  501 -0.63031574436E+02  0.64085288695E+00 -0.12129204630E+03  0.13675753348E+03  0.41800000000E+01 0. -1.
</event>
<event>
11    1  0.1704459E-009  0.5281936E+03  0.7561462E-02  0.9332638E-01
         22   -1    0    0    0    0  0.00000000000E+00  0.00000000000E+00  0.35871325062E+03  0.35871325062E+03  0.00000000000E+00 0.  1.
         22   -1    0    0    0    0 -0.00000000000E+00 -0.00000000000E+00 -0.18422071697E+04  0.18422071697E+04  0.00000000000E+00 0.  1.
         25    2    1    2    0    0 -0.20403694222E+02  0.80628284534E+02 -0.87644502893E+03  0.88922487670E+03  0.12509101324E+03 0.  0.
         24    2    1    2    0    0  0.10259654833E+03 -0.57134468709E+03 -0.55096303756E+03  0.80444875543E+03  0.81343273653E+02 0.  0.
        -24    2    1    2    0    0 -0.82192854103E+02  0.49071640255E+03 -0.56085852603E+02  0.50724678820E+03  0.81212242184E+02 0.  0.
        -13    1    4    4    0    0  0.10689169756E+03 -0.46123124245E+03 -0.47461392142E+03  0.67038680508E+03  0.00000000000E+00 0.  1.
         14    1    4    4    0    0 -0.42951492369E+01 -0.11011344464E+03 -0.76349116138E+02  0.13406195035E+03  0.00000000000E+00 0. -1.
         11    1    5    5    0    0 -0.96492273877E+01  0.20181863710E+01  0.99037211173E+00  0.99076486780E+01  0.00000000000E+00 0. -1.
        -12    1    5    5    0    0 -0.72543626715E+02  0.48869821618E+03 -0.57076224715E+02  0.49733913953E+03  0.00000000000E+00 0.  1.
          5    1    3    3  501    0 -0.69607516578E+02  0.58026867995E+02 -0.42835859958E+03  0.43785943636E+03  0.41800000000E+01 0. -1.
         -5    1    3    3    0  501  0.49203822356E+02  0.22601416539E+02 -0.44808642935E+03  0.45136544034E+03  0.41800000000E+01 0. -1.
</event>
<event>
11    1  0.1704459E-009  0.1914745E+03  0.7561462E-02  0.1060722E+00
         22   -1    0    0    0    0  0.00000000000E+00  0.00000000000E+00  0.23413410304E+03  0.23413410304E+03  0.00000000000E+00 0. -1.
         22   -1    0    0    0    0 -0.00000000000E+00 -0.00000000000E+00 -0.33774785836E+03  0.33774785836E+03  0.00000000000E+00 0.  1.
         25    2    1    2    0    0  0.13648635580E+03 -0.21878019315E+02 -0.17643039890E+03  0.25667718254E+03  0.12509323456E+03 0.  0.
        -24    2    1    2    0    0 -0.15207222866E+03  0.91649861975E+02  0.68500219298E+02  0.20723230646E+03  0.82020051634E+02 0.  0.
         24    2    1    2    0    0  0.15585872859E+02 -0.69771842660E+02  0.43164242860E+01  0.10797247239E+03  0.80798476564E+02 0.  0.
        -11    1    5    5    0    0 -0.25504963010E+02 -0.37294616624E+02 -0.20971310080E+02  0.49811518886E+02  0.00000000000E+00 0.  1.
         12    1    5    5    0    0  0.41090835870E+02 -0.32477226036E+02  0.25287734366E+02  0.58160953507E+02  0.00000000000E+00 0. -1.
         11    1    4    4    0    0 -0.31407537223E+02 -0.11648471921E+02 -0.17632932899E+01  0.33544440608E+02  0.00000000000E+00 0. -1.
        -12    1    4    4    0    0 -0.12066469143E+03  0.10329833390E+03  0.70263512587E+02  0.17368786586E+03  0.00000000000E+00 0.  1.
          5    1    3    3  501    0  0.14889278612E+02 -0.52038328006E+02 -0.24085499730E+02  0.59390755985E+02  0.41800000000E+01 0. -1.
         -5    1    3    3    0  501  0.12159707719E+03  0.30160308691E+02 -0.15234489917E+03  0.19728642656E+03  0.41800000000E+01 0. -1.
</event>
<event>
11    1  0.1704459E-009  0.4071833E+03  0.7561462E-02  0.9628798E-01
         22   -1    0    0    0    0  0.00000000000E+00  0.00000000000E+00  0.38855436606E+03  0.38855436606E+03  0.00000000000E+00 0.  1.
         22   -1    0    0    0    0 -0.00000000000E+00 -0.00000000000E+00 -0.10989342646E+04  0.10989342646E+04  0.00000000000E+00 0. -1.
         25    2    1    2    0    0  0.22243238946E+03  0.31423907470E+03 -0.83333341440E+03  0.92645155403E+03  0.12508212684E+03 0.  0.
         24    2    1    2    0    0 -0.28870852830E+03 -0.28323384402E+03  0.21741857175E+02  0.41298121823E+03  0.80664450355E+02 0.  0.
        -24    2    1    2    0    0  0.66276138836E+02 -0.31005230682E+02  0.10121165872E+03  0.14805585836E+03  0.79516579569E+02 0.  0.
        -11    1    4    4    0    0 -0.18903292683E+03 -0.13039405896E+03  0.43508614595E+01  0.22968454026E+03  0.00000000000E+00 0.  1.
         12    1    4    4    0    0 -0.99675601467E+02 -0.15283978506E+03  0.17390995715E+02  0.18329667798E+03  0.00000000000E+00 0. -1.
         11    1    5    5    0    0  0.16526907633E+01  0.19374156914E+02  0.22509665707E+01  0.19574375939E+02  0.00000000000E+00 0. -1.
        -12    1    5    5    0    0  0.64623448073E+02 -0.50379387597E+02  0.98960692148E+02  0.12848148242E+03  0.00000000000E+00 0.  1.
          5    1    3    3  501    0  0.22775275360E+03  0.24424003031E+03 -0.70520399648E+03  0.78029139315E+03  0.41800000000E+01 0.  1.
         -5    1    3    3    0  501 -0.53203641363E+01  0.69999044397E+02 -0.12812941792E+03  0.14616016087E+03  0.41800000000E+01 0.  1.
</event>
<event>
11    1  0.1704459E-009  0.1902547E+03  0.7561462E-02  0.1061637E+00
         22   -1    0    0    0    0  0.00000000000E+00  0.00000000000E+00  0.87750938434E+03  0.87750938434E+03  0.00000000000E+00 0.  1.
         22   -1    0    0    0    0 -0.00000000000E+00 -0.00000000000E+00 -0.31189006746E+03  0.31189006746E+03  0.00000000000E+00 0.  1.
         25    2    1    2    0    0 -0.53879730114E+01 -0.13517354557E+03 -0.13895326067E+03  0.23077402582E+03  0.12509086565E+03 0.  0.
         24    2    1    2    0    0  0.31941869942E+02  0.15196072642E+03 -0.63347688780E+02  0.18583645491E+03  0.80061931463E+02 0.  0.
        -24    2    1    2    0    0 -0.26553896931E+02 -0.16787180846E+02  0.76792026633E+03  0.77278897107E+03  0.80711458206E+02 0.  0.
        -13    1    4    4    0    0  0.57348439202E+02  0.11126568915E+03 -0.56645369162E+02  0.13739576016E+03  0.00000000000E+00 0.  1.
         14    1    4    4    0    0 -0.25406569260E+02  0.40695037266E+02 -0.67023196176E+01  0.48440694750E+02  0.00000000000E+00 0. -1.
         11    1    5    5    0    0  0.21397146556E+02  0.41031705760E+01  0.80956358445E+02  0.83836781082E+02  0.00000000000E+00 0. -1.
        -12    1    5    5    0    0 -0.47951043487E+02 -0.20890351422E+02  0.68696390788E+03  0.68895218998E+03  0.00000000000E+00 0.  1.
          5    1    3    3  501    0  0.59641980538E+02 -0.66095919493E+02 -0.72123096066E+02  0.11465186349E+03  0.41800000000E+01 0.  1.
         -5    1    3    3    0  501 -0.65029953549E+02 -0.69077626078E+02 -0.66830164600E+02  0.11612216233E+03  0.41800000000E+01 0.  1.
</event>
<event>
11    1  0.1704459E-009  0.2152288E+03  0.7561462E-02  0.1044248E+00
         22   -1    0    0    0    0  0.00000000000E+00  0.00000000000E+00  0.85502890024E+03  0.85502890024E+03  0.00000000000E+00 0.  1.
         22   -1    0    0    0    0 -0.00000000000E+00 -0.00000000000E+00 -0.15041289239E+03  0.15041289239E+03  0.00000000000E+00 0.  1.
         25    2    1    2    0    0  0.20183611604E+03 -0.78919846720E+02  0.12713261838E+03  0.28066434095E+03  0.12507441658E+03 0.  0.
         24    2    1    2    0    0 -0.14324216594E+03 -0.91260376610E+02  0.11021951433E+03  0.21786475772E+03  0.80435917831E+02 0.  0.
        -24    2    1    2    0    0 -0.58593950100E+02  0.17018022333E+03  0.46726387515E+03  0.50691269396E+03  0.78932825082E+02 0.  0.
        -11    1    4    4    0    0  0.95964088706E+00 -0.22196870297E+02 -0.23255809625E+01  0.22338985842E+02  0.00000000000E+00 0.  1.
         12    1    4    4    0    0 -0.14420180682E+03 -0.69063506313E+02  0.11254509529E+03  0.19552577188E+03  0.00000000000E+00 0. -1.
         13    1    5    5    0    0  0.76348270630E+01  0.70557222407E+02  0.11764310984E+03  0.13739182476E+03  0.00000000000E+00 0. -1.
        -14    1    5    5    0    0 -0.66228777163E+02  0.99623000923E+02  0.34962076531E+03  0.36952086920E+03  0.00000000000E+00 0.  1.
          5    1    3    3  501    0  0.20982608429E+03 -0.45505432110E+02  0.10107721067E+03  0.23734322177E+03  0.41800000000E+01 0. -1.
         -5    1    3    3    0  501 -0.79899682594E+01 -0.33414414609E+02  0.26055407709E+02  0.43321119184E+02  0.41800000000E+01 0. -1.
</event>
<event>
11    1  0.1704459E-009  0.1613356E+03  0.7561462E-02  0.1085828E+00
         22   -1    0    0    0    0  0.00000000000E+00  0.00000000000E+00  0.48958379880E+03  0.48958379880E+03  0.00000000000E+00 0.  1.
         22   -1    0    0    0    0 -0.00000000000E+00 -0.00000000000E+00 -0.11053170270E+03  0.11053170270E+03  0.00000000000E+00 0. -1.
         25    2    1    2    0    0 -0.29619404593E+02  0.73526679136E+02  0.10059933986E+03  0.17902728358E+03  0.12508820653E+03 0.  0.
         24    2    1    2    0    0  0.14376708841E+03 -0.47741669294E+02  0.12838206983E+03  0.21438882872E+03  0.80823086603E+02 0.  0.
        -24    2    1    2    0    0 -0.11414768381E+03 -0.25785009842E+02  0.15007068640E+03  0.20669938920E+03  0.80677544120E+02 0.  0.
        -11    1    4    4    0    0  0.74409076915E+02  0.22279815351E+01  0.99274744405E+02  0.12408525096E+03  0.00000000000E+00 0.  1.
         12    1    4    4    0    0  0.69358011491E+02 -0.49969650829E+02  0.29107325427E+02  0.90303577756E+02  0.00000000000E+00 0. -1.
         11    1    5    5    0    0 -0.62221246396E+02  0.46821458191E+01  0.23747924502E+02  0.66763537284E+02  0.00000000000E+00 0. -1.
        -12    1    5    5    0    0 -0.51926437417E+02 -0.30467155661E+02  0.12632276190E+03  0.13993585192E+03  0.00000000000E+00 0.  1.
          5    1    3    3  501    0 -0.62221595576E+02 -0.53805784297E+01  0.43855037522E+02  0.76427837182E+02  0.41800000000E+01 0.  1.
         -5    1    3    3    0  501  0.32602190982E+02  0.78907257565E+02  0.56744302339E+02  0.10259944640E+03  0.41800000000E+01 0.  1.
</event>
<event>
11    1  0.1704459E-009  0.1349946E+03  0.7561462E-02  0.1113280E+00
         22   -1    0    0    0    0  0.00000000000E+00  0.00000000000E+00  0.23863003893E+04  0.23863003893E+04  0.00000000000E+00 0. -1.
         22   -1    0    0    0    0 -0.00000000000E+00 -0.00000000000E+00 -0.65395004884E+02  0.65395004884E+02  0.00000000000E+00 0. -1.
         25    2    1    2    0    0 -0.45320516974E+02 -0.17578087384E+02  0.33685275022E+02  0.13836882709E+03  0.12509314986E+03 0.  0.
         24    2    1    2    0    0  0.76818385835E+02 -0.74052420816E+02  0.40581830480E+03  0.42737620601E+03  0.81099318879E+02 0.  0.
        -24    2    1    2    0    0 -0.31497868861E+02  0.91630508201E+02  0.18814018046E+04  0.18859503611E+04  0.88021294995E+02 0.  0.
        -11    1    4    4    0    0  0.34755275096E+01 -0.16006054330E+02  0.71308200897E+01  0.17863976653E+02  0.00000000000E+00 0.  1.
         12    1    4    4    0    0  0.73342858325E+02 -0.58046366486E+02  0.39868748471E+03  0.40951222936E+03  0.00000000000E+00 0. -1.
         11    1    5    5    0    0 -0.49471094544E+01  0.80237323597E+02  0.77237086409E+03  0.77654314348E+03  0.00000000000E+00 0. -1.
        -12    1    5    5    0    0 -0.26550759407E+02  0.11393184603E+02  0.11090309405E+04  0.11094072177E+04  0.00000000000E+00 0.  1.
          5    1    3    3  501    0 -0.10921140824E+01 -0.16921080830E+02 -0.44853613056E+02  0.48133509054E+02  0.41800000000E+01 0.  1.
         -5    1    3    3    0  501 -0.44228402891E+02 -0.65700655462E+00  0.78538888078E+02  0.90235318033E+02  0.41800000000E+01 0.  1.
</event>
<event>
11    1  0.1704459E-009  0.6080529E+03  0.7561462E-02  0.9179983E-01
         22   -1    0    0    0    0  0.00000000000E+00  0.00000000000E+00  0.45420544822E+03  0.45420544822E+03  0.00000000000E+00 0.  1.
         22   -1    0    0    0    0 -0.00000000000E+00 -0.00000000000E+00 -0.16809149801E+04  0.16809149801E+04  0.00000000000E+00 0.  1.
         25    2    1    2    0    0 -0.58462773318E+02 -0.58770123365E+03 -0.12816155687E+04  0.14166845976E+04  0.12508456053E+03 0.  0.
        -24    2    1    2    0    0  0.48704399492E+02  0.61669947852E+03  0.83251033627E+02  0.62959731913E+03  0.82290244332E+02 0.  0.
         24    2    1    2    0    0  0.97583738261E+01 -0.28998244877E+02 -0.28344996764E+02  0.88838511535E+02  0.78439264559E+02 0.  0.
        -11    1    5    5    0    0 -0.52835706704E+01  0.26331270376E+02 -0.92803033419E+01  0.28414361664E+02  0.00000000000E+00 0.  1.
         12    1    5    5    0    0  0.15041944496E+02 -0.55329515253E+02 -0.19064693422E+02  0.60424149871E+02  0.00000000000E+00 0. -1.
         11    1    4    4    0    0  0.67147014118E+02  0.34307287069E+03  0.55301902645E+02  0.35392939486E+03  0.00000000000E+00 0. -1.
        -12    1    4    4    0    0 -0.18442614626E+02  0.27362660783E+03  0.27949130981E+02  0.27566792427E+03  0.00000000000E+00 0.  1.
          5    1    3    3  501    0 -0.80827421566E+02 -0.56683406904E+03 -0.12245270574E+04  0.13517832372E+04  0.41800000000E+01 0.  1.
         -5    1    3    3    0  501  0.22364648248E+02 -0.20867164610E+02 -0.57088511346E+02  0.64901360369E+02  0.41800000000E+01 0.  1.
</event>
<event>
11    1  0.1704459E-009  0.1564233E+03  0.7561462E-02  0.1090490E+00
         22   -1    0    0    0    0  0.00000000000E+00  0.00000000000E+00  0.27108486639E+04  0.27108486639E+04  0.00000000000E+00 0.  1.
         22   -1    0    0    0    0 -0.00000000000E+00 -0.00000000000E+00 -0.22764677766E+03  0.22764677766E+03  0.00000000000E+00 0.  1.
         25    2    1    2    0    0 -0.62949614422E+02 -0.63847037224E+02 -0.57619261038E+02  0.16433771069E+03  0.12509118992E+03 0.  0.
        -24    2    1    2    0    0  0.65623399789E+02  0.71074172734E+02 -0.80853113010E+02  0.15105197996E+03  0.83195589643E+02 0.  0.
         24    2    1    2    0    0 -0.26737853674E+01 -0.72271355101E+01  0.26216742603E+04  0.26231057509E+04  0.86304535264E+02 0.  0.
        -11    1    5    5    0    0 -0.41056068851E+02 -0.11367962565E+02  0.18244859460E+04  0.18249832324E+04  0.00000000000E+00 0.  1.
         12    1    5    5    0    0  0.38382283483E+02  0.41408270553E+01  0.79718831425E+03  0.79812251848E+03  0.00000000000E+00 0. -1.
         13    1    4    4    0    0  0.57411441141E+02  0.13262510750E+02 -0.10886791855E+02  0.59920697611E+02  0.00000000000E+00 0. -1.
        -14    1    4    4    0    0  0.82119586480E+01  0.57811661984E+02 -0.69966321155E+02  0.91131282346E+02  0.00000000000E+00 0.  1.
          5    1    3    3  501    0 -0.67980846466E+02 -0.97776095839E+02 -0.48054637897E+02  0.12848455560E+03  0.41800000000E+01 0. -1.
         -5    1    3    3    0  501  0.50312320436E+01  0.33929058614E+02 -0.95646231408E+01  0.35853155094E+02  0.41800000000E+01 0. -1.
</event>
<event>
11    1  0.1704459E-009  0.4011418E+03  0.7561462E-02  0.9646395E-01
         22   -1    0    0    0    0  0.00000000000E+00  0.00000000000E+00  0.14470966070E+04  0.14470966070E+04  0.00000000000E+00 0. -1.
         22   -1    0    0    0    0 -0.00000000000E+00 -0.00000000000E+00 -0.27488188772E+03  0.27488188772E+03  0.00000000000E+00 0. -1.
         25    2    1    2    0    0  0.25084416070E+03 -0.30899115923E+03 -0.37444268784E+02  0.41886710606E+03  0.12509696173E+03 0.  0.
        -24    2    1    2    0    0 -0.19731627947E+03  0.25528231778E+03  0.62098889537E+03  0.70419204716E+03  0.78463081663E+02 0.  0.
         24    2    1    2    0    0 -0.53527881226E+02  0.53708841448E+02  0.58867009269E+03  0.59891934150E+03  0.80137543529E+02 0.  0.
        -13    1    5    5    0    0  0.16910420788E+02  0.16402160276E+02  0.63389594423E+02  0.67625689454E+02  0.00000000000E+00 0.  1.
         14    1    5    5    0    0 -0.70438302014E+02  0.37306681172E+02  0.52528049826E+03  0.53129365205E+03  0.00000000000E+00 0. -1.
         13    1    4    4    0    0 -0.33611049255E+02  0.10259864353E+03  0.18984884037E+03  0.21840047269E+03  0.00000000000E+00 0. -1.
        -14    1    4    4    0    0 -0.16370523022E+03  0.15268367425E+03  0.43114005501E+03  0.48579157446E+03  0.00000000000E+00 0.  1.
          5    1    3    3  501    0  0.23667016853E+03 -0.28171783832E+03  0.29051023591E+01  0.36797231026E+03  0.41800000000E+01 0. -1.
         -5    1    3    3    0  501  0.14173992166E+02 -0.27273320906E+02 -0.40349371143E+02  0.50894795793E+02  0.41800000000E+01 0. -1.
</event>
<event>
11    1  0.1704459E-009  0.1447443E+03  0.7561462E-02  0.1102373E+00
         22   -1    0    0    0    0  0.00000000000E+00  0.00000000000E+00  0.28852479344E+03  0.28852479344E+03  0.00000000000E+00 0. -1.
         22   -1    0    0    0    0 -0.00000000000E+00 -0.00000000000E+00 -0.38281943819E+03  0.38281943819E+03  0.00000000000E+00 0. -1.
         25    2    1    2    0    0 -0.13902708633E+02  0.81285581769E+02 -0.20493137092E+03  0.25385936298E+03  0.12508828192E+03 0.  0.
        -24    2    1    2    0    0  0.37754657103E+02 -0.56753537360E+02 -0.12650606289E+03  0.16479975144E+03  0.80677109457E+02 0.  0.
         24    2    1    2    0    0 -0.23851948471E+02 -0.24532044409E+02  0.23714278907E+03  0.25268511721E+03  0.80264122759E+02 0.  0.
        -13    1    5    5    0    0 -0.23167046896E+02  0.23412376755E+02  0.52990155713E+02  0.62392371727E+02  0.00000000000E+00 0.  1.
         14    1    5    5    0    0 -0.68490157418E+00 -0.47944421164E+02  0.18415263335E+03  0.19029274548E+03  0.00000000000E+00 0. -1.
         11    1    4    4    0    0  0.24657427821E+02  0.33662344380E+01 -0.89730003262E+02  0.93117097068E+02  0.00000000000E+00 0. -1.
        -12    1    4    4    0    0  0.13097229282E+02 -0.60119771798E+02 -0.36776059633E+02  0.71682654374E+02  0.00000000000E+00 0.  1.
          5    1    3    3  501    0 -0.68197376188E+02  0.45640341709E+02 -0.90671632981E+02  0.12236314943E+03  0.41800000000E+01 0. -1.
         -5    1    3    3    0  501  0.54294667555E+02  0.35645240061E+02 -0.11425973794E+03  0.13149621355E+03  0.41800000000E+01 0. -1.
</event>
<event>
11    1  0.1704459E-009  0.2034978E+03  0.7561462E-02  0.1052077E+00
         22   -1    0    0    0    0  0.00000000000E+00  0.00000000000E+00  0.60820121881E+03  0.60820121881E+03  0.00000000000E+00 0.  1.
         22   -1    0    0    0    0 -0.00000000000E+00 -0.00000000000E+00 -0.15799362290E+03  0.15799362290E+03  0.00000000000E+00 0.  1.
         25    2    1    2    0    0 -0.11268765004E+03 -0.84948046904E+02  0.48336837059E+02  0.19467682525E+03  0.12509172365E+03 0.  0.
         24    2    1    2    0    0  0.78122122686E+02  0.18377013642E+03  0.91439344727E+02  0.23411191044E+03  0.81072213205E+02 0.  0.
        -24    2    1    2    0    0  0.34565527356E+02 -0.98822089518E+02  0.31043141412E+03  0.33740610602E+03  0.80713297865E+02 0.  0.
        -11    1    4    4    0    0  0.17781300286E+02  0.13320720022E+03  0.40558506269E+02  0.14037565765E+03  0.00000000000E+00 0.  1.
         12    1    4    4    0    0  0.60340822399E+02  0.50562936200E+02  0.50880838458E+02  0.93736252790E+02  0.00000000000E+00 0. -1.
         13    1    5    5    0    0  0.28528680629E+02 -0.15982795381E+02  0.17876063454E+03  0.18172699257E+03  0.00000000000E+00 0. -1.
        -14    1    5    5    0    0  0.60368467274E+01 -0.82839294137E+02  0.13167077958E+03  0.15567911345E+03  0.00000000000E+00 0.  1.
          5    1    3    3  501    0 -0.70000372289E+02  0.13993044328E+02 -0.97836351644E+01  0.72173744029E+02  0.41800000000E+01 0.  1.
         -5    1    3    3    0  501 -0.42687277753E+02 -0.98941091232E+02  0.58120472224E+02  0.12250308122E+03  0.41800000000E+01 0.  1.
</event>
<event>
11    1  0.1704459E-009  0.8603084E+03  0.7561462E-02  0.8824566E-01
         22   -1    0    0    0    0  0.00000000000E+00  0.00000000000E+00  0.14653025590E+04  0.14653025590E+04  0.00000000000E+00 0.  1.
         22   -1    0    0    0    0 -0.00000000000E+00 -0.00000000000E+00 -0.49500727636E+03  0.49500727636E+03  0.00000000000E+00 0.  1.
         25    2    1    2    0    0 -0.28527230069E+03 -0.14191232743E+03 -0.83778214600E+01  0.34239077988E+03  0.12506743797E+03 0.  0.
         24    2    1    2    0    0  0.72706740644E+03  0.31306618187E+03  0.69620274823E+03  0.10573938581E+04  0.82134382503E+02 0.  0.
        -24    2    1    2    0    0 -0.44179510575E+03 -0.17115385444E+03  0.28247035589E+03  0.56052519739E+03  0.99611433066E+02 0.  0.
        -11    1    4    4    0    0  0.49256281519E+03  0.24181561274E+03  0.51557527057E+03  0.75293477613E+03  0.00000000000E+00 0.  1.
         12    1    4    4    0    0  0.23450459125E+03  0.71250569127E+02  0.18062747766E+03  0.30445908198E+03  0.00000000000E+00 0. -1.
         11    1    5    5    0    0 -0.33108552128E+03 -0.15447461210E+03  0.25410953015E+03  0.44502997821E+03  0.00000000000E+00 0. -1.
        -12    1    5    5    0    0 -0.11070958447E+03 -0.16679242334E+02  0.28360825741E+02  0.11549521919E+03  0.00000000000E+00 0.  1.
          5    1    3    3  501    0 -0.13862393257E+03 -0.10038072900E+03  0.51194355328E+02  0.17869308843E+03  0.41800000000E+01 0.  1.
         -5    1    3    3    0  501 -0.14664836812E+03 -0.41531598434E+02 -0.59572176788E+02  0.16369769145E+03  0.41800000000E+01 0.  1.
</event>
<event>
11    1  0.1704459E-009  0.2570384E+03  0.7561462E-02  0.1020215E+00
         22   -1    0    0    0    0  0.00000000000E+00  0.00000000000E+00  0.77718565831E+02  0.77718565831E+02  0.00000000000E+00 0. -1.
         22   -1    0    0    0    0 -0.00000000000E+00 -0.00000000000E+00 -0.11870429729E+04  0.11870429729E+04  0.00000000000E+00 0. -1.
         25    2    1    2    0    0 -0.16629825686E+03 -0.14871323871E+03 -0.43040927691E+03  0.50066910996E+03  0.12508666761E+03 0.  0.
         24    2    1    2    0    0  0.12223631877E+03  0.19411260675E+03 -0.53528561422E+03  0.58781773061E+03  0.79859713878E+02 0.  0.
        -24    2    1    2    0    0  0.44061938095E+02 -0.45399368044E+02 -0.14362951597E+03  0.17627469820E+03  0.80254435142E+02 0.  0.
        -13    1    4    4    0    0 -0.11673383431E+01  0.59349114720E+02 -0.11152392807E+03  0.12633790654E+03  0.00000000000E+00 0.  1.
         14    1    4    4    0    0  0.12340365711E+03  0.13476349203E+03 -0.42376168615E+03  0.46147982406E+03  0.00000000000E+00 0. -1.
         11    1    5    5    0    0  0.35285561289E+02 -0.67469603667E+02 -0.12377221997E+03  0.14531614050E+03  0.00000000000E+00 0. -1.
        -12    1    5    5    0    0  0.87763768057E+01  0.22070235623E+02 -0.19857296009E+02  0.30958557703E+02  0.00000000000E+00 0.  1.
          5    1    3    3  501    0 -0.17791975732E+02 -0.86168332721E+02 -0.10155721671E+03  0.13443539947E+03  0.41800000000E+01 0.  1.
         -5    1    3    3    0  501 -0.14850628113E+03 -0.62544905984E+02 -0.32885206020E+03  0.36623371049E+03  0.41800000000E+01 0.  1.
</event>
<event>
11    1  0.1704459E-009  0.1747190E+03  0.7561462E-02  0.1073997E+00
         22   -1    0    0    0    0  0.00000000000E+00  0.00000000000E+00  0.63146686839E+03  0.63146686839E+03  0.00000000000E+00 0.  1.
         22   -1    0    0    0    0 -0.00000000000E+00 -0.00000000000E+00 -0.29849759884E+03  0.29849759884E+03  0.00000000000E+00 0. -1.
         25    2    1    2    0    0  0.15817811473E+03  0.20857145768E+02 -0.14155674631E+03  0.24726728137E+03  0.12508980574E+03 0.  0.
         24    2    1    2    0    0 -0.94260598412E+02  0.23857339478E+02 -0.58089867004E+02  0.13861079297E+03  0.79901728513E+02 0.  0.
        -24    2    1    2    0    0 -0.63917516314E+02 -0.44714485246E+02  0.53261588286E+03  0.54408639289E+03  0.79154849355E+02 0.  0.
        -11    1    4    4    0    0 -0.93487209689E+01 -0.34684335088E+01  0.18516009629E+02  0.21030245537E+02  0.00000000000E+00 0.  1.
         12    1    4    4    0    0 -0.84911877443E+02  0.27325772987E+02 -0.76605876633E+02  0.11758054743E+03  0.00000000000E+00 0. -1.
         11    1    5    5    0    0  0.51351024585E+01  0.10364667853E+02  0.14764353509E+02  0.18755845796E+02  0.00000000000E+00 0. -1.
        -12    1    5    5    0    0 -0.69052618772E+02 -0.55079153098E+02  0.51785152935E+03  0.52533054710E+03  0.00000000000E+00 0.  1.
          5    1    3    3  501    0  0.12054571576E+03  0.36234337599E+02 -0.31434896660E+02  0.12980686399E+03  0.41800000000E+01 0.  1.
         -5    1    3    3    0  501  0.37632398961E+02 -0.15377191831E+02 -0.11012184965E+03  0.11746041738E+03  0.41800000000E+01 0.  1.
</event>
<event>
11    1  0.1704459E-009  0.1418115E+03  0.7561462E-02  0.1105552E+00
         22   -1    0    0    0    0  0.00000000000E+00  0.00000000000E+00  0.22714764444E+03  0.22714764444E+03  0.00000000000E+00 0. -1.
         22   -1    0    0    0    0 -0.00000000000E+00 -0.00000000000E+00 -0.13255751919E+03  0.13255751919E+03  0.00000000000E+00 0.  1.
         25    2    1    2    0    0 -0.17408511246E+01  0.54571294308E+02  0.77888081032E+01  0.13670585681E+03  0.12508704580E+03 0.  0.
         24    2    1    2    0    0 -0.29725514991E+02 -0.78481557452E+02  0.45306343391E+02  0.12394534318E+03  0.79163263219E+02 0.  0.
        -24    2    1    2    0    0  0.31466366116E+02  0.23910263144E+02  0.41494973747E+02  0.99053963641E+02  0.80796175569E+02 0.  0.
        -13    1    4    4    0    0 -0.29729746200E+02 -0.33418289044E+02 -0.16309445658E+02  0.47609220425E+02  0.00000000000E+00 0.  1.
         14    1    4    4    0    0  0.42312091102E-02 -0.45063268408E+02  0.61615789049E+02  0.76336122757E+02  0.00000000000E+00 0. -1.
         11    1    5    5    0    0  0.11987827682E+02  0.32357709253E+02  0.61090034469E+02  0.70162109946E+02  0.00000000000E+00 0. -1.
        -12    1    5    5    0    0  0.19478538434E+02 -0.84474461092E+01 -0.19595060722E+02  0.28891853696E+02  0.00000000000E+00 0.  1.
          5    1    3    3  501    0 -0.50702510436E+02  0.58011083210E+02  0.29849646331E+02  0.82731518333E+02  0.41800000000E+01 0.  1.
         -5    1    3    3    0  501  0.48961659311E+02 -0.34397889017E+01 -0.22060838228E+02  0.53974338472E+02  0.41800000000E+01 0.  1.
</event>
<event>
11    1  0.1704459E-009  0.2868875E+03  0.7561462E-02  0.1005899E+00
         22   -1    0    0    0    0  0.00000000000E+00  0.00000000000E+00  0.99484803641E+03  0.99484803641E+03  0.00000000000E+00 0.  1.
         22   -1    0    0    0    0 -0.00000000000E+00 -0.00000000000E+00 -0.18878552389E+03  0.18878552389E+03  0.00000000000E+00 0. -1.
         25    2    1    2    0    0 -0.49157861492E+02 -0.11318583331E+03 -0.12993905282E+02  0.17619154803E+03  0.12508833604E+03 0.  0.
         24    2    1    2    0    0  0.30087644770E+03  0.39511539684E+02  0.43800568892E+03  0.53890565125E+03  0.80514091133E+02 0.  0.
        -24    2    1    2    0    0 -0.25171858621E+03  0.73674293625E+02  0.38105072888E+03  0.46853636102E+03  0.74407764575E+02 0.  0.
        -11    1    4    4    0    0  0.24465596227E+03  0.17414841078E+01  0.36401902052E+03  0.43859938434E+03  0.00000000000E+00 0.  1.
         12    1    4    4    0    0  0.56220485438E+02  0.37770055576E+02  0.73986668392E+02  0.10030626691E+03  0.00000000000E+00 0. -1.
         11    1    5    5    0    0 -0.63104942207E+00 -0.64117156521E+01  0.17750518114E+01  0.66827486792E+01  0.00000000000E+00 0. -1.
        -12    1    5    5    0    0 -0.25108753679E+03  0.80086009277E+02  0.37927567707E+03  0.46185361234E+03  0.00000000000E+00 0.  1.
          5    1    3    3  501    0  0.19397266081E+01 -0.12973432877E+02 -0.54504315431E+02  0.56216236983E+02  0.41800000000E+01 0.  1.
         -5    1    3    3    0  501 -0.51097588100E+02 -0.10021240043E+03  0.41510410149E+02  0.11997531105E+03  0.41800000000E+01 0.  1.
</event>
<event>
11    1  0.1704459E-009  0.1375015E+03  0.7561462E-02  0.1110381E+00
         22   -1    0    0    0    0  0.00000000000E+00  0.00000000000E+00  0.10436095531E+03  0.10436095531E+03  0.00000000000E+00 0.  1.
         22   -1    0    0    0    0 -0.00000000000E+00 -0.00000000000E+00 -0.66714294799E+03  0.66714294799E+03  0.00000000000E+00 0.  1.
         25    2    1    2    0    0  0.88035917904E+01 -0.37764702356E+02 -0.36377227611E+03  0.38662831400E+03  0.12509000099E+03 0.  0.
        -24    2    1    2    0    0  0.30843185047E+02  0.75345053332E+02 -0.25065618853E+03  0.27463027154E+03  0.77233943783E+02 0.  0.
         24    2    1    2    0    0 -0.39646776837E+02 -0.37580350976E+02  0.51646471962E+02  0.11024531776E+03  0.80638218778E+02 0.  0.
        -13    1    5    5    0    0 -0.36927205522E+02 -0.59115831416E+02  0.21201733081E+02  0.72854742586E+02  0.00000000000E+00 0.  1.
         14    1    5    5    0    0 -0.27195713150E+01  0.21535480440E+02  0.30444738881E+02  0.37390575169E+02  0.00000000000E+00 0. -1.
         11    1    4    4    0    0 -0.42924487206E+01  0.53638693539E+01 -0.13372176687E+03  0.13389812227E+03  0.00000000000E+00 0. -1.
        -12    1    4    4    0    0  0.35135633767E+02  0.69981183978E+02 -0.11693442165E+03  0.14073214927E+03  0.00000000000E+00 0.  1.
          5    1    3    3  501    0  0.66783836502E+02 -0.22762210104E+02 -0.20847012436E+03  0.22012601886E+03  0.41800000000E+01 0. -1.
         -5    1    3    3    0  501 -0.57980244711E+02 -0.15002492252E+02 -0.15530215175E+03  0.16650229515E+03  0.41800000000E+01 0. -1.
</event>
<event>
11    1  0.1704459E-009  0.2484476E+03  0.7561462E-02  0.1024729E+00
         22   -1    0    0    0    0  0.00000000000E+00  0.00000000000E+00  0.12440456209E+03  0.12440456209E+03  0.00000000000E+00 0. -1.
         22   -1    0    0    0    0 -0.00000000000E+00 -0.00000000000E+00 -0.12687208470E+04  0.12687208470E+04  0.00000000000E+00 0.  1.
         25    2    1    2    0    0 -0.27979093706E+02 -0.33370040101E+02 -0.72006934803E+03  0.73215095423E+03  0.12509502210E+03 0.  0.
         24    2    1    2    0    0  0.22853526796E+03  0.10072926726E+03 -0.14012030199E+03  0.29711647453E+03  0.79181730368E+02 0.  0.
        -24    2    1    2    0    0 -0.20055617425E+03 -0.67359227164E+02 -0.28412663488E+03  0.36385798032E+03  0.83094167518E+02 0.  0.
        -13    1    4    4    0    0  0.11964303019E+03  0.15028225576E+02 -0.43517232309E+02  0.12819536554E+03  0.00000000000E+00 0.  1.
         14    1    4    4    0    0  0.10889223777E+03  0.85701041688E+02 -0.96603069683E+02  0.16892110900E+03  0.00000000000E+00 0. -1.
         13    1    5    5    0    0 -0.17238716139E+03 -0.42251168408E+02 -0.17862973706E+03  0.25181556268E+03  0.00000000000E+00 0. -1.
        -14    1    5    5    0    0 -0.28169012861E+02 -0.25108058755E+02 -0.10549689782E+03  0.11204241764E+03  0.00000000000E+00 0.  1.
          5    1    3    3  501    0 -0.73984085643E+02 -0.14780855170E+02 -0.54231659889E+03  0.54755537111E+03  0.41800000000E+01 0.  1.
         -5    1    3    3    0  501  0.46004991937E+02 -0.18589184930E+02 -0.17775274914E+03  0.18459558312E+03  0.41800000000E+01 0.  1.
</event>
<event>
11    1  0.1934967E-009  0.2658227E+04  0.7561462E-02  0.7840400E-01
         22   -1    0    0    0    0  0.00000000000E+00  0.00000000000E+00  0.13598335456E+04  0.13598335456E+04  0.00000000000E+00 0.  1.
         22   -1    0    0    0    0 -0.00000000000E+00 -0.00000000000E+00 -0.12990878863E+04  0.12990878863E+04  0.00000000000E+00 0.  1.
         25    2    1    2    0    0  0.76792491482E+03 -0.54332164894E+03 -0.87914784448E+03  0.12936212982E+04  0.12509213337E+03 0.  0.
        -24    2    1    2    0    0 -0.54256663205E+03  0.47517420796E+03  0.80002593182E+03  0.10801765156E+04  0.81060071765E+02 0.  0.
         24    2    1    2    0    0 -0.22535828276E+03  0.68147440983E+02  0.13986757199E+03  0.28512361802E+03  0.79385833326E+02 0.  0.
        -11    1    5    5    0    0 -0.19023084453E+03  0.73631720711E+02  0.87803401081E+02  0.22207845853E+03  0.00000000000E+00 0.  1.
         12    1    5    5    0    0 -0.35127438239E+02 -0.54842797279E+01  0.52064170912E+02  0.63045159482E+02  0.00000000000E+00 0. -1.
         11    1    4    4    0    0 -0.12343730368E+03  0.77905643284E+02  0.19759256368E+03  0.24566008715E+03  0.00000000000E+00 0. -1.
        -12    1    4    4    0    0 -0.41912932837E+03  0.39726856468E+03  0.60243336814E+03  0.83451642850E+03  0.00000000000E+00 0.  1.
          5    1    3    3  501    0  0.13697536604E+03 -0.80421236982E+02 -0.21426233755E+03  0.26675016017E+03  0.41800000000E+01 0. -1.
         -5    1    3    3    0  501  0.63094954878E+03 -0.46290041196E+03 -0.66488550693E+03  0.10268711381E+04  0.41800000000E+01 0. -1.
</event>
<event>
11    1  0.1704459E-009  0.2719005E+03  0.7561462E-02  0.1012839E+00
         22   -1    0    0    0    0  0.00000000000E+00  0.00000000000E+00  0.12909931666E+04  0.12909931666E+04  0.00000000000E+00 0.  1.
         22   -1    0    0    0    0 -0.00000000000E+00 -0.00000000000E+00 -0.17941016512E+03  0.17941016512E+03  0.00000000000E+00 0. -1.
         25    2    1    2    0    0 -0.89160924659E+02  0.19391722902E+03  0.50134371968E+02  0.25241609109E+03  0.12508743179E+03 0.  0.
        -24    2    1    2    0    0  0.14515483357E+03 -0.36392800459E+03  0.76175585889E+03  0.85989602165E+03  0.75071041376E+02 0.  0.
         24    2    1    2    0    0 -0.55993908913E+02  0.17001077558E+03  0.29969277065E+03  0.35809121901E+03  0.79840983892E+02 0.  0.
        -13    1    5    5    0    0 -0.68654451117E+02  0.15859295588E+03  0.29217751812E+03  0.33945966095E+03  0.00000000000E+00 0.  1.
         14    1    5    5    0    0  0.12660542204E+02  0.11417819695E+02  0.75152525236E+01  0.18631558066E+02  0.00000000000E+00 0. -1.
         13    1    4    4    0    0  0.15237729041E+03 -0.33445170077E+03  0.71867228370E+03  0.80719677288E+03  0.00000000000E+00 0. -1.
        -14    1    4    4    0    0 -0.72224568400E+01 -0.29476303826E+02  0.43083575193E+02  0.52699248775E+02  0.00000000000E+00 0.  1.
          5    1    3    3  501    0  0.84523191578E+01  0.12673141992E+03  0.40821140703E+02  0.13347708575E+03  0.41800000000E+01 0.  1.
         -5    1    3    3    0  501 -0.97613243817E+02  0.67185809098E+02  0.93132312646E+01  0.11893900533E+03  0.41800000000E+01 0.  1.
</event>
<event>
11    1  0.1704459E-009  0.1303204E+03  0.7561462E-02  0.1118876E+00
         22   -1    0    0    0    0  0.00000000000E+00  0.00000000000E+00  0.18181150734E+03  0.18181150734E+03  0.00000000000E+00 0. -1.
         22   -1    0    0    0    0 -0.00000000000E+00 -0.00000000000E+00 -0.13283227702E+04  0.13283227702E+04  0.00000000000E+00 0.  1.
         25    2    1    2    0    0  0.40092241259E+02 -0.23829029808E+02 -0.87421188208E+03  0.88434808667E+03  0.12509961291E+03 0.  0.
         24    2    1    2    0    0 -0.36447345483E+01  0.22952011475E+02 -0.43265639669E+03  0.44098948771E+03  0.82098061819E+02 0.  0.
        -24    2    1    2    0    0 -0.36447506710E+02  0.87701833281E+00  0.16035701590E+03  0.18479670318E+03  0.84298630186E+02 0.  0.
        -11    1    4    4    0    0  0.22244144300E+02  0.27279676521E+02 -0.38480765704E+03  0.38641417627E+03  0.00000000000E+00 0.  1.
         12    1    4    4    0    0 -0.25888878848E+02 -0.43276650462E+01 -0.47848739655E+02  0.54575311445E+02  0.00000000000E+00 0. -1.
         13    1    5    5    0    0 -0.46222981717E+02  0.14167305976E+02  0.16118354389E+03  0.16827778052E+03  0.00000000000E+00 0. -1.
        -14    1    5    5    0    0  0.97754750063E+01 -0.13290287643E+02 -0.82652798817E+00  0.16518922657E+02  0.00000000000E+00 0.  1.
          5    1    3    3  501    0 -0.10248888867E+02 -0.53315628695E+02 -0.19023330436E+03  0.19787313732E+03  0.41800000000E+01 0. -1.
         -5    1    3    3    0  501  0.50341130126E+02  0.29486598887E+02 -0.68397857772E+03  0.68647494935E+03  0.41800000000E+01 0. -1.
</event>
<event>
11    1  0.1704459E-009  0.1955897E+03  0.7561462E-02  0.1057687E+00
         22   -1    0    0    0    0  0.00000000000E+00  0.00000000000E+00  0.18484467295E+04  0.18484467295E+04  0.00000000000E+00 0.  1.
         22   -1    0    0    0    0 -0.00000000000E+00 -0.00000000000E+00 -0.16896107389E+03  0.16896107389E+03  0.00000000000E+00 0.  1.
         25    2    1    2    0    0  0.67994899101E+02 -0.11183785879E+03  0.29266237643E+02  0.18342774327E+03  0.12513277498E+03 0.  0.
         24    2    1    2    0    0 -0.20748477365E+02  0.17494390394E+03  0.14333054746E+02  0.19428855925E+03  0.80664359911E+02 0.  0.
        -24    2    1    2    0    0 -0.47246421736E+02 -0.63106045142E+02  0.16358863632E+04  0.16396915009E+04  0.79053319602E+02 0.  0.
        -13    1    4    4    0    0  0.37068737341E+01  0.53668164573E+02  0.41111823267E+02  0.67706682195E+02  0.00000000000E+00 0.  1.
         14    1    4    4    0    0 -0.24455351099E+02  0.12127573936E+03 -0.26778768521E+02  0.12658187706E+03  0.00000000000E+00 0. -1.
         13    1    5    5    0    0 -0.20386156961E+02 -0.27780826411E+02  0.18841502042E+03  0.19154004707E+03  0.00000000000E+00 0. -1.
        -14    1    5    5    0    0 -0.26860264775E+02 -0.35325218732E+02  0.14474713428E+04  0.14481514538E+04  0.00000000000E+00 0.  1.
          5    1    3    3  501    0  0.10093794301E+03 -0.77420165540E+02  0.41835918018E+02  0.13397785940E+03  0.41800000000E+01 0.  1.
         -5    1    3    3    0  501 -0.32943043910E+02 -0.34417693253E+02 -0.12569680376E+02  0.49449883880E+02  0.41800000000E+01 0.  1.
</event>
<event>
11    1  0.1704459E-009  0.2014569E+03  0.7561462E-02  0.1053498E+00
         22   -1    0    0    0    0  0.00000000000E+00  0.00000000000E+00  0.15945361425E+04  0.15945361425E+04  0.00000000000E+00 0.  1.
         22   -1    0    0    0    0 -0.00000000000E+00 -0.00000000000E+00 -0.10293206873E+03  0.10293206873E+03  0.00000000000E+00 0.  1.
         25    2    1    2    0    0 -0.13442303789E+03 -0.84992947454E+02  0.17896389024E+03  0.27012679702E+03  0.12508820177E+03 0.  0.
        -24    2    1    2    0    0  0.12865049600E+03  0.90489604421E+02  0.84802459932E+02  0.19685797627E+03  0.82597136640E+02 0.  0.
         24    2    1    2    0    0  0.57725418898E+01 -0.54966569666E+01  0.12278377236E+04  0.12304834380E+04  0.80252601785E+02 0.  0.
        -13    1    5    5    0    0  0.20674765156E+02 -0.34574905618E+02  0.40533630230E+03  0.40733326402E+03  0.00000000000E+00 0.  1.
         14    1    5    5    0    0 -0.14902223266E+02  0.29078248651E+02  0.82250142130E+03  0.82315017394E+03  0.00000000000E+00 0. -1.
         13    1    4    4    0    0  0.25858694176E+02  0.15080737781E+01 -0.13382496120E+02  0.29155403503E+02  0.00000000000E+00 0. -1.
        -14    1    4    4    0    0  0.10279180183E+03  0.88981530643E+02  0.98184956051E+02  0.16770257277E+03  0.00000000000E+00 0.  1.
          5    1    3    3  501    0 -0.40407161393E+00  0.27062965755E+02  0.28573715682E+02  0.39578997173E+02  0.41800000000E+01 0.  1.
         -5    1    3    3    0  501 -0.13401896628E+03 -0.11205591321E+03  0.15039017456E+03  0.23054779984E+03  0.41800000000E+01 0.  1.
</event>
<event>
11    1  0.1704459E-009  0.3775233E+03  0.7561462E-02  0.9718508E-01
         22   -1    0    0    0    0  0.00000000000E+00  0.00000000000E+00  0.62965006799E+03  0.62965006799E+03  0.00000000000E+00 0. -1.
         22   -1    0    0    0    0 -0.00000000000E+00 -0.00000000000E+00 -0.63401476004E+03  0.63401476004E+03  0.00000000000E+00 0.  1.
         25    2    1    2    0    0 -0.38198271537E+03 -0.29845820989E+02 -0.11610921175E+03  0.41944064026E+03  0.12509010264E+03 0.  0.
         24    2    1    2    0    0  0.33007157743E+03  0.94994650890E+02 -0.27060418595E+03  0.44469078982E+03  0.80944692072E+02 0.  0.
        -24    2    1    2    0    0  0.51911137943E+02 -0.65148829901E+02  0.38234870564E+03  0.39953339795E+03  0.80605626929E+02 0.  0.
        -13    1    4    4    0    0  0.27287044071E+03  0.99177447847E+02 -0.19478426370E+03  0.34962172839E+03  0.00000000000E+00 0.  1.
         14    1    4    4    0    0  0.57201136719E+02 -0.41827969572E+01 -0.75819922249E+02  0.95069061435E+02  0.00000000000E+00 0. -1.
         13    1    5    5    0    0  0.65311341538E+02 -0.24362576393E+02  0.27997578277E+03  0.28852304137E+03  0.00000000000E+00 0. -1.
        -14    1    5    5    0    0 -0.13400203595E+02 -0.40786253508E+02  0.10237292287E+03  0.11101035658E+03  0.00000000000E+00 0.  1.
          5    1    3    3  501    0 -0.12675057204E+03  0.28533738059E+02 -0.85988645361E+02  0.15585698974E+03  0.41800000000E+01 0.  1.
         -5    1    3    3    0  501 -0.25523214333E+03 -0.58379559047E+02 -0.30120566385E+02  0.26358365052E+03  0.41800000000E+01 0.  1.
</event>
<event>
11    1  0.1704459E-009  0.2847526E+03  0.7561462E-02  0.1006859E+00
         22   -1    0    0    0    0  0.00000000000E+00  0.00000000000E+00  0.78212624387E+03  0.78212624387E+03  0.00000000000E+00 0.  1.
         22   -1    0    0    0    0 -0.00000000000E+00 -0.00000000000E+00 -0.27482691992E+03  0.27482691992E+03  0.00000000000E+00 0.  1.
         25    2    1    2    0    0 -0.12385338723E+03  0.10928445913E+03  0.86293039574E+01  0.20736619127E+03  0.12507404950E+03 0.  0.
        -24    2    1    2    0    0  0.13535724370E+03 -0.35315109454E+03  0.14622264674E+03  0.41331483387E+03  0.80067536959E+02 0.  0.
         24    2    1    2    0    0 -0.11503856464E+02  0.24386663541E+03  0.35244737325E+03  0.43627213866E+03  0.80690479493E+02 0.  0.
        -11    1    5    5    0    0  0.19212514585E+02  0.18188878845E+03  0.29123590606E+03  0.34390551764E+03  0.00000000000E+00 0.  1.
         12    1    5    5    0    0 -0.30716371049E+02  0.61977846957E+02  0.61211467184E+02  0.92366621020E+02  0.00000000000E+00 0. -1.
         13    1    4    4    0    0 -0.99444647658E+01 -0.12893614184E+02  0.28883449657E+01  0.16537236857E+02  0.00000000000E+00 0. -1.
        -14    1    4    4    0    0  0.14530170846E+03 -0.34025748036E+03  0.14333430177E+03  0.39677759701E+03  0.00000000000E+00 0.  1.
          5    1    3    3  501    0 -0.11936316769E+03  0.57107862764E+02 -0.37345988821E+02  0.13755387698E+03  0.41800000000E+01 0. -1.
         -5    1    3    3    0  501 -0.44902195374E+01  0.52176596369E+02  0.45975292779E+02  0.69812314288E+02  0.41800000000E+01 0. -1.
</event>
<event>
11    1  0.1704459E-009  0.7469175E+03  0.7561462E-02  0.8965885E-01
         22   -1    0    0    0    0  0.00000000000E+00  0.00000000000E+00  0.45664456216E+03  0.45664456216E+03  0.00000000000E+00 0.  1.
         22   -1    0    0    0    0 -0.00000000000E+00 -0.00000000000E+00 -0.19740926045E+04  0.19740926045E+04  0.00000000000E+00 0.  1.
         25    2    1    2    0    0  0.70773208014E+03 -0.22804752180E+03 -0.12697242349E+04  0.14767322143E+04  0.12509208853E+03 0.  0.
         24    2    1    2    0    0 -0.72816191974E+03  0.62580639376E+02 -0.21677127315E+03  0.76662178803E+03  0.81136078519E+02 0.  0.
        -24    2    1    2    0    0  0.20429839597E+02  0.16546688242E+03 -0.30952534332E+02  0.18738316437E+03  0.79735333340E+02 0.  0.
        -11    1    4    4    0    0 -0.25970625440E+03  0.52620823338E+02 -0.52760536166E+02  0.27018505473E+03  0.00000000000E+00 0.  1.
         12    1    4    4    0    0 -0.46845566534E+03  0.99598160380E+01 -0.16401073698E+03  0.49643673330E+03  0.00000000000E+00 0. -1.
         13    1    5    5    0    0 -0.15156810487E-01  0.68921497765E+02 -0.52171963771E+02  0.86441233724E+02  0.00000000000E+00 0. -1.
        -14    1    5    5    0    0  0.20444996408E+02  0.96545384655E+02  0.21219429439E+02  0.10094193064E+03  0.00000000000E+00 0.  1.
          5    1    3    3  501    0  0.59224630657E+03 -0.22457117438E+03 -0.10062759761E+04  0.11890318383E+04  0.41800000000E+01 0. -1.
         -5    1    3    3    0  501  0.11548577358E+03 -0.34763474167E+01 -0.26344825884E+03  0.28770037604E+03  0.41800000000E+01 0. -1.
</event>
<event>
11    1  0.1704459E-009  0.1551626E+03  0.7561462E-02  0.1091717E+00
         22   -1    0    0    0    0  0.00000000000E+00  0.00000000000E+00  0.11898782249E+04  0.11898782249E+04  0.00000000000E+00 0.  1.
         22   -1    0    0    0    0 -0.00000000000E+00 -0.00000000000E+00 -0.41288499654E+02  0.41288499654E+02  0.00000000000E+00 0.  1.
         25    2    1    2    0    0 -0.45642094434E+01 -0.33511064570E+02  0.22722237608E+03  0.26157400944E+03  0.12508849174E+03 0.  0.
         24    2    1    2    0    0  0.46623637893E+02  0.13063327011E+03  0.53167215824E+03  0.55806091801E+03  0.97559671448E+02 0.  0.
        -24    2    1    2    0    0 -0.42059428449E+02 -0.97122205538E+02  0.38969519093E+03  0.41153179711E+03  0.79337001884E+02 0.  0.
        -11    1    4    4    0    0  0.13199156907E+02  0.13516546933E+03  0.42102542791E+03  0.44238708479E+03  0.00000000000E+00 0.  1.
         12    1    4    4    0    0  0.33424480986E+02 -0.45321992233E+01  0.11064673033E+03  0.11567383322E+03  0.00000000000E+00 0. -1.
         11    1    5    5    0    0 -0.25197603185E+02  0.53087431618E+01  0.11568737715E+03  0.11851865335E+03  0.00000000000E+00 0. -1.
        -12    1    5    5    0    0 -0.16861825264E+02 -0.10243094870E+03  0.27400781379E+03  0.29301314376E+03  0.00000000000E+00 0.  1.
          5    1    3    3  501    0  0.35808067034E+02 -0.16214825234E+02  0.21083564720E+03  0.21450939549E+03  0.41800000000E+01 0.  1.
         -5    1    3    3    0  501 -0.40372276478E+02 -0.17296239336E+02  0.16386728882E+02  0.47064613954E+02  0.41800000000E+01 0.  1.
</event>
<event>
11    1  0.1704459E-009  0.2981195E+03  0.7561462E-02  0.1000990E+00
         22   -1    0    0    0    0  0.00000000000E+00  0.00000000000E+00  0.19018363122E+03  0.19018363122E+03  0.00000000000E+00 0. -1.
         22   -1    0    0    0    0 -0.00000000000E+00 -0.00000000000E+00 -0.79743410110E+03  0.79743410110E+03  0.00000000000E+00 0. -1.
         25    2    1    2    0    0 -0.87121925994E+02  0.45336491655E+02 -0.15017052410E+03  0.21873223149E+03  0.12508787040E+03 0.  0.
        -24    2    1    2    0    0 -0.33440492712E+02 -0.30118209950E+03 -0.30821520783E+03  0.43975898076E+03  0.81008784772E+02 0.  0.
         24    2    1    2    0    0  0.12056241871E+03  0.25584560784E+03 -0.14886473794E+03  0.32912652006E+03  0.78557521267E+02 0.  0.
        -11    1    5    5    0    0  0.10583420362E+02  0.70692708253E+00  0.47861196492E+01  0.11636815447E+02  0.00000000000E+00 0.  1.
         12    1    5    5    0    0  0.10997899834E+03  0.25513868076E+03 -0.15365085759E+03  0.31748970461E+03  0.00000000000E+00 0. -1.
         11    1    4    4    0    0 -0.58954299268E+02 -0.17490349023E+03 -0.19047261160E+03  0.26522944042E+03  0.00000000000E+00 0. -1.
        -12    1    4    4    0    0  0.25513806556E+02 -0.12627860926E+03 -0.11774259623E+03  0.17452954034E+03  0.00000000000E+00 0.  1.
          5    1    3    3  501    0 -0.18181425397E+02  0.22970897615E+01  0.21615524541E+02  0.28645141857E+02  0.41800000000E+01 0. -1.
         -5    1    3    3    0  501 -0.68940500597E+02  0.43039401893E+02 -0.17178604864E+03  0.19008708964E+03  0.41800000000E+01 0. -1.
</event>
<event>
11    1  0.1704459E-009  0.1945526E+03  0.7561462E-02  0.1058444E+00
         22   -1    0    0    0    0  0.00000000000E+00  0.00000000000E+00  0.19708879800E+03  0.19708879800E+03  0.00000000000E+00 0. -1.
         22   -1    0    0    0    0 -0.00000000000E+00 -0.00000000000E+00 -0.58423835396E+03  0.58423835396E+03  0.00000000000E+00 0. -1.
         25    2    1    2    0    0 -0.10169285077E+03 -0.16974907481E+02 -0.17887741756E+03  0.24140022264E+03  0.12508938243E+03 0.  0.
         24    2    1    2    0    0  0.21123390684E+03 -0.64483164075E+02 -0.28090963893E+03  0.36634127195E+03  0.80733267276E+02 0.  0.
        -24    2    1    2    0    0 -0.10954105607E+03  0.81458071556E+02  0.72637500534E+02  0.17358565737E+03  0.78874036120E+02 0.  0.
        -11    1    4    4    0    0  0.53494993811E+02 -0.46745439913E+01 -0.23587480842E+02  0.58650958875E+02  0.00000000000E+00 0.  1.
         12    1    4    4    0    0  0.15773891302E+03 -0.59808620083E+02 -0.25732215809E+03  0.30769031308E+03  0.00000000000E+00 0. -1.
         13    1    5    5    0    0 -0.68150233674E+02  0.21160820395E+02  0.70656898864E+02  0.10042226858E+03  0.00000000000E+00 0. -1.
        -14    1    5    5    0    0 -0.41390822394E+02  0.60297251160E+02  0.19806016701E+01  0.73163388788E+02  0.00000000000E+00 0.  1.
          5    1    3    3  501    0  0.22831235180E+02 -0.94962190877E+01 -0.74771453412E+02  0.78864986668E+02  0.41800000000E+01 0. -1.
         -5    1    3    3    0  501 -0.12452408595E+03 -0.74786883933E+01 -0.10410596415E+03  0.16253523597E+03  0.41800000000E+01 0. -1.
</event>
<event>
11    1  0.1704459E-009  0.2609795E+03  0.7561462E-02  0.1018208E+00
         22   -1    0    0    0    0  0.00000000000E+00  0.00000000000E+00  0.30695634920E+03  0.30695634920E+03  0.00000000000E+00 0.  1.
         22   -1    0    0    0    0 -0.00000000000E+00 -0.00000000000E+00 -0.54237418992E+03  0.54237418992E+03  0.00000000000E+00 0. -1.
         25    2    1    2    0    0 -0.10653040695E+03  0.14625341460E+03 -0.36536091272E+03  0.42646724396E+03  0.12508766822E+03 0.  0.
         24    2    1    2    0    0  0.68705779166E+01  0.69218482786E+02 -0.47849790588E+02  0.11588058967E+03  0.79374463173E+02 0.  0.
        -24    2    1    2    0    0  0.99659829035E+02 -0.21547189739E+03  0.17779286259E+03  0.30698270548E+03  0.79169813630E+02 0.  0.
        -13    1    4    4    0    0 -0.20237323845E+01 -0.52191478073E+01  0.16286671058E+02  0.17221807418E+02  0.00000000000E+00 0.  1.
         14    1    4    4    0    0  0.88943103011E+01  0.74437630593E+02 -0.64136461646E+02  0.98658782257E+02  0.00000000000E+00 0. -1.
         11    1    5    5    0    0  0.62446469092E+02 -0.58235783677E+02  0.85812738099E+02  0.12105698667E+03  0.00000000000E+00 0. -1.
        -12    1    5    5    0    0  0.37213359944E+02 -0.15723611371E+03  0.91980124491E+02  0.18592571881E+03  0.00000000000E+00 0.  1.
          5    1    3    3  501    0 -0.57966714815E+02  0.15843427853E+03 -0.29750703065E+03  0.34203722944E+03  0.41800000000E+01 0. -1.
         -5    1    3    3    0  501 -0.48563692137E+02 -0.12180863925E+02 -0.67853882070E+02  0.84430014520E+02  0.41800000000E+01 0. -1.
</event>
<event>
11    1  0.1704459E-009  0.4346413E+03  0.7561462E-02  0.9552737E-01
         22   -1    0    0    0    0  0.00000000000E+00  0.00000000000E+00  0.25903435908E+04  0.25903435908E+04  0.00000000000E+00 0.  1.
         22   -1    0    0    0    0 -0.00000000000E+00 -0.00000000000E+00 -0.16079176389E+03  0.16079176389E+03  0.00000000000E+00 0.  1.
         25    2    1    2    0    0 -0.25401459853E+03 -0.34688333754E+03  0.25461830525E+03  0.51510277209E+03  0.12509563671E+03 0.  0.
        -24    2    1    2    0    0  0.17654984315E+03  0.32640655004E+03  0.13199060684E+04  0.13735030551E+04  0.81532385881E+02 0.  0.
         24    2    1    2    0    0  0.77464755386E+02  0.20476787497E+02  0.85502745332E+03  0.86252952756E+03  0.80406174052E+02 0.  0.
        -11    1    5    5    0    0 -0.14957345445E+02  0.14364948897E+02  0.13992878278E+03  0.14145719561E+03  0.00000000000E+00 0.  1.
         12    1    5    5    0    0  0.92422100831E+02  0.61118386002E+01  0.71509867054E+03  0.72107233195E+03  0.00000000000E+00 0. -1.
         13    1    4    4    0    0  0.70202414715E+02  0.10540268223E+03  0.32474015047E+03  0.34856028142E+03  0.00000000000E+00 0. -1.
        -14    1    4    4    0    0  0.10634742843E+03  0.22100386781E+03  0.99516591789E+03  0.10249427736E+04  0.00000000000E+00 0.  1.
          5    1    3    3  501    0 -0.12550684337E+03 -0.26401460512E+03  0.19227983128E+03  0.34992097017E+03  0.41800000000E+01 0. -1.
         -5    1    3    3    0  501 -0.12850775516E+03 -0.82868732418E+02  0.62338473970E+02  0.16518180192E+03  0.41800000000E+01 0. -1.
</event>
<event>
11    1  0.1704459E-009  0.1458758E+03  0.7561462E-02  0.1101169E+00
         22   -1    0    0    0    0  0.00000000000E+00  0.00000000000E+00  0.15728404803E+03  0.15728404803E+03  0.00000000000E+00 0.  1.
         22   -1    0    0    0    0 -0.00000000000E+00 -0.00000000000E+00 -0.29851679436E+03  0.29851679436E+03  0.00000000000E+00 0. -1.
         25    2    1    2    0    0  0.11850883801E+02  0.39864324414E+02 -0.67236870539E+02  0.14798043786E+03  0.12509118842E+03 0.  0.
         24    2    1    2    0    0  0.83314577937E+02 -0.10286553157E+03 -0.83690765658E+02  0.18184833838E+03  0.92423143382E+02 0.  0.
        -24    2    1    2    0    0 -0.95165461738E+02  0.63001207156E+02  0.96948898635E+01  0.12597206616E+03  0.52434276492E+02 0.  0.
        -11    1    4    4    0    0  0.30070794523E+02 -0.41926313219E+02  0.15464499434E+02  0.53862966555E+02  0.00000000000E+00 0.  1.
         12    1    4    4    0    0  0.53243783414E+02 -0.60939218351E+02 -0.99155265091E+02  0.12798537182E+03  0.00000000000E+00 0. -1.
         13    1    5    5    0    0 -0.17319074767E+02 -0.40978357850E+01 -0.11292805778E+02  0.21077715038E+02  0.00000000000E+00 0. -1.
        -14    1    5    5    0    0 -0.77846386971E+02  0.67099042941E+02  0.20987695641E+02  0.10489435112E+03  0.00000000000E+00 0.  1.
          5    1    3    3  501    0  0.37788426294E+02  0.66672341302E+02 -0.70833454027E+01  0.77076665980E+02  0.41800000000E+01 0.  1.
         -5    1    3    3    0  501 -0.25937542493E+02 -0.26808016888E+02 -0.60153525137E+02  0.70903771877E+02  0.41800000000E+01 0.  1.
</event>
<event>
11    1  0.1704459E-009  0.4598119E+03  0.7561462E-02  0.9488097E-01
         22   -1    0    0    0    0  0.00000000000E+00  0.00000000000E+00  0.23027215333E+03  0.23027215333E+03  0.00000000000E+00 0. -1.
         22   -1    0    0    0    0 -0.00000000000E+00 -0.00000000000E+00 -0.12324223606E+04  0.12324223606E+04  0.00000000000E+00 0. -1.
         25    2    1    2    0    0 -0.11146818031E+03  0.43889530455E+03 -0.47156514163E+03  0.66563897428E+03  0.12508923897E+03 0.  0.
        -24    2    1    2    0    0  0.18204236669E+02 -0.43750211186E+03 -0.50066679664E+03  0.67005075037E+03  0.81001695672E+02 0.  0.
         24    2    1    2    0    0  0.93263943646E+02 -0.13931926928E+01 -0.29918269051E+02  0.12700478931E+03  0.80839405709E+02 0.  0.
        -11    1    5    5    0    0  0.46817379668E+02 -0.23053553606E+02 -0.49704889101E+02  0.72068782239E+02  0.00000000000E+00 0.  1.
         12    1    5    5    0    0  0.46446563978E+02  0.21660360914E+02  0.19786620050E+02  0.54936007074E+02  0.00000000000E+00 0. -1.
         11    1    4    4    0    0  0.49018446912E+02 -0.29493938946E+03 -0.32187815387E+03  0.43931491841E+03  0.00000000000E+00 0. -1.
        -12    1    4    4    0    0 -0.30814210243E+02 -0.14256272240E+03 -0.17878864276E+03  0.23073583196E+03  0.00000000000E+00 0.  1.
          5    1    3    3  501    0 -0.45494962185E+02  0.75600935681E+02 -0.15883633314E+03  0.18174637874E+03  0.41800000000E+01 0.  1.
         -5    1    3    3    0  501 -0.65973218130E+02  0.36329436887E+03 -0.31272880849E+03  0.48389259555E+03  0.41800000000E+01 0.  1.
</event>
<event>
11    1  0.1704459E-009  0.2100595E+03  0.7561462E-02  0.1047630E+00
         22   -1    0    0    0    0  0.00000000000E+00  0.00000000000E+00  0.48934947555E+02  0.48934947555E+02  0.00000000000E+00 0. -1.
         22   -1    0    0    0    0 -0.00000000000E+00 -0.00000000000E+00 -0.12979062637E+04  0.12979062637E+04  0.00000000000E+00 0.  1.
         25    2    1    2    0    0 -0.11832141536E+03  0.86524471242E+02 -0.71390375549E+03  0.73945407189E+03  0.12508921166E+03 0.  0.
         24    2    1    2    0    0  0.14639605644E+03 -0.10273180673E+03 -0.30132012630E+03  0.35963513619E+03  0.80981375706E+02 0.  0.
        -24    2    1    2    0    0 -0.28074641082E+02  0.16207335489E+02 -0.23374743430E+03  0.24775200313E+03  0.75447523579E+02 0.  0.
        -11    1    4    4    0    0 -0.74707175326E+01  0.44530715173E+01 -0.15974864445E+02  0.18188946105E+02  0.00000000000E+00 0.  1.
         12    1    4    4    0    0  0.15386677398E+03 -0.10718487825E+03 -0.28534526186E+03  0.34144619009E+03  0.00000000000E+00 0. -1.
         13    1    5    5    0    0 -0.18171135218E+02  0.59998893358E+01 -0.67232546378E+01  0.20282775453E+02  0.00000000000E+00 0. -1.
        -14    1    5    5    0    0 -0.99035058632E+01  0.10207446153E+02 -0.22702417967E+03  0.22746922767E+03  0.00000000000E+00 0.  1.
          5    1    3    3  501    0 -0.73083823769E+02  0.44066436541E+02 -0.15406052163E+03  0.17616813801E+03  0.41800000000E+01 0.  1.
         -5    1    3    3    0  501 -0.45237591594E+02  0.42458034701E+02 -0.55984323386E+03  0.56328593387E+03  0.41800000000E+01 0.  1.
</event>
<event>
11    1  0.1704459E-009  0.1625461E+03  0.7561462E-02  0.1084707E+00
         22   -1    0    0    0    0  0.00000000000E+00  0.00000000000E+00  0.15424725607E+03  0.15424725607E+03  0.00000000000E+00 0.  1.
         22   -1    0    0    0    0 -0.00000000000E+00 -0.00000000000E+00 -0.36831783972E+03  0.36831783972E+03  0.00000000000E+00 0.  1.
         25    2    1    2    0    0 -0.11896014285E+02 -0.41672248086E+02 -0.20028839980E+03  0.24008384402E+03  0.12508684042E+03 0.  0.
         24    2    1    2    0    0  0.32031639422E+02 -0.74987428985E+02 -0.64760128688E+02  0.13184300612E+03  0.80867568068E+02 0.  0.
        -24    2    1    2    0    0 -0.20135625137E+02  0.11665967707E+03  0.50977944840E+02  0.15063824566E+03  0.77962853603E+02 0.  0.
        -13    1    4    4    0    0  0.19076246789E+02 -0.78462443953E+02 -0.78517516575E+02  0.11262885382E+03  0.00000000000E+00 0.  1.
         14    1    4    4    0    0  0.12955392633E+02  0.34750149677E+01  0.13757387887E+02  0.19214152305E+02  0.00000000000E+00 0. -1.
         11    1    5    5    0    0  0.17273482179E+02 -0.18167531369E+01  0.84837658974E+01  0.19329978333E+02  0.00000000000E+00 0. -1.
        -12    1    5    5    0    0 -0.37409107315E+02  0.11847643021E+03  0.42494178942E+02  0.13130826733E+03  0.00000000000E+00 0.  1.
          5    1    3    3  501    0 -0.37806450268E+02 -0.70272538491E+02 -0.77540244046E+02  0.11134414755E+03  0.41800000000E+01 0. -1.
         -5    1    3    3    0  501  0.25910435983E+02  0.28600290406E+02 -0.12274815575E+03  0.12873969646E+03  0.41800000000E+01 0. -1.
</event>
<event>
11    1  0.1704459E-009  0.2008164E+03  0.7561462E-02  0.1053948E+00
         22   -1    0    0    0    0  0.00000000000E+00  0.00000000000E+00  0.21415172636E+03  0.21415172636E+03  0.00000000000E+00 0. -1.
         22   -1    0    0    0    0 -0.00000000000E+00 -0.00000000000E+00 -0.26517934045E+04  0.26517934045E+04  0.00000000000E+00 0. -1.
         25    2    1    2    0    0  0.63484544510E+02  0.24984964015E+02 -0.17766452291E+04  0.17823492134E+04  0.12508362324E+03 0.  0.
         24    2    1    2    0    0  0.98725424920E+02  0.69907060778E+02 -0.81500208043E+03  0.82764744805E+03  0.78346668620E+02 0.  0.
        -24    2    1    2    0    0 -0.16220996943E+03 -0.94892024793E+02  0.15400563141E+03  0.25594846934E+03  0.80469335144E+02 0.  0.
        -11    1    4    4    0    0  0.80382374872E+02  0.16418486980E+02 -0.36501613311E+03  0.37412253385E+03  0.00000000000E+00 0.  1.
         12    1    4    4    0    0  0.18343050048E+02  0.53488573798E+02 -0.44998594732E+03  0.45352491420E+03  0.00000000000E+00 0. -1.
         13    1    5    5    0    0 -0.94491115483E+02 -0.87966448440E+02  0.13143250791E+03  0.18423129781E+03  0.00000000000E+00 0. -1.
        -14    1    5    5    0    0 -0.67718853947E+02 -0.69255763528E+01  0.22573123499E+02  0.71717171530E+02  0.00000000000E+00 0.  1.
          5    1    3    3  501    0  0.10119655379E+03  0.13769718680E+02 -0.13562077753E+04  0.13600541717E+04  0.41800000000E+01 0.  1.
         -5    1    3    3    0  501 -0.37712009276E+02  0.11215245335E+02 -0.42043745378E+03  0.42229504178E+03  0.41800000000E+01 0.  1.
</event>
<event>
11    1  0.1704459E-009  0.3633513E+03  0.7561462E-02  0.9764544E-01
         22   -1    0    0    0    0  0.00000000000E+00  0.00000000000E+00  0.67549109692E+03  0.67549109692E+03  0.00000000000E+00 0.  1.
         22   -1    0    0    0    0 -0.00000000000E+00 -0.00000000000E+00 -0.53030585171E+03  0.53030585171E+03  0.00000000000E+00 0.  1.
         25    2    1    2    0    0 -0.14034109637E+03 -0.20898057294E+03 -0.10494266610E+03  0.30004872322E+03  0.12509104661E+03 0.  0.
        -24    2    1    2    0    0 -0.22439975656E+03  0.28549840277E+03 -0.10257246531E+03  0.38589220359E+03  0.80790429018E+02 0.  0.
         24    2    1    2    0    0  0.36474085294E+03 -0.76517829831E+02  0.35270037662E+03  0.51985602182E+03  0.83437759232E+02 0.  0.
        -11    1    5    5    0    0  0.90088745511E+02 -0.42901998688E+02  0.57135609253E+02  0.11498278742E+03  0.00000000000E+00 0.  1.
         12    1    5    5    0    0  0.27465210743E+03 -0.33615831143E+02  0.29556476737E+03  0.40487323439E+03  0.00000000000E+00 0. -1.
         11    1    4    4    0    0 -0.11958857394E+03  0.20882074777E+03 -0.83051923838E+02  0.25456856399E+03  0.00000000000E+00 0. -1.
        -12    1    4    4    0    0 -0.10481118263E+03  0.76677654998E+02 -0.19520541476E+02  0.13132363960E+03  0.00000000000E+00 0.  1.
          5    1    3    3  501    0 -0.20467156675E+02 -0.12158482308E+03 -0.97869525479E+01  0.12375391124E+03  0.41800000000E+01 0. -1.
         -5    1    3    3    0  501 -0.11987393970E+03 -0.87395749858E+02 -0.95155713552E+02  0.17629481199E+03  0.41800000000E+01 0. -1.
</event>
<event>
11    1  0.1704459E-009  0.1601885E+03  0.7561462E-02  0.1086900E+00
         22   -1    0    0    0    0  0.00000000000E+00  0.00000000000E+00  0.32863138022E+03  0.32863138022E+03  0.00000000000E+00 0. -1.
         22   -1    0    0    0    0 -0.00000000000E+00 -0.00000000000E+00 -0.68633236897E+03  0.68633236897E+03  0.00000000000E+00 0. -1.
         25    2    1    2    0    0  0.49555475898E+02  0.50702244330E+02 -0.47671846239E+03  0.49793016407E+03  0.12508994017E+03 0.  0.
         24    2    1    2    0    0 -0.86173880301E+02  0.44619220346E+02 -0.16313860609E+03  0.20631490521E+03  0.80838251110E+02 0.  0.
        -24    2    1    2    0    0  0.36618404403E+02 -0.95321464676E+02  0.28215607974E+03  0.31071867990E+03  0.80665702364E+02 0.  0.
        -13    1    4    4    0    0  0.13474812562E+02 -0.45681330200E+01 -0.11379631248E+02  0.18219067490E+02  0.00000000000E+00 0.  1.
         14    1    4    4    0    0 -0.99648692863E+02  0.49187353366E+02 -0.15175897485E+03  0.18809583772E+03  0.00000000000E+00 0. -1.
         13    1    5    5    0    0  0.48064023529E+02 -0.10188000103E+03  0.27086183346E+03  0.29335271908E+03  0.00000000000E+00 0. -1.
        -14    1    5    5    0    0 -0.11445619126E+02  0.65585363505E+01  0.11294246277E+02  0.17365960819E+02  0.00000000000E+00 0.  1.
          5    1    3    3  501    0  0.14723364289E+02 -0.27276126686E+02 -0.29985263143E+03  0.30147941475E+03  0.41800000000E+01 0.  1.
         -5    1    3    3    0  501  0.34832111609E+02  0.77978371015E+02 -0.17686583096E+03  0.19645074932E+03  0.41800000000E+01 0.  1.
</event>
<event>
11    1  0.1704459E-009  0.1333681E+03  0.7561462E-02  0.1115199E+00
         22   -1    0    0    0    0  0.00000000000E+00  0.00000000000E+00  0.19614979156E+03  0.19614979156E+03  0.00000000000E+00 0. -1.
         22   -1    0    0    0    0 -0.00000000000E+00 -0.00000000000E+00 -0.30589018319E+03  0.30589018319E+03  0.00000000000E+00 0. -1.
         25    2    1    2    0    0  0.42094408037E+01  0.36377070549E+02 -0.18119608689E+03  0.22320371176E+03  0.12508742698E+03 0.  0.
        -24    2    1    2    0    0  0.59016726700E+01 -0.58938488079E+02 -0.64669584757E+02  0.11854374301E+03  0.79761448690E+02 0.  0.
         24    2    1    2    0    0 -0.10111113474E+02  0.22561417530E+02  0.13612528001E+03  0.16029251998E+03  0.80946574520E+02 0.  0.
        -11    1    5    5    0    0  0.42324191054E+00 -0.18452171605E+02  0.77535192605E+00  0.18473303475E+02  0.00000000000E+00 0.  1.
         12    1    5    5    0    0 -0.10534355384E+02  0.41013589136E+02  0.13534992809E+03  0.14181921651E+03  0.00000000000E+00 0. -1.
         11    1    4    4    0    0 -0.61306470675E+01 -0.45311796373E+02 -0.81705765158E+02  0.93629994041E+02  0.00000000000E+00 0. -1.
        -12    1    4    4    0    0  0.12032319737E+02 -0.13626691706E+02  0.17036180401E+02  0.24913748971E+02  0.00000000000E+00 0.  1.
          5    1    3    3  501    0  0.35730904815E+02 -0.35092969189E+02 -0.89768968203E+02  0.10287931812E+03  0.41800000000E+01 0.  1.
         -5    1    3    3    0  501 -0.31521464011E+02  0.71470039737E+02 -0.91427118684E+02  0.12032439364E+03  0.41800000000E+01 0.  1.
</event>
<event>
11    1  0.1704459E-009  0.3068633E+03  0.7561462E-02  0.9973277E-01
         22   -1    0    0    0    0  0.00000000000E+00  0.00000000000E+00  0.10946114183E+04  0.10946114183E+04  0.00000000000E+00 0. -1.
         22   -1    0    0    0    0 -0.00000000000E+00 -0.00000000000E+00 -0.11346792201E+03  0.11346792201E+03  0.00000000000E+00 0. -1.
         25    2    1    2    0    0  0.22858106040E+03 -0.10262121750E+03  0.45187241363E+03  0.53161728497E+03  0.12509134273E+03 0.  0.
        -24    2    1    2    0    0 -0.29037763566E+03  0.98444868484E+02  0.36953895399E+03  0.48711949752E+03  0.81950002649E+02 0.  0.
         24    2    1    2    0    0  0.61796575260E+02  0.41763490143E+01  0.15973212866E+03  0.18934255781E+03  0.80622532002E+02 0.  0.
        -11    1    5    5    0    0  0.13110159662E+00  0.33262339590E+02  0.58393986946E+02  0.67203111044E+02  0.00000000000E+00 0.  1.
         12    1    5    5    0    0  0.61665473663E+02 -0.29085990575E+02  0.10133814171E+03  0.12213944676E+03  0.00000000000E+00 0. -1.
         13    1    4    4    0    0 -0.22222503437E+03  0.74807792073E+02  0.33011241813E+03  0.40491280575E+03  0.00000000000E+00 0. -1.
        -14    1    4    4    0    0 -0.68152601284E+02  0.23637076411E+02  0.39426535862E+02  0.82206691778E+02  0.00000000000E+00 0.  1.
          5    1    3    3  501    0  0.19971940923E+03 -0.12749644654E+03  0.41780706571E+03  0.48033675985E+03  0.41800000000E+01 0. -1.
         -5    1    3    3    0  501  0.28861651161E+02  0.24875229042E+02  0.34065347916E+02  0.51280525117E+02  0.41800000000E+01 0. -1.
</event>
<event>
11    1  0.1704459E-009  0.1477182E+04  0.7561462E-02  0.8323399E-01
         22   -1    0    0    0    0  0.00000000000E+00  0.00000000000E+00  0.21289134723E+03  0.21289134723E+03  0.00000000000E+00 0. -1.
         22   -1    0    0    0    0 -0.00000000000E+00 -0.00000000000E+00 -0.25624189757E+04  0.25624189757E+04  0.00000000000E+00 0. -1.
         25    2    1    2    0    0 -0.29078326001E+03 -0.47290941429E+03 -0.19306300784E+04  0.20127542733E+04  0.12509614898E+03 0.  0.
        -24    2    1    2    0    0  0.75693928757E+02  0.34927246511E+03 -0.17610425185E+03  0.40641048899E+03  0.80224387246E+02 0.  0.
         24    2    1    2    0    0  0.21508933126E+03  0.12363694918E+03 -0.24279329820E+03  0.35614556065E+03  0.79633906708E+02 0.  0.
        -11    1    5    5    0    0  0.21627399322E+02  0.19172593238E+02 -0.72487479870E+02  0.78036962209E+02  0.00000000000E+00 0.  1.
         12    1    5    5    0    0  0.19346193193E+03  0.10446435594E+03 -0.17030581833E+03  0.27810859844E+03  0.00000000000E+00 0. -1.
         11    1    4    4    0    0  0.49185730313E+02  0.31229104017E+03 -0.17399959219E+03  0.36086117541E+03  0.00000000000E+00 0. -1.
        -12    1    4    4    0    0  0.26508198443E+02  0.36981424942E+02 -0.21046596554E+01  0.45549313581E+02  0.00000000000E+00 0.  1.
          5    1    3    3  501    0 -0.23797361663E+03 -0.40570961461E+03 -0.17613599535E+04  0.18230847736E+04  0.41800000000E+01 0.  1.
         -5    1    3    3    0  501 -0.52809643385E+02 -0.67199799680E+02 -0.16927012486E+03  0.18966949961E+03  0.41800000000E+01 0.  1.
</event>
<event>
11    1  0.1704459E-009  0.5479055E+03  0.7561462E-02  0.9292418E-01
         22   -1    0    0    0    0  0.00000000000E+00  0.00000000000E+00  0.17646291728E+04  0.17646291728E+04  0.00000000000E+00 0. -1.
         22   -1    0    0    0    0 -0.00000000000E+00 -0.00000000000E+00 -0.49262547570E+03  0.49262547570E+03  0.00000000000E+00 0. -1.
         25    2    1    2    0    0  0.14607931684E+02  0.34448492531E+03 -0.17678741750E+03  0.40716651133E+03  0.12509005367E+03 0.  0.
         24    2    1    2    0    0  0.44841517911E+03 -0.45610496716E+03  0.10060787451E+04  0.11948916871E+04  0.80397689970E+02 0.  0.
        -24    2    1    2    0    0 -0.46302311079E+03  0.11162004185E+03  0.44271236953E+03  0.65519645013E+03  0.80241580652E+02 0.  0.
        -11    1    4    4    0    0  0.43991475469E+03 -0.45513240870E+03  0.10025110989E+04  0.11856217796E+04  0.00000000000E+00 0.  1.
         12    1    4    4    0    0  0.85004244179E+01 -0.97255846011E+00  0.35676462274E+01  0.92699074886E+01  0.00000000000E+00 0. -1.
         13    1    5    5    0    0 -0.17951296315E+03  0.79684179055E+01  0.19003647511E+03  0.26153826010E+03  0.00000000000E+00 0. -1.
        -14    1    5    5    0    0 -0.28351014764E+03  0.10365162395E+03  0.25267589442E+03  0.39365819004E+03  0.00000000000E+00 0.  1.
          5    1    3    3  501    0 -0.46071180571E+02  0.59691844391E+02 -0.33710263680E+02  0.82701416211E+02  0.41800000000E+01 0.  1.
         -5    1    3    3    0  501  0.60679112254E+02  0.28479308092E+03 -0.14307715382E+03  0.32446509512E+03  0.41800000000E+01 0.  1.
</event>
<event>
11    1  0.1704459E-009  0.3689119E+03  0.7561462E-02  0.9746218E-01
         22   -1    0    0    0    0  0.00000000000E+00  0.00000000000E+00  0.11416178374E+04  0.11416178374E+04  0.00000000000E+00 0. -1.
         22   -1    0    0    0    0 -0.00000000000E+00 -0.00000000000E+00 -0.33230826256E+03  0.33230826256E+03  0.00000000000E+00 0.  1.
         25    2    1    2    0    0  0.64388039932E+02  0.42085915902E+02 -0.66427164335E+02  0.16117466901E+03  0.12509061422E+03 0.  0.
        -24    2    1    2    0    0  0.11638017449E+03 -0.35177125141E+03  0.18579326175E+02  0.38011624470E+03  0.82799817597E+02 0.  0.
         24    2    1    2    0    0 -0.18076821442E+03  0.30968533551E+03  0.85715741296E+03  0.93263518622E+03  0.80668492013E+02 0.  0.
        -11    1    5    5    0    0 -0.49541406287E+02  0.57218334546E+02  0.26612806943E+03  0.27668111262E+03  0.00000000000E+00 0.  1.
         12    1    5    5    0    0 -0.13122680813E+03  0.25246700096E+03  0.59102934353E+03  0.65595407359E+03  0.00000000000E+00 0. -1.
         11    1    4    4    0    0  0.11721194847E+03 -0.24724588035E+03  0.28576970354E+02  0.27511054042E+03  0.00000000000E+00 0. -1.
        -12    1    4    4    0    0 -0.83177398595E+00 -0.10452537106E+03 -0.99976441797E+01  0.10500570428E+03  0.00000000000E+00 0.  1.
          5    1    3    3  501    0  0.86444976000E+02  0.17588646528E+02 -0.85449598079E+02  0.12288694224E+03  0.41800000000E+01 0. -1.
         -5    1    3    3    0  501 -0.22056936068E+02  0.24497269374E+02  0.19022433745E+02  0.38287726768E+02  0.41800000000E+01 0. -1.
</event>
<event>
11    1  0.1704459E-009  0.1475574E+03  0.7561462E-02  0.1099401E+00
         22   -1    0    0    0    0  0.00000000000E+00  0.00000000000E+00  0.95334926278E+03  0.95334926278E+03  0.00000000000E+00 0. -1.
         22   -1    0    0    0    0 -0.00000000000E+00 -0.00000000000E+00 -0.49981496521E+02  0.49981496521E+02  0.00000000000E+00 0. -1.
         25    2    1    2    0    0 -0.13436605261E+02 -0.77672167264E+02  0.17294844854E+03  0.22753349728E+03  0.12508724396E+03 0.  0.
         24    2    1    2    0    0  0.52862732750E+02  0.63773730486E+02  0.15407078542E+03  0.19234700649E+03  0.79987541373E+02 0.  0.
        -24    2    1    2    0    0 -0.39426127489E+02  0.13898436778E+02  0.57634853230E+03  0.58345025553E+03  0.80554229655E+02 0.  0.
        -11    1    4    4    0    0  0.19465735425E+02 -0.15786446077E+02  0.58188351108E+02  0.63356222584E+02  0.00000000000E+00 0.  1.
         12    1    4    4    0    0  0.33396997326E+02  0.79560176564E+02  0.95882434307E+02  0.12899078391E+03  0.00000000000E+00 0. -1.
         11    1    5    5    0    0  0.24780515078E+02 -0.91852275011E+00  0.14801442849E+03  0.15007727560E+03  0.00000000000E+00 0. -1.
        -12    1    5    5    0    0 -0.64206642567E+02  0.14816959528E+02  0.42833410382E+03  0.43337297993E+03  0.00000000000E+00 0.  1.
          5    1    3    3  501    0 -0.38320203701E+02  0.20499136887E+02  0.73771516694E+02  0.85722585706E+02  0.41800000000E+01 0. -1.
         -5    1    3    3    0  501  0.24883598439E+02 -0.98171304151E+02  0.99176931846E+02  0.14181091157E+03  0.41800000000E+01 0. -1.
</event>
<event>
11    1  0.1704459E-009  0.1308130E+03  0.7561462E-02  0.1118274E+00
         22   -1    0    0    0    0  0.00000000000E+00  0.00000000000E+00  0.45783311197E+02  0.45783311197E+02  0.00000000000E+00 0. -1.
         22   -1    0    0    0    0 -0.00000000000E+00 -0.00000000000E+00 -0.86406894035E+03  0.86406894035E+03  0.00000000000E+00 0. -1.
         25    2    1    2    0    0 -0.27927193781E+02 -0.20346799220E+02 -0.50227215047E+03  0.51876251742E+03  0.12507324234E+03 0.  0.
        -24    2    1    2    0    0  0.44302224729E+02  0.37374129171E+01 -0.28838226530E+03  0.30333690958E+03  0.82899302790E+02 0.  0.
         24    2    1    2    0    0 -0.16375030948E+02  0.16609386303E+02 -0.27631213390E+02  0.87752824554E+02  0.79956618937E+02 0.  0.
        -13    1    5    5    0    0  0.31936101461E+02  0.30500715833E+00 -0.14654622771E+02  0.35139231272E+02  0.00000000000E+00 0.  1.
         14    1    5    5    0    0 -0.48311132409E+02  0.16304379145E+02 -0.12976590620E+02  0.52613593282E+02  0.00000000000E+00 0. -1.
         13    1    4    4    0    0 -0.80660424422E+01  0.29899248779E+02 -0.59372360823E+02  0.66963447849E+02  0.00000000000E+00 0. -1.
        -14    1    4    4    0    0  0.52368267172E+02 -0.26161835862E+02 -0.22900990448E+03  0.23637346173E+03  0.00000000000E+00 0.  1.
          5    1    3    3  501    0 -0.36637283109E+02  0.35808446148E+02 -0.38461007064E+03  0.38802952744E+03  0.41800000000E+01 0. -1.
         -5    1    3    3    0  501  0.87100893281E+01 -0.56155245368E+02 -0.11766207983E+03  0.13073298998E+03  0.41800000000E+01 0. -1.
</event>
<event>
11    1  0.1704459E-009  0.1451093E+03  0.7561462E-02  0.1101984E+00
         22   -1    0    0    0    0  0.00000000000E+00  0.00000000000E+00  0.15173339109E+03  0.15173339109E+03  0.00000000000E+00 0. -1.
         22   -1    0    0    0    0 -0.00000000000E+00 -0.00000000000E+00 -0.24142141387E+03  0.24142141387E+03  0.00000000000E+00 0. -1.
         25    2    1    2    0    0  0.31772084315E+02  0.16922710323E+02 -0.37305854441E+02  0.13540729882E+03  0.12509023276E+03 0.  0.
         24    2    1    2    0    0 -0.86277633274E+02 -0.72777020467E+02 -0.44123459485E+02  0.14524209343E+03  0.80050367375E+02 0.  0.
        -24    2    1    2    0    0  0.54505548959E+02  0.55854310144E+02 -0.82587088580E+01  0.11250541270E+03  0.80614532101E+02 0.  0.
        -11    1    4    4    0    0 -0.86134118834E+01  0.10592049815E+02 -0.26687238650E+02  0.29976508975E+02  0.00000000000E+00 0.  1.
         12    1    4    4    0    0 -0.77664221391E+02 -0.83369070282E+02 -0.17436220835E+02  0.11526558446E+03  0.00000000000E+00 0. -1.
         11    1    5    5    0    0  0.58729497235E+02  0.22186630103E+02 -0.32605611894E+02  0.70742676849E+02  0.00000000000E+00 0. -1.
        -12    1    5    5    0    0 -0.42239482753E+01  0.33667680041E+02  0.24346903036E+02  0.41762735852E+02  0.00000000000E+00 0.  1.
          5    1    3    3  501    0 -0.22847813774E+01  0.48522004873E+02 -0.64928487826E+02  0.81195973510E+02  0.41800000000E+01 0.  1.
         -5    1    3    3    0  501  0.34056865692E+02 -0.31599294550E+02  0.27622633386E+02  0.54211325311E+02  0.41800000000E+01 0.  1.
</event>
<event>
11    1  0.1704459E-009  0.5724738E+03  0.7561462E-02  0.9244728E-01
         22   -1    0    0    0    0  0.00000000000E+00  0.00000000000E+00  0.82019530035E+03  0.82019530035E+03  0.00000000000E+00 0.  1.
         22   -1    0    0    0    0 -0.00000000000E+00 -0.00000000000E+00 -0.80895829249E+03  0.80895829249E+03  0.00000000000E+00 0.  1.
         25    2    1    2    0    0 -0.53598539396E+03 -0.22843043667E+03 -0.25211991097E+03  0.64704990815E+03  0.12509327394E+03 0.  0.
         24    2    1    2    0    0  0.51069744705E+03  0.15903930095E+03 -0.14460478783E+03  0.55949811716E+03  0.77602943069E+02 0.  0.
        -24    2    1    2    0    0  0.25287946917E+02  0.69391135719E+02  0.40796170666E+03  0.42260556753E+03  0.81903001344E+02 0.  0.
        -13    1    4    4    0    0  0.47075639566E+03  0.16697454129E+03 -0.12892625608E+03  0.51586244387E+03  0.00000000000E+00 0.  1.
         14    1    4    4    0    0  0.39941051389E+02 -0.79352403357E+01 -0.15678531756E+02  0.43635673288E+02  0.00000000000E+00 0. -1.
         13    1    5    5    0    0 -0.17324610006E+01 -0.14222966729E+02  0.18749887336E+02  0.23597721899E+02  0.00000000000E+00 0. -1.
        -14    1    5    5    0    0  0.27020407918E+02  0.83614102448E+02  0.38921181933E+03  0.39900784563E+03  0.00000000000E+00 0.  1.
          5    1    3    3  501    0 -0.36349947879E+03 -0.21115339307E+03 -0.20289279293E+03  0.46679822654E+03  0.41800000000E+01 0. -1.
         -5    1    3    3    0  501 -0.17248591518E+03 -0.17277043608E+02 -0.49227118040E+02  0.18025168160E+03  0.41800000000E+01 0. -1.
</event>
<event>
11    1  0.1704459E-009  0.1708236E+04  0.7561462E-02  0.8198384E-01
         22   -1    0    0    0    0  0.00000000000E+00  0.00000000000E+00  0.66610541324E+03  0.66610541324E+03  0.00000000000E+00 0.  1.
         22   -1    0    0    0    0 -0.00000000000E+00 -0.00000000000E+00 -0.10951977724E+04  0.10951977724E+04  0.00000000000E+00 0.  1.
         25    2    1    2    0    0 -0.29596958530E+03 -0.11219997997E+03 -0.10158411027E+04  0.10713397391E+04  0.12509540285E+03 0.  0.
         24    2    1    2    0    0  0.21667955199E+03  0.75742578800E+02  0.41704363624E+03  0.48280817734E+03  0.80569070292E+02 0.  0.
        -24    2    1    2    0    0  0.79290033313E+02  0.36457401165E+02  0.16970510732E+03  0.20715526913E+03  0.80606641151E+02 0.  0.
        -11    1    4    4    0    0  0.20580469443E+03  0.52953612986E+02  0.39800358236E+03  0.45118345376E+03  0.00000000000E+00 0.  1.
         12    1    4    4    0    0  0.10874857562E+02  0.22788965814E+02  0.19040053878E+02  0.31624723580E+02  0.00000000000E+00 0. -1.
         13    1    5    5    0    0  0.29926654937E+02 -0.21940478822E+02  0.86645633095E+02  0.94257387090E+02  0.00000000000E+00 0. -1.
        -14    1    5    5    0    0  0.49363378375E+02  0.58397879988E+02  0.83059474223E+02  0.11289788204E+03  0.00000000000E+00 0.  1.
          5    1    3    3  501    0 -0.22667679002E+03 -0.34449563379E+02 -0.59179653408E+03  0.63467294704E+03  0.41800000000E+01 0. -1.
         -5    1    3    3    0  501 -0.69292795284E+02 -0.77750416586E+02 -0.42404456859E+03  0.43666679209E+03  0.41800000000E+01 0. -1.
</event>
<event>
11    1  0.1704459E-009  0.1636386E+03  0.7561462E-02  0.1083704E+00
         22   -1    0    0    0    0  0.00000000000E+00  0.00000000000E+00  0.28229960853E+03  0.28229960853E+03  0.00000000000E+00 0.  1.
         22   -1    0    0    0    0 -0.00000000000E+00 -0.00000000000E+00 -0.22638661464E+03  0.22638661464E+03  0.00000000000E+00 0. -1.
         25    2    1    2    0    0  0.98348470529E+02 -0.32620959234E+02 -0.10839139001E+03  0.19527667222E+03  0.12509091352E+03 0.  0.
        -24    2    1    2    0    0 -0.12408242334E+03 -0.38831179730E+02  0.10511264689E+03  0.18784859668E+03  0.85639467751E+02 0.  0.
         24    2    1    2    0    0  0.25733952810E+02  0.71452138965E+02  0.59191737006E+02  0.12556095428E+03  0.80586891113E+02 0.  0.
        -11    1    5    5    0    0 -0.74667414807E+01  0.75903801901E+02  0.48558084013E+02  0.90415855326E+02  0.00000000000E+00 0.  1.
         12    1    5    5    0    0  0.33200694290E+02 -0.44516629362E+01  0.10633652993E+02  0.35145098950E+02  0.00000000000E+00 0. -1.
         13    1    4    4    0    0 -0.10066303530E+03 -0.21015277547E+02  0.29911300032E+02  0.10709516532E+03  0.00000000000E+00 0. -1.
        -14    1    4    4    0    0 -0.23419388044E+02 -0.17815902183E+02  0.75201346857E+02  0.80753431358E+02  0.00000000000E+00 0.  1.
          5    1    3    3  501    0  0.65251852699E+02 -0.12133664567E+02  0.12972172664E+02  0.67755293226E+02  0.41800000000E+01 0.  1.
         -5    1    3    3    0  501  0.33096617830E+02 -0.20487294667E+02 -0.12136356267E+03  0.12752137899E+03  0.41800000000E+01 0.  1.
</event>
<event>
11    1  0.1704459E-009  0.1483005E+04  0.7561462E-02  0.8319964E-01
         22   -1    0    0    0    0  0.00000000000E+00  0.00000000000E+00  0.95093874938E+03  0.95093874938E+03  0.00000000000E+00 0. -1.
         22   -1    0    0    0    0 -0.00000000000E+00 -0.00000000000E+00 -0.27328875150E+04  0.27328875150E+04  0.00000000000E+00 0. -1.
         25    2    1    2    0    0 -0.12786840595E+04 -0.72500991173E+03 -0.11275212200E+04  0.18567780341E+04  0.12509304604E+03 0.  0.
         24    2    1    2    0    0  0.12999392684E+04  0.72274450813E+03 -0.78659351148E+03  0.16844266092E+04  0.79761668931E+02 0.  0.
        -24    2    1    2    0    0 -0.21255208854E+02  0.22654035977E+01  0.13216596588E+03  0.14262162110E+03  0.49154535027E+02 0.  0.
        -11    1    4    4    0    0  0.16066595266E+03  0.11874738567E+03 -0.95756655069E+02  0.22154870105E+03  0.00000000000E+00 0.  1.
         12    1    4    4    0    0  0.11392733157E+04  0.60399712246E+03 -0.69083685642E+03  0.14628779081E+04  0.00000000000E+00 0. -1.
         11    1    5    5    0    0  0.15280008562E+02 -0.33151141809E+00  0.56895716067E+02  0.58912741137E+02  0.00000000000E+00 0. -1.
        -12    1    5    5    0    0 -0.36535217416E+02  0.25969150158E+01  0.75270249808E+02  0.83708879968E+02  0.00000000000E+00 0.  1.
          5    1    3    3  501    0 -0.10691412564E+04 -0.58566770579E+03 -0.87757233670E+03  0.15020720244E+04  0.41800000000E+01 0.  1.
         -5    1    3    3    0  501 -0.20954280307E+03 -0.13934220594E+03 -0.24994888328E+03  0.35470600972E+03  0.41800000000E+01 0. -1.
</event>
<event>
11    1  0.1704459E-009  0.1575096E+03  0.7561462E-02  0.1089443E+00
         22   -1    0    0    0    0  0.00000000000E+00  0.00000000000E+00  0.11534454727E+03  0.11534454727E+03  0.00000000000E+00 0. -1.
         22   -1    0    0    0    0 -0.00000000000E+00 -0.00000000000E+00 -0.39863312456E+03  0.39863312456E+03  0.00000000000E+00 0.  1.
         25    2    1    2    0    0  0.81067933114E+02  0.46836560433E+02 -0.18774888397E+03  0.24426086046E+03  0.12509217140E+03 0.  0.
        -24    2    1    2    0    0  0.19233391522E+02 -0.74946797204E+02 -0.77776369539E+02  0.13642987668E+03  0.81098716578E+02 0.  0.
         24    2    1    2    0    0 -0.10030132464E+03  0.28110236770E+02 -0.17763323784E+02  0.13328693470E+03  0.81236261325E+02 0.  0.
        -13    1    5    5    0    0 -0.64580215686E+02  0.56184945055E+02 -0.19604874157E+02  0.87816304862E+02  0.00000000000E+00 0.  1.
         14    1    5    5    0    0 -0.35721108950E+02 -0.28074708284E+02  0.18415503727E+01  0.45470629835E+02  0.00000000000E+00 0. -1.
         11    1    4    4    0    0 -0.62499900812E+01 -0.48551451869E+02  0.16064902290E+01  0.48978430615E+02  0.00000000000E+00 0. -1.
        -12    1    4    4    0    0  0.25483381603E+02 -0.26395345335E+02 -0.79382859768E+02  0.87451446062E+02  0.00000000000E+00 0.  1.
          5    1    3    3  501    0  0.26249689955E+02  0.83232619675E+02 -0.83148662777E+02  0.12061462483E+03  0.41800000000E+01 0. -1.
         -5    1    3    3    0  501  0.54818243158E+02 -0.36396059242E+02 -0.10460022120E+03  0.12364623563E+03  0.41800000000E+01 0. -1.
</event>
<event>
11    1  0.1704459E-009  0.1510848E+03  0.7561462E-02  0.1095775E+00
         22   -1    0    0    0    0  0.00000000000E+00  0.00000000000E+00  0.18982982009E+04  0.18982982009E+04  0.00000000000E+00 0.  1.
         22   -1    0    0    0    0 -0.00000000000E+00 -0.00000000000E+00 -0.19874618248E+03  0.19874618248E+03  0.00000000000E+00 0. -1.
         25    2    1    2    0    0  0.48545718096E+02 -0.49262055847E+02 -0.10903840421E+03  0.17978136651E+03  0.12509408163E+03 0.  0.
        -24    2    1    2    0    0  0.31656567002E+02  0.21074506594E+02 -0.18543078460E+02  0.86438565961E+02  0.75375771068E+02 0.  0.
         24    2    1    2    0    0 -0.80202285098E+02  0.28187549253E+02  0.18271335011E+04  0.18308244509E+04  0.79211077471E+02 0.  0.
        -13    1    5    5    0    0 -0.95200534617E+02  0.15997085701E+02  0.15705772833E+04  0.15735412455E+04  0.00000000000E+00 0.  1.
         14    1    5    5    0    0  0.14998249519E+02  0.12190463552E+02  0.25655621779E+03  0.25728320539E+03  0.00000000000E+00 0. -1.
         11    1    4    4    0    0  0.18081189320E+02  0.11672130881E+02 -0.48036299524E+02  0.52637003320E+02  0.00000000000E+00 0. -1.
        -12    1    4    4    0    0  0.13575377682E+02  0.94023757129E+01  0.29493221064E+02  0.33801562641E+02  0.00000000000E+00 0.  1.
          5    1    3    3  501    0  0.64991356601E+02 -0.22835802791E+02 -0.28780462822E+01  0.69073192140E+02  0.41800000000E+01 0.  1.
         -5    1    3    3    0  501 -0.16445638505E+02 -0.26426253056E+02 -0.10616035793E+03  0.11070817437E+03  0.41800000000E+01 0.  1.
</event>
<event>
11    1  0.1704459E-009  0.3314414E+03  0.7561462E-02  0.9876979E-01
         22   -1    0    0    0    0  0.00000000000E+00  0.00000000000E+00  0.55984819616E+03  0.55984819616E+03  0.00000000000E+00 0.  1.
         22   -1    0    0    0    0 -0.00000000000E+00 -0.00000000000E+00 -0.45931564526E+03  0.45931564526E+03  0.00000000000E+00 0. -1.
         25    2    1    2    0    0  0.47574082771E+02 -0.15682345020E+03 -0.15890039639E+03  0.26029841751E+03  0.12509613224E+03 0.  0.
        -24    2    1    2    0    0 -0.16175863490E+03 -0.19050745270E+03 -0.65150788443E+02  0.26323839255E+03  0.50900693318E+02 0.  0.
         24    2    1    2    0    0  0.11418455213E+03  0.34733090290E+03  0.32458373573E+03  0.49562703136E+03  0.81330711679E+02 0.  0.
        -13    1    5    5    0    0  0.89860677410E+02  0.26541403882E+03  0.19883331960E+03  0.34359022444E+03  0.00000000000E+00 0.  1.
         14    1    5    5    0    0  0.24323874717E+02  0.81916864080E+02  0.12575041613E+03  0.15203680692E+03  0.00000000000E+00 0. -1.
         11    1    4    4    0    0 -0.12443058462E+02 -0.37753442667E+02 -0.21578806286E+02  0.45230487703E+02  0.00000000000E+00 0. -1.
        -12    1    4    4    0    0 -0.14931557644E+03 -0.15275401003E+03 -0.43571982157E+02  0.21800790485E+03  0.00000000000E+00 0.  1.
          5    1    3    3  501    0  0.41295511961E+02 -0.17847706577E+03 -0.14129213293E+03  0.23138781633E+03  0.41800000000E+01 0. -1.
         -5    1    3    3    0  501  0.62785708106E+01  0.21653615574E+02 -0.17608263454E+02  0.28910601182E+02  0.41800000000E+01 0. -1.
</event>
<event>
11    1  0.1704459E-009  0.3034874E+03  0.7561462E-02  0.9987260E-01
         22   -1    0    0    0    0  0.00000000000E+00  0.00000000000E+00  0.18191449534E+04  0.18191449534E+04  0.00000000000E+00 0. -1.
         22   -1    0    0    0    0 -0.00000000000E+00 -0.00000000000E+00 -0.75964955560E+03  0.75964955560E+03  0.00000000000E+00 0. -1.
         25    2    1    2    0    0  0.26285905963E+03 -0.86874334223E+02 -0.69290741991E+03  0.75657806421E+03  0.12509052523E+03 0.  0.
        -24    2    1    2    0    0 -0.63124312921E+02 -0.14367168905E+03  0.49202738223E+03  0.52280919501E+03  0.81315904952E+02 0.  0.
         24    2    1    2    0    0 -0.19973474671E+03  0.23054602328E+03  0.12603754355E+04  0.12994072498E+04  0.82870528785E+02 0.  0.
        -13    1    5    5    0    0  0.40802062022E+01 -0.32538230009E+01  0.34989629618E+02  0.35376681976E+02  0.00000000000E+00 0.  1.
         14    1    5    5    0    0 -0.20381495291E+03  0.23379984628E+03  0.12253858059E+04  0.12640305678E+04  0.00000000000E+00 0. -1.
         13    1    4    4    0    0 -0.37052112693E+01 -0.10344157294E+03  0.25663955023E+03  0.27672684428E+03  0.00000000000E+00 0. -1.
        -14    1    4    4    0    0 -0.59419101652E+02 -0.40230116113E+02  0.23538783200E+03  0.24608235072E+03  0.00000000000E+00 0.  1.
          5    1    3    3  501    0  0.19205599485E+02  0.28135968533E+02 -0.79648488340E+02  0.86728552806E+02  0.41800000000E+01 0.  1.
         -5    1    3    3    0  501  0.24365346015E+03 -0.11501030276E+03 -0.61325893157E+03  0.66984951140E+03  0.41800000000E+01 0.  1.
</event>
<event>
11    1  0.1704459E-009  0.2754747E+03  0.7561462E-02  0.1011141E+00
         22   -1    0    0    0    0  0.00000000000E+00  0.00000000000E+00  0.52586610198E+03  0.52586610198E+03  0.00000000000E+00 0.  1.
         22   -1    0    0    0    0 -0.00000000000E+00 -0.00000000000E+00 -0.30382890085E+03  0.30382890085E+03  0.00000000000E+00 0.  1.
         25    2    1    2    0    0 -0.36050594638E+02  0.62432230349E+02 -0.27593286363E+02  0.14699004039E+03  0.12508898337E+03 0.  0.
        -24    2    1    2    0    0 -0.23534191498E+03 -0.60936357879E+02 -0.59779743739E+02  0.26279669916E+03  0.79933914386E+02 0.  0.
         24    2    1    2    0    0  0.27139250962E+03 -0.14958724699E+01  0.30941023123E+03  0.41990826329E+03  0.83259392684E+02 0.  0.
        -13    1    5    5    0    0  0.19059735121E+03  0.90957878428E+01  0.26663058884E+03  0.32787490686E+03  0.00000000000E+00 0.  1.
         14    1    5    5    0    0  0.80795158417E+02 -0.10591660313E+02  0.42779642394E+02  0.92033356427E+02  0.00000000000E+00 0. -1.
         13    1    4    4    0    0 -0.34337870860E+02  0.17171419187E+02  0.20942895764E+01  0.38449097011E+02  0.00000000000E+00 0. -1.
        -14    1    4    4    0    0 -0.20100404412E+03 -0.78107777066E+02 -0.61874033315E+02  0.22434760215E+03  0.00000000000E+00 0.  1.
          5    1    3    3  501    0 -0.71282906444E+02 -0.12912507550E+01 -0.15023205311E+02  0.72980060136E+02  0.41800000000E+01 0.  1.
         -5    1    3    3    0  501  0.35232311807E+02  0.63723481104E+02 -0.12570081052E+02  0.74009980252E+02  0.41800000000E+01 0.  1.
</event>
<event>
11    1  0.1704459E-009  0.1357136E+03  0.7561462E-02  0.1112442E+00
         22   -1    0    0    0    0  0.00000000000E+00  0.00000000000E+00  0.32744919869E+02  0.32744919869E+02  0.00000000000E+00 0. -1.
         22   -1    0    0    0    0 -0.00000000000E+00 -0.00000000000E+00 -0.18622752875E+04  0.18622752875E+04  0.00000000000E+00 0.  1.
         25    2    1    2    0    0  0.47084460474E+02  0.10502136872E+02 -0.11451058497E+04  0.11529276204E+04  0.12508976632E+03 0.  0.
         24    2    1    2    0    0 -0.52046240462E+02 -0.24956600229E+02 -0.64344338335E+03  0.65127560227E+03  0.82515934793E+02 0.  0.
        -24    2    1    2    0    0  0.49617799872E+01  0.14454463357E+02 -0.40981134567E+02  0.90816984654E+02  0.79590957650E+02 0.  0.
        -11    1    4    4    0    0  0.11326004860E+02  0.13705471442E+02 -0.26646831448E+03  0.26706081884E+03  0.00000000000E+00 0.  1.
         12    1    4    4    0    0 -0.63372245321E+02 -0.38662071671E+02 -0.37697506886E+03  0.38421478343E+03  0.00000000000E+00 0. -1.
         11    1    5    5    0    0  0.16237941253E+02  0.21371349209E+02  0.16717787347E+02  0.31621032826E+02  0.00000000000E+00 0. -1.
        -12    1    5    5    0    0 -0.11276161266E+02 -0.69168858528E+01 -0.57698921914E+02  0.59195951828E+02  0.00000000000E+00 0.  1.
          5    1    3    3  501    0 -0.25736850012E+02  0.14607291023E+02 -0.78063638879E+03  0.78120829636E+03  0.41800000000E+01 0. -1.
         -5    1    3    3    0  501  0.72821310486E+02 -0.41051541508E+01 -0.36446946093E+03  0.37171932409E+03  0.41800000000E+01 0. -1.
</event>
<event>
11    1  0.1704459E-009  0.8267621E+03  0.7561462E-02  0.8863875E-01
         22   -1    0    0    0    0  0.00000000000E+00  0.00000000000E+00  0.14172722108E+04  0.14172722108E+04  0.00000000000E+00 0. -1.
         22   -1    0    0    0    0 -0.00000000000E+00 -0.00000000000E+00 -0.17447080220E+04  0.17447080220E+04  0.00000000000E+00 0. -1.
         25    2    1    2    0    0  0.78368557634E+03  0.21883280487E+03 -0.14457937150E+04  0.16637361197E+04  0.12509008914E+03 0.  0.
        -24    2    1    2    0    0 -0.80820916894E+03 -0.26747493771E+03  0.83066451048E+03  0.11922127286E+04  0.81380330325E+02 0.  0.
         24    2    1    2    0    0  0.24523592599E+02  0.48642132847E+02  0.28769339335E+03  0.30603138455E+03  0.88995820547E+02 0.  0.
        -11    1    5    5    0    0 -0.31564828477E+02  0.10213777482E+02  0.61985640038E+02  0.70305612992E+02  0.00000000000E+00 0.  1.
         12    1    5    5    0    0  0.56088421076E+02  0.38428355365E+02  0.22570775331E+03  0.23572577156E+03  0.00000000000E+00 0. -1.
         13    1    4    4    0    0 -0.70933425363E+03 -0.22653327454E+03  0.68751952451E+03  0.10134868053E+04  0.00000000000E+00 0. -1.
        -14    1    4    4    0    0 -0.98874915306E+02 -0.40941663172E+02  0.14314498597E+03  0.17872592332E+03  0.00000000000E+00 0.  1.
          5    1    3    3  501    0  0.33723826063E+03  0.14384377924E+03 -0.72754869396E+03  0.81471789703E+03  0.41800000000E+01 0. -1.
         -5    1    3    3    0  501  0.44644731571E+03  0.74989025630E+02 -0.71824502107E+03  0.84901822263E+03  0.41800000000E+01 0. -1.
</event>
<event>
11    1  0.1704459E-009  0.1996174E+03  0.7561462E-02  0.1054795E+00
         22   -1    0    0    0    0  0.00000000000E+00  0.00000000000E+00  0.10270210370E+04  0.10270210370E+04  0.00000000000E+00 0. -1.
         22   -1    0    0    0    0 -0.00000000000E+00 -0.00000000000E+00 -0.44774008122E+03  0.44774008122E+03  0.00000000000E+00 0. -1.
         25    2    1    2    0    0  0.41235624753E+02  0.94956392322E+02 -0.38511156213E+03  0.41794186254E+03  0.12508953587E+03 0.  0.
         24    2    1    2    0    0 -0.14758519723E+03  0.67663167896E+02  0.24486119975E+03  0.30732761448E+03  0.90186255858E+02 0.  0.
        -24    2    1    2    0    0  0.10634957248E+03 -0.16261956022E+03  0.71953131813E+03  0.74949164118E+03  0.79101513864E+02 0.  0.
        -13    1    4    4    0    0 -0.14158989389E+03  0.86199197773E+02  0.22539695307E+03  0.27978882430E+03  0.00000000000E+00 0.  1.
         14    1    4    4    0    0 -0.59953033411E+01 -0.18536029877E+02  0.19464246681E+02  0.27538790181E+02  0.00000000000E+00 0. -1.
         13    1    5    5    0    0  0.57756647554E+02 -0.14273102086E+03  0.58907531533E+03  0.60886591445E+03  0.00000000000E+00 0. -1.
        -14    1    5    5    0    0  0.48592924923E+02 -0.19888539357E+02  0.13045600280E+03  0.14062572672E+03  0.00000000000E+00 0.  1.
          5    1    3    3  501    0  0.77313568786E+02  0.90891745621E+02 -0.33698226365E+03  0.35750974218E+03  0.41800000000E+01 0. -1.
         -5    1    3    3    0  501 -0.36077944033E+02  0.40646467006E+01 -0.48129298475E+02  0.60432120351E+02  0.41800000000E+01 0. -1.
</event>
<event>
11    1  0.1704459E-009  0.1773357E+03  0.7561462E-02  0.1071819E+00
         22   -1    0    0    0    0  0.00000000000E+00  0.00000000000E+00  0.69730831875E+02  0.69730831875E+02  0.00000000000E+00 0.  1.
         22   -1    0    0    0    0 -0.00000000000E+00 -0.00000000000E+00 -0.26319433427E+04  0.26319433427E+04  0.00000000000E+00 0.  1.
         25    2    1    2    0    0  0.16180888932E+02  0.86348913463E+01 -0.21135939305E+04  0.21173718229E+04  0.12509097135E+03 0.  0.
         24    2    1    2    0    0  0.80366594332E+02 -0.13460685956E+03 -0.32218988201E+03  0.36731463475E+03  0.80845066086E+02 0.  0.
        -24    2    1    2    0    0 -0.96547483264E+02  0.12597196821E+03 -0.12642869837E+03  0.21698771691E+03  0.76870672038E+02 0.  0.
        -11    1    4    4    0    0  0.89239640685E+02 -0.13253747068E+03 -0.32039789551E+03  0.35802891790E+03  0.00000000000E+00 0.  1.
         12    1    4    4    0    0 -0.88730463523E+01 -0.20693888746E+01 -0.17919864986E+01  0.92857168541E+01  0.00000000000E+00 0. -1.
         13    1    5    5    0    0 -0.18407119962E+02  0.30372897855E+02 -0.75479975058E+02  0.83417993408E+02  0.00000000000E+00 0. -1.
        -14    1    5    5    0    0 -0.78140363303E+02  0.95599070358E+02 -0.50948723314E+02  0.13356972351E+03  0.00000000000E+00 0.  1.
          5    1    3    3  501    0 -0.25469124746E+02 -0.27469297203E+02 -0.23823022094E+03  0.24119359273E+03  0.41800000000E+01 0. -1.
         -5    1    3    3    0  501  0.41650013678E+02  0.36104188550E+02 -0.18753637095E+04  0.18761782302E+04  0.41800000000E+01 0. -1.
</event>
<event>
11    1  0.1704459E-009  0.2374141E+03  0.7561462E-02  0.1030826E+00
         22   -1    0    0    0    0  0.00000000000E+00  0.00000000000E+00  0.11164614609E+04  0.11164614609E+04  0.00000000000E+00 0.  1.
         22   -1    0    0    0    0 -0.00000000000E+00 -0.00000000000E+00 -0.12644902779E+03  0.12644902779E+03  0.00000000000E+00 0. -1.
         25    2    1    2    0    0 -0.18905156567E+03 -0.17876015486E+03  0.14095621872E+03  0.32126540064E+03  0.12508842716E+03 0.  0.
        -24    2    1    2    0    0  0.65651869754E+02  0.12811858838E+03  0.22382771871E+03  0.27732141079E+03  0.77998567477E+02 0.  0.
         24    2    1    2    0    0  0.12339969591E+03  0.50641566474E+02  0.62522849568E+03  0.64432367724E+03  0.80313610568E+02 0.  0.
        -11    1    5    5    0    0  0.77567056532E+02  0.60392469448E+02  0.51887141466E+03  0.52810173601E+03  0.00000000000E+00 0.  1.
         12    1    5    5    0    0  0.45832639383E+02 -0.97509029740E+01  0.10635708102E+03  0.11622194123E+03  0.00000000000E+00 0. -1.
         13    1    4    4    0    0  0.88785433267E+01  0.10591556143E+02 -0.43173622698E+01  0.14479268286E+02  0.00000000000E+00 0. -1.
        -14    1    4    4    0    0  0.56773326427E+02  0.11752703224E+03  0.22814508098E+03  0.26284214251E+03  0.00000000000E+00 0.  1.
          5    1    3    3  501    0 -0.80692006836E+02 -0.44035679902E+02 -0.88697344485E+01  0.92447204722E+02  0.41800000000E+01 0. -1.
         -5    1    3    3    0  501 -0.10835955883E+03 -0.13472447496E+03  0.14982595317E+03  0.22881819592E+03  0.41800000000E+01 0. -1.
</event>
<event>
11    1  0.1704459E-009  0.9933897E+03  0.7561462E-02  0.8685327E-01
         22   -1    0    0    0    0  0.00000000000E+00  0.00000000000E+00  0.31585727178E+04  0.31585727178E+04  0.00000000000E+00 0. -1.
         22   -1    0    0    0    0 -0.00000000000E+00 -0.00000000000E+00 -0.78106729831E+02  0.78106729831E+02  0.00000000000E+00 0. -1.
         25    2    1    2    0    0 -0.17770886828E+03 -0.41800140956E+03  0.12822549007E+04  0.13660638099E+04  0.12508829719E+03 0.  0.
        -24    2    1    2    0    0  0.10973161872E+03  0.37881539447E+03  0.14330646952E+04  0.14886610614E+04  0.83037364619E+02 0.  0.
         24    2    1    2    0    0  0.67977249560E+02  0.39186015093E+02  0.36514639203E+03  0.38195457627E+03  0.80006002805E+02 0.  0.
        -11    1    5    5    0    0  0.48797037461E+02  0.59964340853E+02  0.31536080028E+03  0.32469879487E+03  0.00000000000E+00 0.  1.
         12    1    5    5    0    0  0.19180212099E+02 -0.20778325760E+02  0.49785591755E+02  0.57255781402E+02  0.00000000000E+00 0. -1.
         11    1    4    4    0    0  0.44928231417E+02  0.25593119839E+03  0.10322677358E+04  0.10644698223E+04  0.00000000000E+00 0. -1.
        -12    1    4    4    0    0  0.64803387303E+02  0.12288419609E+03  0.40079695943E+03  0.42419123911E+03  0.00000000000E+00 0.  1.
          5    1    3    3  501    0 -0.11625691306E+00 -0.43018457841E+02  0.24697349877E+03  0.25072690866E+03  0.41800000000E+01 0. -1.
         -5    1    3    3    0  501 -0.17759261137E+03 -0.37498295172E+03  0.10352814019E+04  0.11153369013E+04  0.41800000000E+01 0. -1.
</event>
<event>
11    1  0.1704459E-009  0.2612767E+04  0.7561462E-02  0.7853769E-01
         22   -1    0    0    0    0  0.00000000000E+00  0.00000000000E+00  0.15452590072E+04  0.15452590072E+04  0.00000000000E+00 0.  1.
         22   -1    0    0    0    0 -0.00000000000E+00 -0.00000000000E+00 -0.11044344603E+04  0.11044344603E+04  0.00000000000E+00 0.  1.
         25    2    1    2    0    0  0.64689510852E+03 -0.53858935697E+03 -0.76658280638E+03  0.11453595100E+04  0.12508969287E+03 0.  0.
         24    2    1    2    0    0 -0.48993828591E+03  0.44753690999E+03  0.10772646927E+04  0.12669019464E+04  0.64903881363E+02 0.  0.
        -24    2    1    2    0    0 -0.15695682262E+03  0.91052446980E+02  0.13014266062E+03  0.23743201106E+03  0.80689872332E+02 0.  0.
        -11    1    4    4    0    0 -0.82799963957E+02  0.71557491574E+02  0.13543657068E+03  0.17412459134E+03  0.00000000000E+00 0.  1.
         12    1    4    4    0    0 -0.40713832195E+03  0.37597941842E+03  0.94182812200E+03  0.10927773550E+04  0.00000000000E+00 0. -1.
         11    1    5    5    0    0 -0.15681102613E+03  0.10233890978E+03  0.12149696430E+03  0.22321393932E+03  0.00000000000E+00 0. -1.
        -12    1    5    5    0    0 -0.14579648203E+00 -0.11286462802E+02  0.86456963263E+01  0.14218071746E+02  0.00000000000E+00 0.  1.
          5    1    3    3  501    0  0.30306276021E+03 -0.20681058986E+03 -0.40239218540E+03  0.54456826934E+03  0.41800000000E+01 0. -1.
         -5    1    3    3    0  501  0.34383234831E+03 -0.33177876711E+03 -0.36419062097E+03  0.60079124066E+03  0.41800000000E+01 0. -1.
</event>
<event>
11    1  0.1704459E-009  0.1345911E+03  0.7561462E-02  0.1113753E+00
         22   -1    0    0    0    0  0.00000000000E+00  0.00000000000E+00  0.82532315197E+03  0.82532315197E+03  0.00000000000E+00 0.  1.
         22   -1    0    0    0    0 -0.00000000000E+00 -0.00000000000E+00 -0.13229054524E+03  0.13229054524E+03  0.00000000000E+00 0.  1.
         25    2    1    2    0    0 -0.30411491840E+02 -0.37836604159E+01 -0.15668287994E+02  0.12973232736E+03  0.12508319868E+03 0.  0.
         24    2    1    2    0    0  0.56800703190E+02  0.34531464983E+02 -0.11131807926E+02  0.10217329519E+03  0.76790124011E+02 0.  0.
        -24    2    1    2    0    0 -0.26389211350E+02 -0.30747804567E+02  0.71983270265E+03  0.72570807466E+03  0.82772410074E+02 0.  0.
        -13    1    4    4    0    0  0.67029866145E+02  0.56060944032E+01 -0.20110137532E+02  0.70205761028E+02  0.00000000000E+00 0.  1.
         14    1    4    4    0    0 -0.10229162955E+02  0.28925370580E+02  0.89783296063E+01  0.31967534163E+02  0.00000000000E+00 0. -1.
         11    1    5    5    0    0 -0.25286250043E+02  0.29256575628E+01  0.62120759975E+02  0.67133767459E+02  0.00000000000E+00 0. -1.
        -12    1    5    5    0    0 -0.11029613073E+01 -0.33673462130E+02  0.65771194267E+03  0.65857430720E+03  0.00000000000E+00 0.  1.
          5    1    3    3  501    0 -0.75973088359E+02  0.33583149215E+01 -0.29075817242E+02  0.81523395306E+02  0.41800000000E+01 0. -1.
         -5    1    3    3    0  501  0.45561596519E+02 -0.71419753374E+01  0.13407529248E+02  0.48208932052E+02  0.41800000000E+01 0. -1.
</event>
<event>
11    1  0.1704459E-009  0.4870531E+03  0.7561462E-02  0.9422926E-01
         22   -1    0    0    0    0  0.00000000000E+00  0.00000000000E+00  0.57380609237E+03  0.57380609237E+03  0.00000000000E+00 0.  1.
         22   -1    0    0    0    0 -0.00000000000E+00 -0.00000000000E+00 -0.74551017864E+03  0.74551017864E+03  0.00000000000E+00 0.  1.
         25    2    1    2    0    0  0.42611065467E+03 -0.13903710268E+03 -0.26156924448E+03  0.53382364782E+03  0.12509041276E+03 0.  0.
         24    2    1    2    0    0 -0.41578023454E+03  0.34183654311E+03 -0.90233982038E+01  0.54621038492E+03  0.92406370146E+02 0.  0.
        -24    2    1    2    0    0 -0.10330420132E+02 -0.20279944042E+03  0.98888556408E+02  0.23928223827E+03  0.79010836892E+02 0.  0.
        -13    1    4    4    0    0 -0.27915575342E+03  0.28096816139E+03  0.38407953943E+01  0.39608811405E+03  0.00000000000E+00 0.  1.
         14    1    4    4    0    0 -0.13662448112E+03  0.60868381712E+02 -0.12864193598E+02  0.15012227087E+03  0.00000000000E+00 0. -1.
         11    1    5    5    0    0 -0.31411307372E+02 -0.75870453590E+02  0.68836636673E+02  0.10715166124E+03  0.00000000000E+00 0. -1.
        -12    1    5    5    0    0  0.21080887240E+02 -0.12692898683E+03  0.30051919736E+02  0.13213057703E+03  0.00000000000E+00 0.  1.
          5    1    3    3  501    0  0.67839123246E+02  0.15360589794E+02 -0.71507398490E+02  0.99844252716E+02  0.41800000000E+01 0.  1.
         -5    1    3    3    0  501  0.35827153142E+03 -0.15439769248E+03 -0.19006184599E+03  0.43397939510E+03  0.41800000000E+01 0.  1.
</event>
<event>
11    1  0.1704459E-009  0.6579603E+03  0.7561462E-02  0.9096658E-01
         22   -1    0    0    0    0  0.00000000000E+00  0.00000000000E+00  0.22503286493E+04  0.22503286493E+04  0.00000000000E+00 0.  1.
         22   -1    0    0    0    0 -0.00000000000E+00 -0.00000000000E+00 -0.53698169022E+03  0.53698169022E+03  0.00000000000E+00 0.  1.
         25    2    1    2    0    0  0.40380762849E+03  0.29379161314E+03  0.32708123298E+03  0.60992075400E+03  0.12508829045E+03 0.  0.
         24    2    1    2    0    0 -0.66453484636E+03 -0.39067342565E+03  0.14579296088E+02  0.77555342887E+03  0.83894443382E+02 0.  0.
        -24    2    1    2    0    0  0.26072721787E+03  0.96881812506E+02  0.13716864300E+04  0.14018361567E+04  0.79096018179E+02 0.  0.
        -13    1    4    4    0    0 -0.64541207036E+03 -0.39355300364E+03  0.11902442210E+02  0.75603067093E+03  0.00000000000E+00 0.  1.
         14    1    4    4    0    0 -0.19122775996E+02  0.28795779977E+01  0.26768538777E+01  0.19522757949E+02  0.00000000000E+00 0. -1.
         13    1    5    5    0    0  0.26813797226E+02  0.24301212700E+02  0.31841577897E+03  0.32046550042E+03  0.00000000000E+00 0. -1.
        -14    1    5    5    0    0  0.23391342064E+03  0.72580599806E+02  0.10532706511E+04  0.10813706562E+04  0.00000000000E+00 0.  1.
          5    1    3    3  501    0  0.13646277271E+03  0.79861186961E+02  0.40189000276E+02  0.16319474765E+03  0.41800000000E+01 0.  1.
         -5    1    3    3    0  501  0.26734485579E+03  0.21393042618E+03  0.28689223270E+03  0.44672600634E+03  0.41800000000E+01 0.  1.
</event>
<event>
11    1  0.1704459E-009  0.2188006E+03  0.7561462E-02  0.1041971E+00
         22   -1    0    0    0    0  0.00000000000E+00  0.00000000000E+00  0.63198056229E+02  0.63198056229E+02  0.00000000000E+00 0.  1.
         22   -1    0    0    0    0 -0.00000000000E+00 -0.00000000000E+00 -0.19821533259E+04  0.19821533259E+04  0.00000000000E+00 0. -1.
         25    2    1    2    0    0 -0.11333018295E+03 -0.10991954452E+02 -0.13581652973E+04  0.13686579474E+04  0.12508816372E+03 0.  0.
        -24    2    1    2    0    0 -0.76596602189E+02  0.20088177145E+02 -0.39373942549E+03  0.40956648212E+03  0.80270752870E+02 0.  0.
         24    2    1    2    0    0  0.18992678514E+03 -0.90962226927E+01 -0.16705054686E+03  0.26712695261E+03  0.85416617947E+02 0.  0.
        -11    1    5    5    0    0  0.17725739563E+03 -0.53295589605E+01 -0.17702195786E+03  0.25057007417E+03  0.00000000000E+00 0.  1.
         12    1    5    5    0    0  0.12669389511E+02 -0.37666637322E+01  0.99714110006E+01  0.16556878438E+02  0.00000000000E+00 0. -1.
         11    1    4    4    0    0  0.17344609363E+01 -0.16202288871E+02 -0.15207043924E+03  0.15294097230E+03  0.00000000000E+00 0. -1.
        -12    1    4    4    0    0 -0.78331063126E+02  0.36290466016E+02 -0.24166898625E+03  0.25662550982E+03  0.00000000000E+00 0.  1.
          5    1    3    3  501    0 -0.39276675916E+02  0.21227279273E+02 -0.12421968842E+03  0.13206535521E+03  0.41800000000E+01 0.  1.
         -5    1    3    3    0  501 -0.74053507035E+02 -0.32219233726E+02 -0.12339456089E+04  0.12365925922E+04  0.41800000000E+01 0.  1.
</event>
<event>
11    1  0.1704459E-009  0.2800578E+03  0.7561462E-02  0.1009003E+00
         22   -1    0    0    0    0  0.00000000000E+00  0.00000000000E+00  0.19054538155E+03  0.19054538155E+03  0.00000000000E+00 0.  1.
         22   -1    0    0    0    0 -0.00000000000E+00 -0.00000000000E+00 -0.85612159457E+03  0.85612159457E+03  0.00000000000E+00 0. -1.
         25    2    1    2    0    0 -0.21113138594E+03 -0.27752510871E+02 -0.19097812377E+03  0.31217679765E+03  0.12504017452E+03 0.  0.
         24    2    1    2    0    0  0.21995846534E+03  0.21825834610E+03 -0.40569029917E+03  0.51603733479E+03  0.75441897767E+02 0.  0.
        -24    2    1    2    0    0 -0.88270793959E+01 -0.19050583523E+03 -0.68907790081E+02  0.21845284368E+03  0.81258665942E+02 0.  0.
        -11    1    4    4    0    0  0.16602649579E+03  0.13142184004E+03 -0.22888740626E+03  0.31181074723E+03  0.00000000000E+00 0.  1.
         12    1    4    4    0    0  0.53931969549E+02  0.86836506056E+02 -0.17680289292E+03  0.20422658756E+03  0.00000000000E+00 0. -1.
         11    1    5    5    0    0 -0.19141134740E+02 -0.54418172992E+02 -0.57579844188E+02  0.81505576788E+02  0.00000000000E+00 0. -1.
        -12    1    5    5    0    0  0.10314055344E+02 -0.13608766224E+03 -0.11327945894E+02  0.13694726689E+03  0.00000000000E+00 0.  1.
          5    1    3    3  501    0 -0.10828086646E+03  0.30526630505E+02 -0.14880938081E+03  0.18659669190E+03  0.41800000000E+01 0. -1.
         -5    1    3    3    0  501 -0.10285051948E+03 -0.58279141376E+02 -0.42168742954E+02  0.12558010574E+03  0.41800000000E+01 0. -1.
</event>
<event>
11    1  0.1704459E-009  0.4389885E+03  0.7561462E-02  0.9541245E-01
         22   -1    0    0    0    0  0.00000000000E+00  0.00000000000E+00  0.10178177399E+04  0.10178177399E+04  0.00000000000E+00 0.  1.
         22   -1    0    0    0    0 -0.00000000000E+00 -0.00000000000E+00 -0.59870960300E+03  0.59870960300E+03  0.00000000000E+00 0.  1.
         25    2    1    2    0    0 -0.63471300104E+02 -0.43461868600E+03 -0.40064008160E+03  0.60752363214E+03  0.12510188037E+03 0.  0.
        -24    2    1    2    0    0  0.54835540954E+02  0.41528268700E+03  0.82110382473E+03  0.92506637158E+03  0.77907985340E+02 0.  0.
         24    2    1    2    0    0  0.86357591506E+01  0.19335998997E+02 -0.13556061981E+01  0.83937339203E+02  0.81210726206E+02 0.  0.
        -11    1    5    5    0    0  0.12844888384E+02  0.42616026705E+02 -0.24528996306E+02  0.50821142741E+02  0.00000000000E+00 0.  1.
         12    1    5    5    0    0 -0.42091292330E+01 -0.23280027708E+02  0.23173390108E+02  0.33116196462E+02  0.00000000000E+00 0. -1.
         13    1    4    4    0    0 -0.16726286955E+02  0.11720309732E+03  0.25994149924E+03  0.28563248716E+03  0.00000000000E+00 0. -1.
        -14    1    4    4    0    0  0.71561827909E+02  0.29807958968E+03  0.56116232549E+03  0.63943388442E+03  0.00000000000E+00 0.  1.
          5    1    3    3  501    0 -0.98113754695E+02 -0.30800487325E+03 -0.25784033369E+03  0.41351229835E+03  0.41800000000E+01 0.  1.
         -5    1    3    3    0  501  0.34642454590E+02 -0.12661381275E+03 -0.14279974791E+03  0.19401133379E+03  0.41800000000E+01 0.  1.
</event>
<event>
11    1  0.1704459E-009  0.1854508E+03  0.7561462E-02  0.1065317E+00
         22   -1    0    0    0    0  0.00000000000E+00  0.00000000000E+00  0.26464492806E+03  0.26464492806E+03  0.00000000000E+00 0. -1.
         22   -1    0    0    0    0 -0.00000000000E+00 -0.00000000000E+00 -0.26633538243E+03  0.26633538243E+03  0.00000000000E+00 0. -1.
         25    2    1    2    0    0  0.86789776663E+02  0.14420280344E+03 -0.10293892595E+03  0.23360348612E+03  0.12508897793E+03 0.  0.
        -24    2    1    2    0    0  0.18971965858E+02 -0.65397201113E+02 -0.11870324237E+02  0.10623324173E+03  0.80671355820E+02 0.  0.
         24    2    1    2    0    0 -0.10576174252E+03 -0.78805602323E+02  0.11311879581E+03  0.19114358265E+03  0.79650097815E+02 0.  0.
        -11    1    5    5    0    0  0.51719834586E+01  0.77230146223E+01  0.21037661202E+02  0.22999512094E+02  0.00000000000E+00 0.  1.
         12    1    5    5    0    0 -0.11093372598E+03 -0.86528616946E+02  0.92081134611E+02  0.16814407055E+03  0.00000000000E+00 0. -1.
         13    1    4    4    0    0  0.49092848733E+02 -0.26557571832E+02 -0.11958393883E+02  0.57082533253E+02  0.00000000000E+00 0. -1.
        -14    1    4    4    0    0 -0.30120882875E+02 -0.38839629281E+02  0.88069645777E-01  0.49150708481E+02  0.00000000000E+00 0.  1.
          5    1    3    3  501    0  0.79901477688E+02  0.76899657926E+02 -0.74947689118E+00  0.11097674370E+03  0.41800000000E+01 0. -1.
         -5    1    3    3    0  501  0.68882989750E+01  0.67303145511E+02 -0.10218944906E+03  0.12262674242E+03  0.41800000000E+01 0. -1.
</event>
<event>
11    1  0.1704459E-009  0.1369777E+03  0.7561462E-02  0.1110981E+00
         22   -1    0    0    0    0  0.00000000000E+00  0.00000000000E+00  0.19770000601E+03  0.19770000601E+03  0.00000000000E+00 0. -1.
         22   -1    0    0    0    0 -0.00000000000E+00 -0.00000000000E+00 -0.78187490490E+03  0.78187490490E+03  0.00000000000E+00 0.  1.
         25    2    1    2    0    0 -0.82089743728E+02 -0.31114014832E+02 -0.42429873460E+03  0.45098130966E+03  0.12509163655E+03 0.  0.
         24    2    1    2    0    0  0.34741370561E+02  0.23824445916E+01 -0.32146578446E+03  0.33977293891E+03  0.10436838873E+03 0.  0.
        -24    2    1    2    0    0  0.47348373167E+02  0.28731570241E+02  0.16158962017E+03  0.18882066234E+03  0.80465306882E+02 0.  0.
        -11    1    4    4    0    0  0.51693567586E+02 -0.38785672589E+02 -0.21090980932E+03  0.22058898656E+03  0.00000000000E+00 0.  1.
         12    1    4    4    0    0 -0.16952197025E+02  0.41168117181E+02 -0.11055597514E+03  0.11918395234E+03  0.00000000000E+00 0. -1.
         11    1    5    5    0    0  0.88293553790E+01  0.32569312204E+02  0.14098802043E+03  0.14497013320E+03  0.00000000000E+00 0. -1.
        -12    1    5    5    0    0  0.38519017788E+02 -0.38377419639E+01  0.20601599736E+02  0.43850529146E+02  0.00000000000E+00 0.  1.
          5    1    3    3  501    0 -0.42189784379E+02 -0.56978339761E+02 -0.37754000029E+03  0.38416198839E+03  0.41800000000E+01 0.  1.
         -5    1    3    3    0  501 -0.39899959349E+02  0.25864324929E+02 -0.46758734315E+02  0.66819321269E+02  0.41800000000E+01 0.  1.
</event>
<event>
11    1  0.1704459E-009  0.3057740E+03  0.7561462E-02  0.9977767E-01
         22   -1    0    0    0    0  0.00000000000E+00  0.00000000000E+00  0.22912364993E+04  0.22912364993E+04  0.00000000000E+00 0. -1.
         22   -1    0    0    0    0 -0.00000000000E+00 -0.00000000000E+00 -0.17718285529E+03  0.17718285529E+03  0.00000000000E+00 0. -1.
         25    2    1    2    0    0 -0.18182931064E+03 -0.21691584262E+03 -0.89294046725E+01  0.30957608022E+03  0.12507291551E+03 0.  0.
         24    2    1    2    0    0  0.27586607434E+01  0.67825418274E+02  0.28102485092E+03  0.29948823988E+03  0.78168672854E+02 0.  0.
        -24    2    1    2    0    0  0.17907064990E+03  0.14909042434E+03  0.18419581977E+04  0.18593550345E+04  0.10048328078E+03 0.  0.
        -11    1    4    4    0    0 -0.24596524874E+02  0.52713485056E+02  0.99199658526E+02  0.11499683819E+03  0.00000000000E+00 0.  1.
         12    1    4    4    0    0  0.27355185617E+02  0.15111933218E+02  0.18182519240E+03  0.18449140168E+03  0.00000000000E+00 0. -1.
         13    1    5    5    0    0  0.89079883807E+02  0.92028783573E+02  0.13459437880E+04  0.13520241133E+04  0.00000000000E+00 0. -1.
        -14    1    5    5    0    0  0.89990766091E+02  0.57061640768E+02  0.49601440976E+03  0.50733092112E+03  0.00000000000E+00 0.  1.
          5    1    3    3  501    0 -0.78510921130E+02 -0.18266039155E+03 -0.21055115316E+02  0.19997393245E+03  0.41800000000E+01 0. -1.
         -5    1    3    3    0  501 -0.10331838951E+03 -0.34255451068E+02  0.12125710644E+02  0.10960214778E+03  0.41800000000E+01 0. -1.
</event>
<event>
11    1  0.1704459E-009  0.5739804E+03  0.7561462E-02  0.9241887E-01
         22   -1    0    0    0    0  0.00000000000E+00  0.00000000000E+00  0.21893142451E+04  0.21893142451E+04  0.00000000000E+00 0.  1.
         22   -1    0    0    0    0 -0.00000000000E+00 -0.00000000000E+00 -0.29983415734E+03  0.29983415734E+03  0.00000000000E+00 0.  1.
         25    2    1    2    0    0 -0.51623581961E+03 -0.22835909514E+03  0.35515312052E+03  0.67854873642E+03  0.12508937163E+03 0.  0.
         24    2    1    2    0    0  0.48503098266E+03  0.27329163201E+03  0.44556900842E+03  0.71755259126E+03  0.80041299964E+02 0.  0.
        -24    2    1    2    0    0  0.31204836953E+02 -0.44932536866E+02  0.10887579588E+04  0.10930470748E+04  0.79783081179E+02 0.  0.
        -13    1    4    4    0    0  0.23982890114E+02  0.72810932368E+00  0.36207570449E+02  0.43436129192E+02  0.00000000000E+00 0.  1.
         14    1    4    4    0    0  0.46104809254E+03  0.27256352269E+03  0.40936143797E+03  0.67411646207E+03  0.00000000000E+00 0. -1.
         11    1    5    5    0    0  0.26344676964E+02 -0.27436044307E+02  0.17399997879E+03  0.17810887443E+03  0.00000000000E+00 0. -1.
        -12    1    5    5    0    0  0.48601599895E+01 -0.17496492559E+02  0.91475798005E+03  0.91493820036E+03  0.00000000000E+00 0.  1.
          5    1    3    3  501    0 -0.15799031676E+03 -0.97237354205E+02  0.18082220315E+03  0.25909493394E+03  0.41800000000E+01 0.  1.
         -5    1    3    3    0  501 -0.35824550285E+03 -0.13112174094E+03  0.17433091737E+03  0.41945380247E+03  0.41800000000E+01 0.  1.
</event>
<event>
11    1  0.1704459E-009  0.2037217E+03  0.7561462E-02  0.1051923E+00
         22   -1    0    0    0    0  0.00000000000E+00  0.00000000000E+00  0.23990550120E+03  0.23990550120E+03  0.00000000000E+00 0. -1.
         22   -1    0    0    0    0 -0.00000000000E+00 -0.00000000000E+00 -0.97380735481E+03  0.97380735481E+03  0.00000000000E+00 0. -1.
         25    2    1    2    0    0  0.88015243566E+02 -0.13003918600E+03 -0.49588088927E+03  0.53497871886E+03  0.12508996878E+03 0.  0.
         24    2    1    2    0    0  0.49576184229E+01  0.18275963485E+03 -0.41274101169E+03  0.45858898287E+03  0.80765403294E+02 0.  0.
        -24    2    1    2    0    0 -0.92972861989E+02 -0.52720448848E+02  0.17472004736E+03  0.22014515428E+03  0.80705608298E+02 0.  0.
        -13    1    4    4    0    0 -0.21076861949E+02  0.16382214196E+02 -0.98685422809E+02  0.10223220494E+03  0.00000000000E+00 0.  1.
         14    1    4    4    0    0  0.26034480372E+02  0.16637742065E+03 -0.31405558888E+03  0.35635677793E+03  0.00000000000E+00 0. -1.
         13    1    5    5    0    0 -0.10784872700E+03 -0.44129283535E+02  0.15630554725E+03  0.19496195958E+03  0.00000000000E+00 0. -1.
        -14    1    5    5    0    0  0.14875865010E+02 -0.85911653135E+01  0.18414500107E+02  0.25183194703E+02  0.00000000000E+00 0.  1.
          5    1    3    3  501    0 -0.26411430588E+02 -0.42428286803E+02 -0.76195061386E+02  0.91218873959E+02  0.41800000000E+01 0.  1.
         -5    1    3    3    0  501  0.11442667415E+03 -0.87610899194E+02 -0.41968582789E+03  0.44375984490E+03  0.41800000000E+01 0.  1.
</event>
<event>
11    1  0.1704459E-009  0.1825874E+03  0.7561462E-02  0.1067569E+00
         22   -1    0    0    0    0  0.00000000000E+00  0.00000000000E+00  0.18791015022E+03  0.18791015022E+03  0.00000000000E+00 0. -1.
         22   -1    0    0    0    0 -0.00000000000E+00 -0.00000000000E+00 -0.34172565742E+03  0.34172565742E+03  0.00000000000E+00 0.  1.
         25    2    1    2    0    0  0.86571502250E+02  0.45004739171E+02 -0.13329444500E+03  0.20720759731E+03  0.12509007861E+03 0.  0.
         24    2    1    2    0    0  0.64335518722E+02 -0.76022693338E+02 -0.65007832108E+02  0.14322293187E+03  0.79801510680E+02 0.  0.
        -24    2    1    2    0    0 -0.15090702097E+03  0.31017954167E+02  0.44486769916E+02  0.17920527846E+03  0.80002604150E+02 0.  0.
        -13    1    4    4    0    0  0.10226082868E+02 -0.44497412816E+02 -0.66401895390E+02  0.80584143785E+02  0.00000000000E+00 0.  1.
         14    1    4    4    0    0  0.54109435854E+02 -0.31525280522E+02  0.13940632822E+01  0.62638788086E+02  0.00000000000E+00 0. -1.
         13    1    5    5    0    0 -0.11285896755E+03  0.35775701065E+02  0.65682202658E+02  0.13539275863E+03  0.00000000000E+00 0. -1.
        -14    1    5    5    0    0 -0.38048053421E+02 -0.47577468978E+01 -0.21195432742E+02  0.43812519830E+02  0.00000000000E+00 0.  1.
          5    1    3    3  501    0  0.63720945270E+02 -0.26494816778E+02 -0.21342077457E+02  0.72355309773E+02  0.41800000000E+01 0.  1.
         -5    1    3    3    0  501  0.22850556980E+02  0.71499555950E+02 -0.11195236755E+03  0.13485228754E+03  0.41800000000E+01 0.  1.
</event>
<event>
11    1  0.1704459E-009  0.4824250E+03  0.7561462E-02  0.9433674E-01
         22   -1    0    0    0    0  0.00000000000E+00  0.00000000000E+00  0.14583936408E+04  0.14583936408E+04  0.00000000000E+00 0.  1.
         22   -1    0    0    0    0 -0.00000000000E+00 -0.00000000000E+00 -0.56367544789E+03  0.56367544789E+03  0.00000000000E+00 0.  1.
         25    2    1    2    0    0 -0.61191525446E+02  0.44430967981E+03 -0.32256023663E+03  0.56643428266E+03  0.12508875230E+03 0.  0.
         24    2    1    2    0    0  0.48392360193E+01 -0.60134422316E+03  0.81871147653E+03  0.10179254599E+04  0.65157250340E+02 0.  0.
        -24    2    1    2    0    0  0.56352289427E+02  0.15703454335E+03  0.39856695301E+03  0.43770934608E+03  0.69988765429E+02 0.  0.
        -11    1    4    4    0    0  0.15085078223E+02 -0.50006529358E+03  0.64102891748E+03  0.81314877511E+03  0.00000000000E+00 0.  1.
         12    1    4    4    0    0 -0.10245842204E+02 -0.10127892959E+03  0.17768255905E+03  0.20477668484E+03  0.00000000000E+00 0. -1.
         13    1    5    5    0    0  0.57403704007E+01  0.11033535233E+02  0.10704882893E+03  0.10776893118E+03  0.00000000000E+00 0. -1.
        -14    1    5    5    0    0  0.50611919026E+02  0.14600100812E+03  0.29151812407E+03  0.32994041490E+03  0.00000000000E+00 0.  1.
          5    1    3    3  501    0 -0.20102871117E+02  0.24193393899E+03 -0.24738823932E+03  0.34663319174E+03  0.41800000000E+01 0.  1.
         -5    1    3    3    0  501 -0.41088654328E+02  0.20237574082E+03 -0.75171997306E+02  0.21980109091E+03  0.41800000000E+01 0.  1.
</event>
<event>
11    1  0.1704459E-009  0.1854434E+04  0.7561462E-02  0.8129415E-01
         22   -1    0    0    0    0  0.00000000000E+00  0.00000000000E+00  0.24954425113E+03  0.24954425113E+03  0.00000000000E+00 0. -1.
         22   -1    0    0    0    0 -0.00000000000E+00 -0.00000000000E+00 -0.34452046690E+04  0.34452046690E+04  0.00000000000E+00 0. -1.
         25    2    1    2    0    0 -0.12576358109E+03  0.20198468689E+03 -0.33512596730E+04  0.33620226449E+04  0.12506229026E+03 0.  0.
        -24    2    1    2    0    0  0.48046221504E+02 -0.87571388384E+02  0.39928226894E+02  0.13562699977E+03  0.82602858899E+02 0.  0.
         24    2    1    2    0    0  0.77717359589E+02 -0.11441329850E+03  0.11567102829E+03  0.19709927547E+03  0.79611222506E+02 0.  0.
        -13    1    5    5    0    0  0.40893220204E+02 -0.68110279274E+02  0.15767849946E+02  0.80993152139E+02  0.00000000000E+00 0.  1.
         14    1    5    5    0    0  0.36824139385E+02 -0.46303019228E+02  0.99903178349E+02  0.11610612333E+03  0.00000000000E+00 0. -1.
         13    1    4    4    0    0  0.39419647244E+02 -0.10380645085E+03  0.36798601181E+02  0.11697788199E+03  0.00000000000E+00 0. -1.
        -14    1    4    4    0    0  0.86265742597E+01  0.16235062464E+02  0.31296257127E+01  0.18649117774E+02  0.00000000000E+00 0.  1.
          5    1    3    3  501    0 -0.99659573735E+02  0.45009305969E+02 -0.14269417695E+04  0.14311317739E+04  0.41800000000E+01 0.  1.
         -5    1    3    3    0  501 -0.26104007357E+02  0.15697538092E+03 -0.19243179035E+04  0.19308908710E+04  0.41800000000E+01 0.  1.
</event>
<event>
11    1  0.1704459E-009  0.7696947E+03  0.7561462E-02  0.8935465E-01
         22   -1    0    0    0    0  0.00000000000E+00  0.00000000000E+00  0.22522877605E+04  0.22522877605E+04  0.00000000000E+00 0. -1.
         22   -1    0    0    0    0 -0.00000000000E+00 -0.00000000000E+00 -0.92318942059E+03  0.92318942059E+03  0.00000000000E+00 0. -1.
         25    2    1    2    0    0 -0.87301846243E+02 -0.46340832761E+03 -0.48305319842E+03  0.68655376186E+03  0.12508710947E+03 0.  0.
        -24    2    1    2    0    0 -0.61904554515E+03 -0.43220787673E+02  0.20236964700E+03  0.65748869761E+03  0.79072688096E+02 0.  0.
         24    2    1    2    0    0  0.70634739139E+03  0.50662911528E+03  0.16097818914E+04  0.18314347216E+04  0.84591395098E+02 0.  0.
        -11    1    5    5    0    0  0.41009357231E+03  0.25800341912E+03  0.95781108734E+03  0.10733799799E+04  0.00000000000E+00 0.  1.
         12    1    5    5    0    0  0.29625381908E+03  0.24862569617E+03  0.65197080402E+03  0.75805474169E+03  0.00000000000E+00 0. -1.
         13    1    4    4    0    0 -0.54678879577E+03 -0.52445979755E+02  0.20010100198E+03  0.58461010851E+03  0.00000000000E+00 0. -1.
        -14    1    4    4    0    0 -0.72256749373E+02  0.92251920815E+01  0.22686450161E+01  0.72878589100E+02  0.00000000000E+00 0.  1.
          5    1    3    3  501    0  0.30138413675E+02 -0.11046430197E+03 -0.93180531961E+02  0.14768469767E+03  0.41800000000E+01 0. -1.
         -5    1    3    3    0  501 -0.11744025992E+03 -0.35294402564E+03 -0.38987266646E+03  0.53886906419E+03  0.41800000000E+01 0. -1.
</event>
<event>
11    1  0.1704459E-009  0.1646635E+03  0.7561462E-02  0.1082771E+00
         22   -1    0    0    0    0  0.00000000000E+00  0.00000000000E+00  0.16260594795E+03  0.16260594795E+03  0.00000000000E+00 0. -1.
         22   -1    0    0    0    0 -0.00000000000E+00 -0.00000000000E+00 -0.39949733459E+03  0.39949733459E+03  0.00000000000E+00 0. -1.
         25    2    1    2    0    0  0.24600990946E+02 -0.93126132908E+02 -0.18994754329E+03  0.24699258192E+03  0.12509029112E+03 0.  0.
        -24    2    1    2    0    0  0.50626315334E+01  0.12209584597E+03 -0.12801220572E+03  0.19427919342E+03  0.80151446292E+02 0.  0.
         24    2    1    2    0    0 -0.29663622479E+02 -0.28969713057E+02  0.81068362371E+02  0.12083150720E+03  0.79429207356E+02 0.  0.
        -11    1    5    5    0    0  0.86146496469E+01  0.70297711271E+01 -0.10476810634E+02  0.15277219370E+02  0.00000000000E+00 0.  1.
         12    1    5    5    0    0 -0.38278272126E+02 -0.35999484184E+02  0.91545173005E+02  0.10555428783E+03  0.00000000000E+00 0. -1.
         13    1    4    4    0    0  0.73176600686E+00  0.79459514719E+02 -0.25963476088E+02  0.83596961975E+02  0.00000000000E+00 0. -1.
        -14    1    4    4    0    0  0.43308655265E+01  0.42636331246E+02 -0.10204872963E+03  0.11068223144E+03  0.00000000000E+00 0.  1.
          5    1    3    3  501    0  0.34126249287E+02 -0.30956624584E+02 -0.17660227935E+03  0.18256163608E+03  0.41800000000E+01 0.  1.
         -5    1    3    3    0  501 -0.95252583414E+01 -0.62169508324E+02 -0.13345263939E+02  0.64430945836E+02  0.41800000000E+01 0.  1.
</event>
<event>
11    1  0.1704459E-009  0.1826877E+03  0.7561462E-02  0.1067489E+00
         22   -1    0    0    0    0  0.00000000000E+00  0.00000000000E+00  0.59241784543E+02  0.59241784543E+02  0.00000000000E+00 0.  1.
         22   -1    0    0    0    0 -0.00000000000E+00 -0.00000000000E+00 -0.11671522147E+04  0.11671522147E+04  0.00000000000E+00 0.  1.
         25    2    1    2    0    0 -0.14174847839E+03  0.59141228445E+02 -0.75482059495E+03  0.78037962580E+03  0.12509162156E+03 0.  0.
        -24    2    1    2    0    0  0.11498712760E+03  0.82688578226E+01 -0.28848630677E+03  0.32059152181E+03  0.79146453743E+02 0.  0.
         24    2    1    2    0    0  0.26761350796E+02 -0.67410086268E+02 -0.64603528442E+02  0.12542285163E+03  0.79353551886E+02 0.  0.
        -11    1    5    5    0    0  0.36196045615E+02 -0.70055420211E+01 -0.50763693495E+02  0.62739014293E+02  0.00000000000E+00 0.  1.
         12    1    5    5    0    0 -0.94346948190E+01 -0.60404544247E+02 -0.13839834947E+02  0.62683837338E+02  0.00000000000E+00 0. -1.
         13    1    4    4    0    0  0.17338646545E+02  0.30863639126E+02 -0.44802256203E+02  0.57100219308E+02  0.00000000000E+00 0. -1.
        -14    1    4    4    0    0  0.97648481050E+02 -0.22594781303E+02 -0.24368405056E+03  0.26349130250E+03  0.00000000000E+00 0.  1.
          5    1    3    3  501    0 -0.10031762110E+03 -0.25595735338E+02 -0.38576606935E+03  0.39943923122E+03  0.41800000000E+01 0. -1.
         -5    1    3    3    0  501 -0.41430857293E+02  0.84736963783E+02 -0.36905452560E+03  0.38094039459E+03  0.41800000000E+01 0. -1.
</event>
<event>
11    1  0.1704459E-009  0.2659356E+03  0.7561462E-02  0.1015737E+00
         22   -1    0    0    0    0  0.00000000000E+00  0.00000000000E+00  0.51996585878E+03  0.51996585878E+03  0.00000000000E+00 0. -1.
         22   -1    0    0    0    0 -0.00000000000E+00 -0.00000000000E+00 -0.30540663173E+03  0.30540663173E+03  0.00000000000E+00 0. -1.
         25    2    1    2    0    0  0.16861038622E+03  0.14733399148E+03 -0.13946297933E+03  0.29194998917E+03  0.12509239059E+03 0.  0.
        -24    2    1    2    0    0 -0.20539068590E+03 -0.17643355765E+03  0.17746498035E+03  0.33360777293E+03  0.80536903255E+02 0.  0.
         24    2    1    2    0    0  0.36780299682E+02  0.29099566168E+02  0.17655722603E+03  0.19981472842E+03  0.80956138955E+02 0.  0.
        -11    1    5    5    0    0 -0.69037038094E+01 -0.22583934651E+02  0.67027053789E+02  0.71065611727E+02  0.00000000000E+00 0.  1.
         12    1    5    5    0    0  0.43684003492E+02  0.51683500819E+02  0.10953017224E+03  0.12874911669E+03  0.00000000000E+00 0. -1.
         13    1    4    4    0    0 -0.20798434855E+03 -0.15197176267E+03  0.15749361856E+03  0.30192241682E+03  0.00000000000E+00 0. -1.
        -14    1    4    4    0    0  0.25936626531E+01 -0.24461794986E+02  0.19971361788E+02  0.31685356106E+02  0.00000000000E+00 0.  1.
          5    1    3    3  501    0 -0.15743303199E+02  0.15546724110E+01 -0.26515648049E+02  0.31157994052E+02  0.41800000000E+01 0. -1.
         -5    1    3    3    0  501  0.18435368942E+03  0.14577931907E+03 -0.11294733128E+03  0.26079199511E+03  0.41800000000E+01 0. -1.
</event>
<event>
11    1  0.1704459E-009  0.5509455E+03  0.7561462E-02  0.9286374E-01
         22   -1    0    0    0    0  0.00000000000E+00  0.00000000000E+00  0.58775144960E+03  0.58775144960E+03  0.00000000000E+00 0. -1.
         22   -1    0    0    0    0 -0.00000000000E+00 -0.00000000000E+00 -0.12242638128E+04  0.12242638128E+04  0.00000000000E+00 0.  1.
         25    2    1    2    0    0 -0.60585833468E+02 -0.77779220946E+02 -0.43776142492E+03  0.46583481817E+03  0.12508701870E+03 0.  0.
         24    2    1    2    0    0 -0.46458449278E+03 -0.12634257583E+03 -0.50291569449E+03  0.70098458895E+03  0.81572058819E+02 0.  0.
        -24    2    1    2    0    0  0.52517032624E+03  0.20412179678E+03  0.30416475624E+03  0.64519585524E+03  0.79321580874E+02 0.  0.
        -13    1    4    4    0    0 -0.35489315410E+03 -0.62173918256E+02 -0.39040543167E+03  0.53125431576E+03  0.00000000000E+00 0.  1.
         14    1    4    4    0    0 -0.10969133867E+03 -0.64168657573E+02 -0.11251026283E+03  0.16973027319E+03  0.00000000000E+00 0. -1.
         13    1    5    5    0    0  0.47465225518E+03  0.16725927769E+03  0.24759477354E+03  0.56086861314E+03  0.00000000000E+00 0. -1.
        -14    1    5    5    0    0  0.50518071068E+02  0.36862519082E+02  0.56569982707E+02  0.84327242105E+02  0.00000000000E+00 0.  1.
          5    1    3    3  501    0 -0.94704350238E+02 -0.36478434988E+02 -0.33224373085E+03  0.34742331422E+03  0.41800000000E+01 0. -1.
         -5    1    3    3    0  501  0.34118516769E+02 -0.41300785958E+02 -0.10551769407E+03  0.11841150396E+03  0.41800000000E+01 0. -1.
</event>
<event>
11    1  0.1704459E-009  0.5786792E+03  0.7561462E-02  0.9233083E-01
         22   -1    0    0    0    0  0.00000000000E+00  0.00000000000E+00  0.75937224483E+03  0.75937224483E+03  0.00000000000E+00 0.  1.
         22   -1    0    0    0    0 -0.00000000000E+00 -0.00000000000E+00 -0.21716372736E+04  0.21716372736E+04  0.00000000000E+00 0. -1.
         25    2    1    2    0    0 -0.10868507069E+03 -0.57333495194E+03 -0.12502714624E+04  0.13854072472E+04  0.12509635960E+03 0.  0.
        -24    2    1    2    0    0 -0.14626551123E+03  0.55243010031E+03 -0.72254210942E+03  0.92465281060E+03  0.79643610884E+02 0.  0.
         24    2    1    2    0    0  0.25495058192E+03  0.20904851625E+02  0.56054854303E+03  0.62094946066E+03  0.76985398372E+02 0.  0.
        -11    1    5    5    0    0  0.24838572917E+03  0.22942632237E+02  0.56110547561E+03  0.61405308369E+03  0.00000000000E+00 0.  1.
         12    1    5    5    0    0  0.65648527457E+01 -0.20377806129E+01 -0.55693258325E+00  0.68963769692E+01  0.00000000000E+00 0. -1.
         13    1    4    4    0    0 -0.26732380295E+02  0.15447813586E+03 -0.14795780703E+03  0.21556814996E+03  0.00000000000E+00 0. -1.
        -14    1    4    4    0    0 -0.11953313094E+03  0.39795196446E+03 -0.57458430239E+03  0.70908466064E+03  0.00000000000E+00 0.  1.
          5    1    3    3  501    0 -0.46439016530E+02 -0.42241909397E+03 -0.79052916828E+03  0.89752343229E+03  0.41800000000E+01 0. -1.
         -5    1    3    3    0  501 -0.62246054158E+02 -0.15091585796E+03 -0.45974229410E+03  0.48788381488E+03  0.41800000000E+01 0. -1.
</event>
<event>
11    1  0.1704459E-009  0.1838739E+03  0.7561462E-02  0.1066552E+00
         22   -1    0    0    0    0  0.00000000000E+00  0.00000000000E+00  0.17676199560E+04  0.17676199560E+04  0.00000000000E+00 0. -1.
         22   -1    0    0    0    0 -0.00000000000E+00 -0.00000000000E+00 -0.19736414571E+03  0.19736414571E+03  0.00000000000E+00 0. -1.
         25    2    1    2    0    0 -0.28796680489E+02 -0.14128478842E+03  0.24689015202E+02  0.19247333487E+03  0.12508316000E+03 0.  0.
        -24    2    1    2    0    0  0.19524900061E+02  0.12883572688E+03 -0.60247442852E+02  0.16458882582E+03  0.80497583641E+02 0.  0.
         24    2    1    2    0    0  0.92717804281E+01  0.12449061539E+02  0.16058142379E+04  0.16079219410E+04  0.80824851205E+02 0.  0.
        -13    1    5    5    0    0  0.16469015284E+01 -0.16005832510E+02  0.70010870038E+02  0.71836069509E+02  0.00000000000E+00 0.  1.
         14    1    5    5    0    0  0.76248788997E+01  0.28454894049E+02  0.15358033679E+04  0.15360858715E+04  0.00000000000E+00 0. -1.
         13    1    4    4    0    0  0.40540265959E+02  0.11986101754E+03 -0.36631996925E+02  0.13172729363E+03  0.00000000000E+00 0. -1.
        -14    1    4    4    0    0 -0.21015365898E+02  0.89747093462E+01 -0.23615445927E+02  0.32861532192E+02  0.00000000000E+00 0.  1.
          5    1    3    3  501    0 -0.70056372639E+02 -0.42805272336E+02  0.23923281064E+02  0.85615316760E+02  0.41800000000E+01 0.  1.
         -5    1    3    3    0  501  0.41259692150E+02 -0.98479516085E+02  0.76573413826E+00  0.10685801811E+03  0.41800000000E+01 0.  1.
</event>
<event>
11    1  0.1704459E-009  0.2809706E+03  0.7561462E-02  0.1008583E+00
         22   -1    0    0    0    0  0.00000000000E+00  0.00000000000E+00  0.48032574588E+03  0.48032574588E+03  0.00000000000E+00 0.  1.
         22   -1    0    0    0    0 -0.00000000000E+00 -0.00000000000E+00 -0.43344047680E+03  0.43344047680E+03  0.00000000000E+00 0.  1.
         25    2    1    2    0    0 -0.37836087813E+02 -0.23669106976E+03 -0.24783411869E+03  0.36677389130E+03  0.12508838840E+03 0.  0.
        -24    2    1    2    0    0  0.78470488386E+02  0.31221645051E+03  0.26727710399E+03  0.42605122302E+03  0.80286143281E+02 0.  0.
         24    2    1    2    0    0 -0.40634400574E+02 -0.75525380750E+02  0.27442283773E+02  0.12094110836E+03  0.80736826197E+02 0.  0.
        -13    1    5    5    0    0 -0.21217131298E+02 -0.90130793026E+02  0.15554662713E+02  0.93891820965E+02  0.00000000000E+00 0.  1.
         14    1    5    5    0    0 -0.19417269276E+02  0.14605412277E+02  0.11887621060E+02  0.27049287391E+02  0.00000000000E+00 0. -1.
         13    1    4    4    0    0 -0.14045154091E+02  0.89511465651E+02  0.70749420310E+02  0.11495672799E+03  0.00000000000E+00 0. -1.
        -14    1    4    4    0    0  0.92515642478E+02  0.22270498486E+03  0.19652768368E+03  0.31109449503E+03  0.00000000000E+00 0.  1.
          5    1    3    3  501    0  0.33890768785E+02 -0.15420114214E+02 -0.28973849481E+02  0.47363704299E+02  0.41800000000E+01 0. -1.
         -5    1    3    3    0  501 -0.71726856597E+02 -0.22127095554E+03 -0.21886026921E+03  0.31941018700E+03  0.41800000000E+01 0. -1.
</event>
<event>
11    1  0.1704459E-009  0.3299733E+03  0.7561462E-02  0.9882475E-01
         22   -1    0    0    0    0  0.00000000000E+00  0.00000000000E+00  0.14720344345E+03  0.14720344345E+03  0.00000000000E+00 0. -1.
         22   -1    0    0    0    0 -0.00000000000E+00 -0.00000000000E+00 -0.16576155072E+04  0.16576155072E+04  0.00000000000E+00 0. -1.
         25    2    1    2    0    0 -0.32609398534E+03  0.46249757086E+02 -0.11698070420E+04  0.12217083919E+04  0.12508617755E+03 0.  0.
         24    2    1    2    0    0  0.21590898539E+03 -0.16741870018E+03 -0.25120893651E+03  0.37955997654E+03  0.79461530718E+02 0.  0.
        -24    2    1    2    0    0  0.11018499995E+03  0.12116894309E+03 -0.89396085210E+02  0.20355058226E+03  0.81354363755E+02 0.  0.
        -13    1    4    4    0    0  0.74469500109E+01  0.24993219962E+01 -0.30963549282E+02  0.31944405755E+02  0.00000000000E+00 0.  1.
         14    1    4    4    0    0  0.20846203538E+03 -0.16991802218E+03 -0.22024538722E+03  0.34761557078E+03  0.00000000000E+00 0. -1.
         11    1    5    5    0    0  0.63951296450E+02  0.10597882421E+03 -0.31128185769E+02  0.12763323802E+03  0.00000000000E+00 0. -1.
        -12    1    5    5    0    0  0.46233703499E+02  0.15190118888E+02 -0.58267899441E+02  0.75917344239E+02  0.00000000000E+00 0.  1.
          5    1    3    3  501    0 -0.55644314336E+02 -0.33591475872E+02 -0.14802040175E+03  0.16171638354E+03  0.41800000000E+01 0.  1.
         -5    1    3    3    0  501 -0.27044967101E+03  0.79841232958E+02 -0.10217866403E+04  0.10599920083E+04  0.41800000000E+01 0.  1.
</event>
<event>
11    1  0.1704459E-009  0.5313234E+03  0.7561462E-02  0.9326129E-01
         22   -1    0    0    0    0  0.00000000000E+00  0.00000000000E+00  0.38586596169E+02  0.38586596169E+02  0.00000000000E+00 0. -1.
         22   -1    0    0    0    0 -0.00000000000E+00 -0.00000000000E+00 -0.18290327628E+04  0.18290327628E+04  0.00000000000E+00 0.  1.
         25    2    1    2    0    0  0.79865491020E+01 -0.20838360821E+03 -0.93683406718E+03  0.96788008471E+03  0.12508507433E+03 0.  0.
         24    2    1    2    0    0  0.38457094259E+02  0.14180697132E+03 -0.54805810507E+03  0.57308177532E+03  0.80416848113E+02 0.  0.
        -24    2    1    2    0    0 -0.46443643361E+02  0.66576636891E+02 -0.30555399434E+03  0.32665749890E+03  0.82173094975E+02 0.  0.
        -11    1    4    4    0    0 -0.15233281707E+02  0.10944005949E+02 -0.13896271179E+03  0.14022289187E+03  0.00000000000E+00 0.  1.
         12    1    4    4    0    0  0.53690375966E+02  0.13086296537E+03 -0.40909539328E+03  0.43285888345E+03  0.00000000000E+00 0. -1.
         13    1    5    5    0    0 -0.63034753415E+02  0.38381220657E+02 -0.14384091304E+03  0.16166850807E+03  0.00000000000E+00 0. -1.
        -14    1    5    5    0    0  0.16591110054E+02  0.28195416234E+02 -0.16171308131E+03  0.16498899083E+03  0.00000000000E+00 0.  1.
          5    1    3    3  501    0 -0.43556098727E+02 -0.25437988196E+02 -0.25850507890E+03  0.26341331248E+03  0.41800000000E+01 0.  1.
         -5    1    3    3    0  501  0.51542647829E+02 -0.18294562001E+03 -0.67832898828E+03  0.70446677223E+03  0.41800000000E+01 0.  1.
</event>
<event>
11    1  0.1704459E-009  0.2034024E+03  0.7561462E-02  0.1052143E+00
         22   -1    0    0    0    0  0.00000000000E+00  0.00000000000E+00  0.16508399660E+03  0.16508399660E+03  0.00000000000E+00 0.  1.
         22   -1    0    0    0    0 -0.00000000000E+00 -0.00000000000E+00 -0.55428821044E+03  0.55428821044E+03  0.00000000000E+00 0. -1.
         25    2    1    2    0    0 -0.13909469023E+03  0.99969845809E+02 -0.40481351304E+03  0.45701654456E+03  0.12509531863E+03 0.  0.
         24    2    1    2    0    0  0.13565983828E+03 -0.23014551665E+02  0.10184791307E+02  0.15264263230E+03  0.65289983236E+02 0.  0.
        -24    2    1    2    0    0  0.34348519463E+01 -0.76955294144E+02  0.54245078819E+01  0.10971303018E+03  0.77933357433E+02 0.  0.
        -11    1    4    4    0    0  0.48014930985E+02  0.22982850973E+02  0.60478461072E+01  0.53574448004E+02  0.00000000000E+00 0.  1.
         12    1    4    4    0    0  0.87644907298E+02 -0.45997402638E+02  0.41369452002E+01  0.99068184299E+02  0.00000000000E+00 0. -1.
         11    1    5    5    0    0  0.23691753445E+02 -0.53102050651E+02 -0.27470968379E+02  0.64310038627E+02  0.00000000000E+00 0. -1.
        -12    1    5    5    0    0 -0.20256901499E+02 -0.23853243494E+02  0.32895476261E+02  0.45402991553E+02  0.00000000000E+00 0.  1.
          5    1    3    3  501    0 -0.60540726306E+02  0.40033771392E+02 -0.48893999366E+02  0.87612658718E+02  0.41800000000E+01 0. -1.
         -5    1    3    3    0  501 -0.78553963923E+02  0.59936074417E+02 -0.35591951367E+03  0.36940388584E+03  0.41800000000E+01 0. -1.
</event>
<event>
11    1  0.1704459E-009  0.1927451E+03  0.7561462E-02  0.1059776E+00
         22   -1    0    0    0    0  0.00000000000E+00  0.00000000000E+00  0.10254722696E+04  0.10254722696E+04  0.00000000000E+00 0.  1.
         22   -1    0    0    0    0 -0.00000000000E+00 -0.00000000000E+00 -0.62021192342E+03  0.62021192342E+03  0.00000000000E+00 0.  1.
         25    2    1    2    0    0 -0.11788340817E+03 -0.60481509534E+02 -0.22062590647E+03  0.28614141954E+03  0.12508641194E+03 0.  0.
        -24    2    1    2    0    0  0.91183765818E+02  0.13743762073E+03 -0.33943585122E+03  0.38743786206E+03  0.87680220852E+02 0.  0.
         24    2    1    2    0    0  0.26699642351E+02 -0.76956111192E+02  0.96532210386E+03  0.97210491141E+03  0.80660279183E+02 0.  0.
        -13    1    5    5    0    0  0.27626805694E+02 -0.73270806973E+02  0.44956474811E+03  0.45633355596E+03  0.00000000000E+00 0.  1.
         14    1    5    5    0    0 -0.92716334310E+00 -0.36853042187E+01  0.51575735574E+03  0.51577135545E+03  0.00000000000E+00 0. -1.
         13    1    4    4    0    0  0.75933534766E+02  0.13328063645E+03 -0.22744565699E+03  0.27433766901E+03  0.00000000000E+00 0. -1.
        -14    1    4    4    0    0  0.15250231053E+02  0.41569842744E+01 -0.11199019422E+03  0.11310019305E+03  0.00000000000E+00 0.  1.
          5    1    3    3  501    0 -0.11540761381E+03 -0.26950502884E+01 -0.10201230440E+03  0.15411087979E+03  0.41800000000E+01 0.  1.
         -5    1    3    3    0  501 -0.24757943635E+01 -0.57786459245E+02 -0.11861360207E+03  0.13203053975E+03  0.41800000000E+01 0.  1.
</event>
<event>
11    1  0.1704459E-009  0.1306944E+04  0.7561462E-02  0.8431779E-01
         22   -1    0    0    0    0  0.00000000000E+00  0.00000000000E+00  0.99918183869E+03  0.99918183869E+03  0.00000000000E+00 0.  1.
         22   -1    0    0    0    0 -0.00000000000E+00 -0.00000000000E+00 -0.34253091450E+04  0.34253091450E+04  0.00000000000E+00 0.  1.
         25    2    1    2    0    0  0.13571309339E+04 -0.26528923166E+03 -0.20902505325E+04  0.25093778496E+04  0.12508858936E+03 0.  0.
        -24    2    1    2    0    0 -0.11902716391E+04 -0.86667159949E+02 -0.68810970276E+03  0.13799034354E+04  0.79879637964E+02 0.  0.
         24    2    1    2    0    0 -0.16685929477E+03  0.35195639161E+03  0.35223292899E+03  0.53520969869E+03  0.10327661624E+03 0.  0.
        -13    1    5    5    0    0 -0.93563456512E+01  0.59926015329E+02  0.10563819843E+03  0.12181172967E+03  0.00000000000E+00 0.  1.
         14    1    5    5    0    0 -0.15750294912E+03  0.29203037628E+03  0.24659473056E+03  0.41339796902E+03  0.00000000000E+00 0. -1.
         11    1    4    4    0    0 -0.80066061865E+03 -0.78445481642E+02 -0.49965126568E+03  0.94702825045E+03  0.00000000000E+00 0. -1.
        -12    1    4    4    0    0 -0.38961102044E+03 -0.82216783077E+01 -0.18845843708E+03  0.43287518495E+03  0.00000000000E+00 0.  1.
          5    1    3    3  501    0  0.15548986167E+03 -0.29336100167E+02 -0.31769242342E+03  0.35494175882E+03  0.41800000000E+01 0. -1.
         -5    1    3    3    0  501  0.12016410722E+04 -0.23595313150E+03 -0.17725581091E+04  0.21544360907E+04  0.41800000000E+01 0. -1.
</event>
<event>
11    1  0.1704459E-009  0.2685205E+03  0.7561462E-02  0.1014471E+00
         22   -1    0    0    0    0  0.00000000000E+00  0.00000000000E+00  0.15888473977E+04  0.15888473977E+04  0.00000000000E+00 0.  1.
         22   -1    0    0    0    0 -0.00000000000E+00 -0.00000000000E+00 -0.71738560941E+03  0.71738560941E+03  0.00000000000E+00 0. -1.
         25    2    1    2    0    0  0.18074224769E+03  0.21691206546E+03 -0.61340514055E+03  0.68675477606E+03  0.12509057416E+03 0.  0.
         24    2    1    2    0    0  0.21604679616E+02 -0.93286917421E+02  0.73036944838E+01  0.12108369894E+03  0.73747590147E+02 0.  0.
        -24    2    1    2    0    0 -0.20234692731E+03 -0.12362514804E+03  0.14775632344E+04  0.14983945321E+04  0.75931588104E+02 0.  0.
        -11    1    4    4    0    0  0.47999506668E+02 -0.67948568094E+02  0.12506516923E+02  0.84127127087E+02  0.00000000000E+00 0.  1.
         12    1    4    4    0    0 -0.26394827052E+02 -0.25338349327E+02 -0.52028224388E+01  0.36956571852E+02  0.00000000000E+00 0. -1.
         13    1    5    5    0    0 -0.17920569252E+03 -0.78691011090E+02  0.10751359779E+04  0.10928057130E+04  0.00000000000E+00 0. -1.
        -14    1    5    5    0    0 -0.23141234793E+02 -0.44934136952E+02  0.40242725652E+03  0.40558881913E+03  0.00000000000E+00 0.  1.
          5    1    3    3  501    0  0.40224530295E+02  0.12913508318E+03 -0.35338511461E+03  0.37840770893E+03  0.41800000000E+01 0.  1.
         -5    1    3    3    0  501  0.14051771740E+03  0.87776982285E+02 -0.26002002594E+03  0.30834706714E+03  0.41800000000E+01 0.  1.
</event>
<event>
11    1  0.1704459E-009  0.2984545E+03  0.7561462E-02  0.1000847E+00
         22   -1    0    0    0    0  0.00000000000E+00  0.00000000000E+00  0.47251954390E+03  0.47251954390E+03  0.00000000000E+00 0. -1.
         22   -1    0    0    0    0 -0.00000000000E+00 -0.00000000000E+00 -0.34332801508E+03  0.34332801508E+03  0.00000000000E+00 0. -1.
         25    2    1    2    0    0 -0.16862575638E+02 -0.28105045908E+03 -0.12432983340E+03  0.33223882477E+03  0.12510404552E+03 0.  0.
        -24    2    1    2    0    0 -0.86473108458E+02  0.24736611636E+03  0.14678560579E+03  0.31099502980E+03  0.80649243570E+02 0.  0.
         24    2    1    2    0    0  0.10333568410E+03  0.33684342721E+02  0.10673575643E+03  0.17261370441E+03  0.81179250406E+02 0.  0.
        -13    1    5    5    0    0 -0.98043940687E+01  0.18599048556E+02  0.11532089875E+02  0.23979988472E+02  0.00000000000E+00 0.  1.
         14    1    5    5    0    0  0.11314007816E+03  0.15085294164E+02  0.95203666554E+02  0.14863371593E+03  0.00000000000E+00 0. -1.
         11    1    4    4    0    0 -0.80742867831E+02  0.14967808294E+03  0.60431523313E+02  0.18048520224E+03  0.00000000000E+00 0. -1.
        -12    1    4    4    0    0 -0.57302406266E+01  0.97688033419E+02  0.86354082473E+02  0.13050982756E+03  0.00000000000E+00 0.  1.
          5    1    3    3  501    0  0.30064817503E+02 -0.20521809536E+03 -0.12642457732E+03  0.24293827624E+03  0.41800000000E+01 0.  1.
         -5    1    3    3    0  501 -0.46927393141E+02 -0.75832363720E+02  0.20947439261E+01  0.89300548523E+02  0.41800000000E+01 0.  1.
</event>
<event>
11    1  0.1704459E-009  0.1780447E+04  0.7561462E-02  0.8163463E-01
         22   -1    0    0    0    0  0.00000000000E+00  0.00000000000E+00  0.58217794199E+03  0.58217794199E+03  0.00000000000E+00 0.  1.
         22   -1    0    0    0    0 -0.00000000000E+00 -0.00000000000E+00 -0.13612636405E+04  0.13612636405E+04  0.00000000000E+00 0. -1.
         25    2    1    2    0    0 -0.37570247126E+02 -0.20500410763E+03 -0.13149133801E+04  0.13371918265E+04  0.12508627446E+03 0.  0.
        -24    2    1    2    0    0  0.41919140465E+02  0.16926954700E+03  0.39670166434E+03  0.44036893977E+03  0.78378560501E+02 0.  0.
         24    2    1    2    0    0 -0.43488933397E+01  0.35734560627E+02  0.13912601732E+03  0.16588081615E+03  0.82852427690E+02 0.  0.
        -13    1    5    5    0    0  0.39127971989E+01  0.60120064450E+02  0.71378099970E+02  0.93405381466E+02  0.00000000000E+00 0.  1.
         14    1    5    5    0    0 -0.82616905387E+01 -0.24385503823E+02  0.67747917348E+02  0.72475434681E+02  0.00000000000E+00 0. -1.
         13    1    4    4    0    0  0.41781189481E+02  0.36825548209E+02  0.15586983650E+03  0.16552097972E+03  0.00000000000E+00 0. -1.
        -14    1    4    4    0    0  0.13795098468E+00  0.13244399879E+03  0.24083182784E+03  0.27484796006E+03  0.00000000000E+00 0.  1.
          5    1    3    3  501    0 -0.28804017139E+02 -0.21831784766E+03 -0.11114800599E+04  0.11330921189E+04  0.41800000000E+01 0.  1.
         -5    1    3    3    0  501 -0.87662299863E+01  0.13313740032E+02 -0.20343332027E+03  0.20409970764E+03  0.41800000000E+01 0.  1.
</event>
<event>
11    1  0.1704459E-009  0.5388213E+03  0.7561462E-02  0.9310727E-01
         22   -1    0    0    0    0  0.00000000000E+00  0.00000000000E+00  0.68030607354E+03  0.68030607354E+03  0.00000000000E+00 0.  1.
         22   -1    0    0    0    0 -0.00000000000E+00 -0.00000000000E+00 -0.83371115418E+03  0.83371115418E+03  0.00000000000E+00 0.  1.
         25    2    1    2    0    0  0.73068304331E+02 -0.57327597961E+03 -0.40143249260E+03  0.71468901733E+03  0.12509204402E+03 0.  0.
         24    2    1    2    0    0  0.18964610739E+03  0.21558364237E+03  0.34265773813E+02  0.30000677063E+03  0.79924753747E+02 0.  0.
        -24    2    1    2    0    0 -0.26271441172E+03  0.35769233724E+03  0.21376163815E+03  0.49932143976E+03  0.81640627217E+02 0.  0.
        -11    1    4    4    0    0  0.89531557377E+02  0.62725255174E+02  0.42023292211E+02  0.11711667042E+03  0.00000000000E+00 0.  1.
         12    1    4    4    0    0  0.10011455001E+03  0.15285838720E+03 -0.77575183982E+01  0.18289010021E+03  0.00000000000E+00 0. -1.
         11    1    5    5    0    0 -0.20365160964E+03  0.21544524236E+03  0.15436157308E+03  0.33424261519E+03  0.00000000000E+00 0. -1.
        -12    1    5    5    0    0 -0.59062802083E+02  0.14224709488E+03  0.59400065064E+02  0.16507882457E+03  0.00000000000E+00 0.  1.
          5    1    3    3  501    0  0.14831356629E+02 -0.57897530467E+00 -0.75517629909E+01  0.17169911943E+02  0.41800000000E+01 0. -1.
         -5    1    3    3    0  501  0.58236947702E+02 -0.57269700431E+03 -0.39388072960E+03  0.69751910538E+03  0.41800000000E+01 0. -1.
</event>
<event>
11    1  0.1704459E-009  0.1521869E+03  0.7561462E-02  0.1094665E+00
         22   -1    0    0    0    0  0.00000000000E+00  0.00000000000E+00  0.32591708650E+03  0.32591708650E+03  0.00000000000E+00 0.  1.
         22   -1    0    0    0    0 -0.00000000000E+00 -0.00000000000E+00 -0.67120286621E+03  0.67120286621E+03  0.00000000000E+00 0. -1.
         25    2    1    2    0    0 -0.87116020218E+02  0.11899066944E+03 -0.41225953048E+03  0.45536737087E+03  0.12511411425E+03 0.  0.
         24    2    1    2    0    0  0.35814136873E+02 -0.51426533869E+02 -0.21302321356E+03  0.23591694463E+03  0.79690491661E+02 0.  0.
        -24    2    1    2    0    0  0.51301883345E+02 -0.67564135573E+02  0.27999696434E+03  0.30583563722E+03  0.89108592741E+02 0.  0.
        -11    1    4    4    0    0  0.52494420988E+02 -0.18298976298E+02 -0.17128226728E+03  0.18007812708E+03  0.00000000000E+00 0.  1.
         12    1    4    4    0    0 -0.16680284115E+02 -0.33127557570E+02 -0.41740946285E+02  0.55838817551E+02  0.00000000000E+00 0. -1.
         11    1    5    5    0    0  0.34846041260E+02  0.59169828879E+01  0.16235516825E+03  0.16615793071E+03  0.00000000000E+00 0. -1.
        -12    1    5    5    0    0  0.16455842085E+02 -0.73481118461E+02  0.11764179609E+03  0.13967770651E+03  0.00000000000E+00 0.  1.
          5    1    3    3  501    0 -0.59666490267E+01 -0.26044044481E+02 -0.63045994568E+02  0.68601479464E+02  0.41800000000E+01 0. -1.
         -5    1    3    3    0  501 -0.81149371191E+02  0.14503471392E+03 -0.34921353591E+03  0.38676589140E+03  0.41800000000E+01 0. -1.
</event>
<event>
11    1  0.1704459E-009  0.2320900E+03  0.7561462E-02  0.1033898E+00
         22   -1    0    0    0    0  0.00000000000E+00  0.00000000000E+00  0.10675349211E+03  0.10675349211E+03  0.00000000000E+00 0. -1.
         22   -1    0    0    0    0 -0.00000000000E+00 -0.00000000000E+00 -0.13481444351E+04  0.13481444351E+04  0.00000000000E+00 0. -1.
         25    2    1    2    0    0  0.42459295243E+02  0.70347193872E+02 -0.42719067851E+03  0.45264939600E+03  0.12509228777E+03 0.  0.
        -24    2    1    2    0    0 -0.12842019046E+03 -0.23927154105E+03 -0.70225744191E+03  0.75723569860E+03  0.80608764049E+02 0.  0.
         24    2    1    2    0    0  0.85960895220E+02  0.16892434717E+03 -0.11194282261E+03  0.24501283264E+03  0.10758894947E+03 0.  0.
        -11    1    5    5    0    0 -0.18326062971E+02  0.76168595441E+02 -0.42337324205E+02  0.89050258485E+02  0.00000000000E+00 0.  1.
         12    1    5    5    0    0  0.10428695819E+03  0.92755751733E+02 -0.69605498407E+02  0.15596257415E+03  0.00000000000E+00 0. -1.
         13    1    4    4    0    0 -0.10120174256E+03 -0.11479793984E+03 -0.32954299143E+03  0.36334411085E+03  0.00000000000E+00 0. -1.
        -14    1    4    4    0    0 -0.27218447907E+02 -0.12447360121E+03 -0.37271445048E+03  0.39389158775E+03  0.00000000000E+00 0.  1.
          5    1    3    3  501    0  0.81871590400E+02  0.19702925317E+02 -0.21550778856E+03  0.23141357330E+03  0.41800000000E+01 0.  1.
         -5    1    3    3    0  501 -0.39412295156E+02  0.50644268555E+02 -0.21168288995E+03  0.22123582270E+03  0.41800000000E+01 0.  1.
</event>
<event>
11    1  0.1704459E-009  0.1718552E+03  0.7561462E-02  0.1076428E+00
         22   -1    0    0    0    0  0.00000000000E+00  0.00000000000E+00  0.40698549675E+02  0.40698549675E+02  0.00000000000E+00 0. -1.
         22   -1    0    0    0    0 -0.00000000000E+00 -0.00000000000E+00 -0.15016007660E+04  0.15016007660E+04  0.00000000000E+00 0. -1.
         25    2    1    2    0    0  0.17453303312E+02 -0.10731393689E+02 -0.60184007197E+03  0.61504333385E+03  0.12508816762E+03 0.  0.
        -24    2    1    2    0    0  0.64403282340E+02  0.13768919524E+03 -0.50945318915E+03  0.53771319968E+03  0.80540895847E+02 0.  0.
         24    2    1    2    0    0 -0.81856585652E+02 -0.12695780155E+03 -0.34960895516E+03  0.38954278211E+03  0.81843592132E+02 0.  0.
        -11    1    5    5    0    0 -0.33702665780E+02 -0.18260032942E+02 -0.30430312592E+02  0.48941826776E+02  0.00000000000E+00 0.  1.
         12    1    5    5    0    0 -0.48153919872E+02 -0.10869776861E+03 -0.31917864257E+03  0.34060095533E+03  0.00000000000E+00 0. -1.
         11    1    4    4    0    0  0.69476439373E+02  0.12529573634E+03 -0.50269603813E+03  0.52271340515E+03  0.00000000000E+00 0. -1.
        -12    1    4    4    0    0 -0.50731570328E+01  0.12393458903E+02 -0.67571510259E+01  0.14999794527E+02  0.00000000000E+00 0.  1.
          5    1    3    3  501    0 -0.37093686163E+02 -0.83672788757E+01 -0.47931199772E+03  0.48083616385E+03  0.41800000000E+01 0. -1.
         -5    1    3    3    0  501  0.54546989475E+02 -0.23641148131E+01 -0.12252807425E+03  0.13420717000E+03  0.41800000000E+01 0. -1.
</event>
<event>
11    1  0.1704459E-009  0.4885420E+03  0.7561462E-02  0.9419495E-01
         22   -1    0    0    0    0  0.00000000000E+00  0.00000000000E+00  0.91174839273E+03  0.91174839273E+03  0.00000000000E+00 0.  1.
         22   -1    0    0    0    0 -0.00000000000E+00 -0.00000000000E+00 -0.23568900984E+03  0.23568900984E+03  0.00000000000E+00 0.  1.
         25    2    1    2    0    0  0.20262394859E+03  0.12660496238E+03  0.94910369912E+02  0.28590506191E+03  0.12509374512E+03 0.  0.
        -24    2    1    2    0    0 -0.34181768224E+03 -0.25251927187E+03  0.38147601586E+03  0.57695281845E+03  0.82129735655E+02 0.  0.
         24    2    1    2    0    0  0.13919373365E+03  0.12591430949E+03  0.19967299711E+03  0.28457952221E+03  0.76726070283E+02 0.  0.
        -11    1    5    5    0    0  0.13392630978E+03  0.13423203895E+03  0.17506104073E+03  0.25807143335E+03  0.00000000000E+00 0.  1.
         12    1    5    5    0    0  0.52674238669E+01 -0.83177294571E+01  0.24611956386E+02  0.26508088854E+02  0.00000000000E+00 0. -1.
         13    1    4    4    0    0 -0.48728181004E+02 -0.68699357357E+01  0.30555934190E+02  0.57924923437E+02  0.00000000000E+00 0. -1.
        -14    1    4    4    0    0 -0.29308950124E+03 -0.24564933614E+03  0.35092008167E+03  0.51902789501E+03  0.00000000000E+00 0.  1.
          5    1    3    3  501    0  0.19057064189E+02  0.73157255622E+02  0.89598541200E+01  0.76242423437E+02  0.41800000000E+01 0.  1.
         -5    1    3    3    0  501  0.18356688440E+03  0.53447706758E+02  0.85950515792E+02  0.20966263847E+03  0.41800000000E+01 0.  1.
</event>
<event>
11    1  0.1704459E-009  0.5300356E+03  0.7561462E-02  0.9328802E-01
         22   -1    0    0    0    0  0.00000000000E+00  0.00000000000E+00  0.13093258930E+04  0.13093258930E+04  0.00000000000E+00 0.  1.
         22   -1    0    0    0    0 -0.00000000000E+00 -0.00000000000E+00 -0.15938680899E+04  0.15938680899E+04  0.00000000000E+00 0.  1.
         25    2    1    2    0    0 -0.16365655464E+03  0.49376990089E+03 -0.14511128778E+04  0.15465994347E+04  0.12509613991E+03 0.  0.
        -24    2    1    2    0    0  0.22809617249E+02 -0.46030506677E+03  0.56799804031E+03  0.73579870109E+03  0.79855629703E+02 0.  0.
         24    2    1    2    0    0  0.14084693739E+03 -0.33464834121E+02  0.59857264060E+03  0.62079584720E+03  0.78361488828E+02 0.  0.
        -13    1    5    5    0    0  0.11547783016E+03 -0.46494721742E+02  0.36842748863E+03  0.38889034802E+03  0.00000000000E+00 0.  1.
         14    1    5    5    0    0  0.25369107233E+02  0.13029887621E+02  0.23014515197E+03  0.23190549918E+03  0.00000000000E+00 0. -1.
         11    1    4    4    0    0  0.42487119921E+02 -0.16242955660E+03  0.17840638129E+03  0.24498439358E+03  0.00000000000E+00 0. -1.
        -12    1    4    4    0    0 -0.19677502671E+02 -0.29787551018E+03  0.38959165902E+03  0.49081430751E+03  0.00000000000E+00 0.  1.
          5    1    3    3  501    0 -0.18241621441E+03  0.41975196945E+03 -0.12722554603E+04  0.13520794428E+04  0.41800000000E+01 0.  1.
         -5    1    3    3    0  501  0.18759659771E+02  0.74017931448E+02 -0.17885741756E+03  0.19451999184E+03  0.41800000000E+01 0.  1.
</event>
<event>
11    1  0.1704459E-009  0.5830929E+03  0.7561462E-02  0.9224894E-01
         22   -1    0    0    0    0  0.00000000000E+00  0.00000000000E+00  0.79080098138E+03  0.79080098138E+03  0.00000000000E+00 0. -1.
         22   -1    0    0    0    0 -0.00000000000E+00 -0.00000000000E+00 -0.57109627201E+03  0.57109627201E+03  0.00000000000E+00 0. -1.
         25    2    1    2    0    0 -0.52806785702E+03  0.20098930900E+03 -0.14147420778E+03  0.59574765279E+03  0.12509176787E+03 0.  0.
        -24    2    1    2    0    0  0.52775134745E+03 -0.24094307373E+03  0.32322986828E+03  0.66880343601E+03  0.79028088417E+02 0.  0.
         24    2    1    2    0    0  0.31650956595E+00  0.39953764728E+02  0.37949048875E+02  0.97346164588E+02  0.80248002812E+02 0.  0.
        -11    1    5    5    0    0 -0.16188223343E+02  0.90312697467E+01 -0.21466176049E+02  0.28362283449E+02  0.00000000000E+00 0.  1.
         12    1    5    5    0    0  0.16504732909E+02  0.30922494981E+02  0.59415224924E+02  0.68983881139E+02  0.00000000000E+00 0. -1.
         13    1    4    4    0    0  0.30828581967E+03 -0.18147046244E+03  0.18557513609E+03  0.40300100060E+03  0.00000000000E+00 0. -1.
        -14    1    4    4    0    0  0.21946552778E+03 -0.59472611287E+02  0.13765473219E+03  0.26580243542E+03  0.00000000000E+00 0.  1.
          5    1    3    3  501    0 -0.19354418019E+03  0.20060853846E+02 -0.16162944343E+02  0.19529593112E+03  0.41800000000E+01 0.  1.
         -5    1    3    3    0  501 -0.33452367683E+03  0.18092845515E+03 -0.12531126344E+03  0.40045172167E+03  0.41800000000E+01 0.  1.
</event>
<event>
11    1  0.1704459E-009  0.5517364E+03  0.7561462E-02  0.9284809E-01
         22   -1    0    0    0    0  0.00000000000E+00  0.00000000000E+00  0.47430463162E+03  0.47430463162E+03  0.00000000000E+00 0.  1.
         22   -1    0    0    0    0 -0.00000000000E+00 -0.00000000000E+00 -0.18676304096E+04  0.18676304096E+04  0.00000000000E+00 0.  1.
         25    2    1    2    0    0 -0.55161419928E+02 -0.54280659444E+03 -0.15948605049E+04  0.16902394041E+04  0.12508969543E+03 0.  0.
        -24    2    1    2    0    0  0.10857499563E+02  0.48649598370E+03  0.10008235126E+03  0.50326810325E+03  0.80411934834E+02 0.  0.
         24    2    1    2    0    0  0.44303920364E+02  0.56310610750E+02  0.10145237571E+03  0.14842753382E+03  0.81267619727E+02 0.  0.
        -11    1    5    5    0    0  0.21829165769E+02  0.23357372663E+02  0.10366076422E+03  0.10847872314E+03  0.00000000000E+00 0.  1.
         12    1    5    5    0    0  0.22474754596E+02  0.32953238087E+02 -0.22083885134E+01  0.39948810675E+02  0.00000000000E+00 0. -1.
         11    1    4    4    0    0  0.19928100409E+02  0.14774745934E+03  0.64824363796E+02  0.16256887485E+03  0.00000000000E+00 0. -1.
        -12    1    4    4    0    0 -0.90706008459E+01  0.33874852436E+03  0.35257987463E+02  0.34069922840E+03  0.00000000000E+00 0.  1.
          5    1    3    3  501    0 -0.35203494406E+02 -0.45516340798E+02 -0.11041425023E+03  0.12457849876E+03  0.41800000000E+01 0. -1.
         -5    1    3    3    0  501 -0.19957925521E+02 -0.49729025365E+03 -0.14844462547E+04  0.15656609054E+04  0.41800000000E+01 0. -1.
</event>
<event>
11    1  0.1704459E-009  0.4508755E+03  0.7561462E-02  0.9510531E-01
         22   -1    0    0    0    0  0.00000000000E+00  0.00000000000E+00  0.11157789195E+04  0.11157789195E+04  0.00000000000E+00 0. -1.
         22   -1    0    0    0    0 -0.00000000000E+00 -0.00000000000E+00 -0.17001083415E+03  0.17001083415E+03  0.00000000000E+00 0. -1.
         25    2    1    2    0    0  0.51435342170E+02 -0.14104005065E+03  0.14584180148E+03  0.24383404675E+03  0.12508925207E+03 0.  0.
         24    2    1    2    0    0  0.17249338260E+03 -0.16976567907E+03  0.19586557090E+03  0.32189793149E+03  0.81734959487E+02 0.  0.
        -24    2    1    2    0    0 -0.22392872477E+03  0.31080572972E+03  0.60406071298E+03  0.72005777543E+03  0.82762186939E+02 0.  0.
        -11    1    4    4    0    0  0.29094764088E+01 -0.17485387425E+02 -0.46530607782E+01  0.18326341724E+02  0.00000000000E+00 0.  1.
         12    1    4    4    0    0  0.16958390619E+03 -0.15228029164E+03  0.20051863168E+03  0.30357158977E+03  0.00000000000E+00 0. -1.
         13    1    5    5    0    0 -0.15539306673E+03  0.22946971989E+03  0.36402067209E+03  0.45750891493E+03  0.00000000000E+00 0. -1.
        -14    1    5    5    0    0 -0.68535658034E+02  0.81336009834E+02  0.24004004089E+03  0.26254886050E+03  0.00000000000E+00 0.  1.
          5    1    3    3  501    0 -0.27968414589E+02 -0.19833093060E+01  0.17916862893E+01  0.28405074726E+02  0.41800000000E+01 0. -1.
         -5    1    3    3    0  501  0.79403756759E+02 -0.13905674134E+03  0.14405011519E+03  0.21542897202E+03  0.41800000000E+01 0. -1.
</event>
<event>
11    1  0.1704459E-009  0.1367545E+03  0.7561462E-02  0.1111238E+00
         22   -1    0    0    0    0  0.00000000000E+00  0.00000000000E+00  0.71114967668E+02  0.71114967668E+02  0.00000000000E+00 0.  1.
         22   -1    0    0    0    0 -0.00000000000E+00 -0.00000000000E+00 -0.49060775376E+03  0.49060775376E+03  0.00000000000E+00 0.  1.
         25    2    1    2    0    0  0.61263254437E+02  0.13453807024E+01 -0.27024468365E+03  0.30403165055E+03  0.12509220239E+03 0.  0.
         24    2    1    2    0    0 -0.48747686845E+02 -0.11274028709E+02 -0.13616363286E+03  0.16871146374E+03  0.86136997795E+02 0.  0.
        -24    2    1    2    0    0 -0.12515567592E+02  0.99286480070E+01 -0.13084469583E+02  0.88979607140E+02  0.86550272438E+02 0.  0.
        -11    1    4    4    0    0 -0.71247054975E+02 -0.21227070493E+02 -0.93386223623E+02  0.11936380577E+03  0.00000000000E+00 0.  1.
         12    1    4    4    0    0  0.22499368130E+02  0.99530417836E+01 -0.42777409236E+02  0.49347657978E+02  0.00000000000E+00 0. -1.
         13    1    5    5    0    0  0.13804388655E+02 -0.27556156728E+02  0.15997083691E+02  0.34724769349E+02  0.00000000000E+00 0. -1.
        -14    1    5    5    0    0 -0.26319956247E+02  0.37484804735E+02 -0.29081553274E+02  0.54254837791E+02  0.00000000000E+00 0.  1.
          5    1    3    3  501    0  0.74199462362E+02  0.40600177097E+02 -0.23417057024E+03  0.24901257591E+03  0.41800000000E+01 0.  1.
         -5    1    3    3    0  501 -0.12936207925E+02 -0.39254796395E+02 -0.36074113415E+02  0.55019074639E+02  0.41800000000E+01 0.  1.
</event>
<event>
11    1  0.1704459E-009  0.1472256E+03  0.7561462E-02  0.1099748E+00
         22   -1    0    0    0    0  0.00000000000E+00  0.00000000000E+00  0.74699882272E+02  0.74699882272E+02  0.00000000000E+00 0. -1.
         22   -1    0    0    0    0 -0.00000000000E+00 -0.00000000000E+00 -0.11014013246E+04  0.11014013246E+04  0.00000000000E+00 0. -1.
         25    2    1    2    0    0 -0.17696573486E+02  0.16980488935E+02 -0.79542964955E+03  0.80557939334E+03  0.12509326876E+03 0.  0.
        -24    2    1    2    0    0 -0.59868861077E+02  0.74627780759E+01 -0.23764625120E+03  0.25785698515E+03  0.79840531656E+02 0.  0.
         24    2    1    2    0    0  0.77565434563E+02 -0.24443267011E+02  0.63744583984E+01  0.11266482840E+03  0.77710101646E+02 0.  0.
        -11    1    5    5    0    0 -0.15597786648E+02 -0.76382552191E+01  0.46626135434E+01  0.17982598704E+02  0.00000000000E+00 0.  1.
         12    1    5    5    0    0  0.93163221211E+02 -0.16805011792E+02  0.17118448550E+01  0.94682229698E+02  0.00000000000E+00 0. -1.
         13    1    4    4    0    0 -0.31035255281E+02  0.42443120106E+02 -0.15381996833E+03  0.16255826085E+03  0.00000000000E+00 0. -1.
        -14    1    4    4    0    0 -0.28833605796E+02 -0.34980342030E+02 -0.83826282873E+02  0.95298724294E+02  0.00000000000E+00 0.  1.
          5    1    3    3  501    0 -0.16354014369E+02 -0.53778495845E+02 -0.32925888937E+03  0.33404860280E+03  0.41800000000E+01 0.  1.
         -5    1    3    3    0  501 -0.13425591165E+01  0.70758984780E+02 -0.46617076017E+03  0.47153079054E+03  0.41800000000E+01 0.  1.
</event>
<event>
11    1  0.1704459E-009  0.1627281E+03  0.7561462E-02  0.1084539E+00
         22   -1    0    0    0    0  0.00000000000E+00  0.00000000000E+00  0.90676774874E+02  0.90676774874E+02  0.00000000000E+00 0.  1.
         22   -1    0    0    0    0 -0.00000000000E+00 -0.00000000000E+00 -0.97908597089E+03  0.97908597089E+03  0.00000000000E+00 0.  1.
         25    2    1    2    0    0  0.21790486375E+01 -0.23882788139E+02 -0.65823196593E+03  0.67044367454E+03  0.12510101495E+03 0.  0.
         24    2    1    2    0    0  0.40933230963E+02 -0.12237448903E+03 -0.13353240430E+03  0.20232107905E+03  0.80323539949E+02 0.  0.
        -24    2    1    2    0    0 -0.43112279600E+02  0.14625727717E+03 -0.96644825785E+02  0.19699799216E+03  0.78855099955E+02 0.  0.
        -13    1    4    4    0    0  0.46105400789E+02 -0.13210190758E+03 -0.11666198739E+03  0.18217201012E+03  0.00000000000E+00 0.  1.
         14    1    4    4    0    0 -0.51721698257E+01  0.97274185518E+01 -0.16870416907E+02  0.20149068937E+02  0.00000000000E+00 0. -1.
         11    1    5    5    0    0  0.19719493089E+02  0.70467038006E+02 -0.39098226683E+02  0.82964650200E+02  0.00000000000E+00 0. -1.
        -12    1    5    5    0    0 -0.62831772689E+02  0.75790239161E+02 -0.57546599102E+02  0.11403334196E+03  0.00000000000E+00 0.  1.
          5    1    3    3  501    0  0.46265808591E+02 -0.12066614277E+01 -0.54229336236E+03  0.54428075874E+03  0.41800000000E+01 0. -1.
         -5    1    3    3    0  501 -0.44086759954E+02 -0.22676126712E+02 -0.11593860357E+03  0.12616291580E+03  0.41800000000E+01 0. -1.
</event>
<event>
11    1  0.1704459E-009  0.1386126E+03  0.7561462E-02  0.1109118E+00
         22   -1    0    0    0    0  0.00000000000E+00  0.00000000000E+00  0.11217404640E+03  0.11217404640E+03  0.00000000000E+00 0. -1.
         22   -1    0    0    0    0 -0.00000000000E+00 -0.00000000000E+00 -0.49280022760E+03  0.49280022760E+03  0.00000000000E+00 0. -1.
         25    2    1    2    0    0 -0.33129620288E+02 -0.51418760141E+02 -0.32481385330E+03  0.35340282430E+03  0.12509219118E+03 0.  0.
        -24    2    1    2    0    0 -0.55365445233E+00  0.63837829178E+02 -0.10549853896E+03  0.14940427750E+03  0.84357106668E+02 0.  0.
         24    2    1    2    0    0  0.33683274740E+02 -0.12419069037E+02  0.49686211067E+02  0.10216717219E+03  0.81735030620E+02 0.  0.
        -13    1    5    5    0    0  0.17785464925E+02 -0.15822784716E+02 -0.19701404765E+02  0.30900301430E+02  0.00000000000E+00 0.  1.
         14    1    5    5    0    0  0.15897809815E+02  0.34037156796E+01  0.69387615831E+02  0.71266870761E+02  0.00000000000E+00 0. -1.
         13    1    4    4    0    0  0.92363179370E+01  0.70740223324E+02 -0.11416301305E+03  0.13462051223E+03  0.00000000000E+00 0. -1.
        -14    1    4    4    0    0 -0.97899723893E+01 -0.69023941467E+01  0.86644740878E+01  0.14783765270E+02  0.00000000000E+00 0.  1.
          5    1    3    3  501    0  0.47183246464E+02 -0.29795136690E+02 -0.13248333286E+03  0.14381694894E+03  0.41800000000E+01 0.  1.
         -5    1    3    3    0  501 -0.80312866752E+02 -0.21623623451E+02 -0.19233052044E+03  0.20958587536E+03  0.41800000000E+01 0.  1.
</event>
<event>
11    1  0.1704459E-009  0.3157674E+03  0.7561462E-02  0.9937304E-01
         22   -1    0    0    0    0  0.00000000000E+00  0.00000000000E+00  0.35624172969E+04  0.35624172969E+04  0.00000000000E+00 0.  1.
         22   -1    0    0    0    0 -0.00000000000E+00 -0.00000000000E+00 -0.53684462266E+02  0.53684462266E+02  0.00000000000E+00 0.  1.
         25    2    1    2    0    0  0.28897523774E+03 -0.79090450603E+02  0.58916413490E+03  0.67269901814E+03  0.12509038233E+03 0.  0.
        -24    2    1    2    0    0 -0.24578104274E+03  0.91156984907E+02  0.18545332155E+04  0.18745644529E+04  0.77333846755E+02 0.  0.
         24    2    1    2    0    0 -0.43194194999E+02 -0.12066534304E+02  0.10650354843E+04  0.10688382881E+04  0.78124027909E+02 0.  0.
        -11    1    5    5    0    0 -0.28196020656E+02 -0.18959677401E+02  0.15619568054E+03  0.15984860202E+03  0.00000000000E+00 0.  1.
         12    1    5    5    0    0 -0.14998174343E+02  0.68931430973E+01  0.90883980371E+03  0.90898968611E+03  0.00000000000E+00 0. -1.
         11    1    4    4    0    0 -0.37792926975E+02 -0.45769326261E+01  0.15154772944E+03  0.15625609729E+03  0.00000000000E+00 0. -1.
        -12    1    4    4    0    0 -0.20798811576E+03  0.95733917533E+02  0.17029854861E+04  0.17183083556E+04  0.00000000000E+00 0.  1.
          5    1    3    3  501    0  0.30127573036E+03 -0.73011007328E+02  0.56859095262E+03  0.64761934553E+03  0.41800000000E+01 0.  1.
         -5    1    3    3    0  501 -0.12300492624E+02 -0.60794432752E+01  0.20573182280E+02  0.25079672615E+02  0.41800000000E+01 0.  1.
</event>
<event>
11    1  0.1704459E-009  0.1532223E+03  0.7561462E-02  0.1093631E+00
         22   -1    0    0    0    0  0.00000000000E+00  0.00000000000E+00  0.24355065520E+04  0.24355065520E+04  0.00000000000E+00 0. -1.
         22   -1    0    0    0    0 -0.00000000000E+00 -0.00000000000E+00 -0.35688537153E+03  0.35688537153E+03  0.00000000000E+00 0. -1.
         25    2    1    2    0    0  0.60156059594E+02  0.36119961149E+02 -0.32043220441E+03  0.35106643878E+03  0.12508974266E+03 0.  0.
         24    2    1    2    0    0  0.25354172503E+02 -0.12987741552E+02  0.66212504903E+02  0.10532754219E+03  0.76800259398E+02 0.  0.
        -24    2    1    2    0    0 -0.85510232097E+02 -0.23132219597E+02  0.23328408800E+04  0.23359979426E+04  0.83022388381E+02 0.  0.
        -13    1    4    4    0    0  0.21545066006E+02 -0.41151481979E+02  0.60606822628E+02  0.76359814611E+02  0.00000000000E+00 0.  1.
         14    1    4    4    0    0  0.38091064968E+01  0.28163740427E+02  0.56056822747E+01  0.28967727576E+02  0.00000000000E+00 0. -1.
         11    1    5    5    0    0 -0.10080608202E+03 -0.13572577540E+02  0.20986349031E+04  0.21010984122E+04  0.00000000000E+00 0. -1.
        -12    1    5    5    0    0  0.15295849924E+02 -0.95596420573E+01  0.23420597688E+03  0.23489953041E+03  0.00000000000E+00 0.  1.
          5    1    3    3  501    0  0.66747134480E+02  0.70261699741E+02 -0.16209746317E+03  0.18890459597E+03  0.41800000000E+01 0. -1.
         -5    1    3    3    0  501 -0.65910748856E+01 -0.34141738592E+02 -0.15833474124E+03  0.16216184282E+03  0.41800000000E+01 0. -1.
</event>
<event>
11    1  0.1704459E-009  0.1407477E+03  0.7561462E-02  0.1106726E+00
         22   -1    0    0    0    0  0.00000000000E+00  0.00000000000E+00  0.26206767451E+03  0.26206767451E+03  0.00000000000E+00 0. -1.
         22   -1    0    0    0    0 -0.00000000000E+00 -0.00000000000E+00 -0.13196316973E+03  0.13196316973E+03  0.00000000000E+00 0. -1.
         25    2    1    2    0    0  0.39349908506E+02  0.51943288407E+02 -0.24200261262E+02  0.14310737632E+03  0.12509015949E+03 0.  0.
         24    2    1    2    0    0 -0.54263903021E+02 -0.36584457564E+02  0.12477526819E+03  0.16299479874E+03  0.81947807531E+02 0.  0.
        -24    2    1    2    0    0  0.14913994515E+02 -0.15358830843E+02  0.29529497847E+02  0.87928669183E+02  0.80007116583E+02 0.  0.
        -11    1    4    4    0    0  0.16867942460E+02 -0.28719339535E+02  0.40035050948E+02  0.52078145613E+02  0.00000000000E+00 0.  1.
         12    1    4    4    0    0 -0.71131845482E+02 -0.78651180294E+01  0.84740217242E+02  0.11091665313E+03  0.00000000000E+00 0. -1.
         13    1    5    5    0    0  0.17941480972E+02 -0.44372627597E+02  0.33594074932E+02  0.58475539244E+02  0.00000000000E+00 0. -1.
        -14    1    5    5    0    0 -0.30274864562E+01  0.29013796754E+02 -0.40645770851E+01  0.29453129939E+02  0.00000000000E+00 0.  1.
          5    1    3    3  501    0 -0.15196648850E+02 -0.79770648737E+01 -0.53887970576E+02  0.56709412562E+02  0.41800000000E+01 0.  1.
         -5    1    3    3    0  501  0.54546557356E+02  0.59920353281E+02  0.29687709314E+02  0.86397963755E+02  0.41800000000E+01 0.  1.
</event>
<event>
11    1  0.1704459E-009  0.1442788E+03  0.7561462E-02  0.1102872E+00
         22   -1    0    0    0    0  0.00000000000E+00  0.00000000000E+00  0.28979381671E+04  0.28979381671E+04  0.00000000000E+00 0.  1.
         22   -1    0    0    0    0 -0.00000000000E+00 -0.00000000000E+00 -0.42087984399E+02  0.42087984399E+02  0.00000000000E+00 0.  1.
         25    2    1    2    0    0  0.12036561420E+03 -0.35549120776E+02  0.21432437620E+03  0.27809170036E+03  0.12509370291E+03 0.  0.
         24    2    1    2    0    0 -0.57192473416E+02  0.55083088111E+01  0.23673265752E+03  0.25477493874E+03  0.74609636047E+02 0.  0.
        -24    2    1    2    0    0 -0.63173140782E+02  0.30040811965E+02  0.24047931490E+04  0.24071595124E+04  0.80582458568E+02 0.  0.
        -11    1    4    4    0    0 -0.41275337449E+02  0.19453852844E+02  0.53464838215E+02  0.70289364753E+02  0.00000000000E+00 0.  1.
         12    1    4    4    0    0 -0.15917135967E+02 -0.13945544033E+02  0.18326781930E+03  0.18448557398E+03  0.00000000000E+00 0. -1.
         13    1    5    5    0    0  0.17011809139E+02 -0.69185982802E+01  0.38662058784E+03  0.38705651732E+03  0.00000000000E+00 0. -1.
        -14    1    5    5    0    0 -0.80184949921E+02  0.36959410245E+02  0.20181725611E+04  0.20201029951E+04  0.00000000000E+00 0.  1.
          5    1    3    3  501    0  0.68199635458E+02  0.24302097838E+02  0.17492145864E+03  0.18935884275E+03  0.41800000000E+01 0. -1.
         -5    1    3    3    0  501  0.52165978740E+02 -0.59851218614E+02  0.39402917556E+02  0.88732857608E+02  0.41800000000E+01 0. -1.
</event>
<event>
11    1  0.1704459E-009  0.2537831E+03  0.7561462E-02  0.1021903E+00
         22   -1    0    0    0    0  0.00000000000E+00  0.00000000000E+00  0.12232002194E+04  0.12232002194E+04  0.00000000000E+00 0.  1.
         22   -1    0    0    0    0 -0.00000000000E+00 -0.00000000000E+00 -0.29653384460E+03  0.29653384460E+03  0.00000000000E+00 0.  1.
         25    2    1    2    0    0 -0.18096711524E+03 -0.12634779075E+03 -0.20510737218E+03  0.32623470157E+03  0.12508870995E+03 0.  0.
         24    2    1    2    0    0  0.17547370349E+03  0.13754343565E+03  0.10494668911E+04  0.10753941798E+04  0.73366675622E+02 0.  0.
        -24    2    1    2    0    0  0.54934117531E+01 -0.11195644899E+02  0.82306855911E+02  0.11810518268E+03  0.83778849413E+02 0.  0.
        -11    1    4    4    0    0  0.14606256155E+03  0.10908225226E+03  0.95796120737E+03  0.97515274930E+03  0.00000000000E+00 0.  1.
         12    1    4    4    0    0  0.29411141937E+02  0.28461183391E+02  0.91505683712E+02  0.10024143047E+03  0.00000000000E+00 0. -1.
         13    1    5    5    0    0 -0.18711779308E+02  0.16188013653E+02 -0.33584905326E+01  0.24969219643E+02  0.00000000000E+00 0. -1.
        -14    1    5    5    0    0  0.24205191061E+02 -0.27383658552E+02  0.85665346444E+02  0.93135963040E+02  0.00000000000E+00 0.  1.
          5    1    3    3  501    0 -0.17023528082E+03 -0.61129424567E+02 -0.11490431678E+03  0.21432996011E+03  0.41800000000E+01 0.  1.
         -5    1    3    3    0  501 -0.10731834420E+02 -0.65218366188E+02 -0.90203055393E+02  0.11190474146E+03  0.41800000000E+01 0.  1.
</event>
<event>
11    1  0.1704459E-009  0.2071420E+03  0.7561462E-02  0.1049585E+00
         22   -1    0    0    0    0  0.00000000000E+00  0.00000000000E+00  0.57829495314E+03  0.57829495314E+03  0.00000000000E+00 0. -1.
         22   -1    0    0    0    0 -0.00000000000E+00 -0.00000000000E+00 -0.31561120024E+03  0.31561120024E+03  0.00000000000E+00 0.  1.
         25    2    1    2    0    0 -0.13549364875E+03 -0.10434017099E+03 -0.22526746039E+03  0.30925468141E+03  0.12509048375E+03 0.  0.
         24    2    1    2    0    0  0.11688616228E+03  0.82460263822E+02  0.11341907888E+03  0.20173670060E+03  0.85858831078E+02 0.  0.
        -24    2    1    2    0    0  0.18607486473E+02  0.21879907171E+02  0.37453213442E+03  0.38291477137E+03  0.74326533158E+02 0.  0.
        -11    1    4    4    0    0  0.32088645453E+02  0.75018032018E+02  0.51711714695E+02  0.96599625939E+02  0.00000000000E+00 0.  1.
         12    1    4    4    0    0  0.84797516827E+02  0.74422318041E+01  0.61707364186E+02  0.10513707466E+03  0.00000000000E+00 0. -1.
         11    1    5    5    0    0  0.25446653659E+02  0.10661921384E+02  0.36645499500E+03  0.36749213884E+03  0.00000000000E+00 0. -1.
        -12    1    5    5    0    0 -0.68391671861E+01  0.11217985787E+02  0.80771394165E+01  0.15422632527E+02  0.00000000000E+00 0.  1.
          5    1    3    3  501    0 -0.12387738862E+03 -0.22926746723E+02 -0.16281512524E+03  0.20590648492E+03  0.41800000000E+01 0.  1.
         -5    1    3    3    0  501 -0.11616260138E+02 -0.81413424270E+02 -0.62452335157E+02  0.10334819649E+03  0.41800000000E+01 0.  1.
</event>
<event>
11    1  0.1704459E-009  0.3667181E+03  0.7561462E-02  0.9753407E-01
         22   -1    0    0    0    0  0.00000000000E+00  0.00000000000E+00  0.12570814762E+04  0.12570814762E+04  0.00000000000E+00 0. -1.
         22   -1    0    0    0    0 -0.00000000000E+00 -0.00000000000E+00 -0.23892305723E+03  0.23892305723E+03  0.00000000000E+00 0.  1.
         25    2    1    2    0    0 -0.19869485014E+03 -0.12173304148E+03  0.24904039817E+03  0.36327368016E+03  0.12509224562E+03 0.  0.
        -24    2    1    2    0    0  0.17811381980E+03  0.37399227011E+03  0.13186968275E+03  0.44248555229E+03  0.82517270035E+02 0.  0.
         24    2    1    2    0    0  0.20581030342E+02 -0.25225922862E+03  0.63724833806E+03  0.69024530098E+03  0.79339989471E+02 0.  0.
        -13    1    5    5    0    0  0.53584959065E+01 -0.17442960867E+02  0.12758699174E+03  0.12888526225E+03  0.00000000000E+00 0.  1.
         14    1    5    5    0    0  0.15222534435E+02 -0.23481626776E+03  0.50966134632E+03  0.56136003874E+03  0.00000000000E+00 0. -1.
         13    1    4    4    0    0  0.13425099896E+03  0.33952007428E+03  0.12670135898E+03  0.38645885412E+03  0.00000000000E+00 0. -1.
        -14    1    4    4    0    0  0.43862820838E+02  0.34472195827E+02  0.51683237618E+01  0.56026698167E+02  0.00000000000E+00 0.  1.
          5    1    3    3  501    0 -0.85743191586E+02 -0.46301480691E+02  0.24091699590E+02  0.10046693191E+03  0.41800000000E+01 0. -1.
         -5    1    3    3    0  501 -0.11295165856E+03 -0.75431560792E+02  0.22494869858E+03  0.26280674825E+03  0.41800000000E+01 0. -1.
</event>
<event>
11    1  0.1704459E-009  0.3207058E+03  0.7561462E-02  0.9917899E-01
         22   -1    0    0    0    0  0.00000000000E+00  0.00000000000E+00  0.54311025521E+03  0.54311025521E+03  0.00000000000E+00 0. -1.
         22   -1    0    0    0    0 -0.00000000000E+00 -0.00000000000E+00 -0.45921802579E+03  0.45921802579E+03  0.00000000000E+00 0.  1.
         25    2    1    2    0    0  0.30049829931E+03  0.27927476227E+02 -0.32300143005E+03  0.45940982102E+03  0.12509311738E+03 0.  0.
         24    2    1    2    0    0 -0.25916160542E+03  0.24093243796E+01  0.34527394719E+03  0.43872813662E+03  0.78088006043E+02 0.  0.
        -24    2    1    2    0    0 -0.41336693890E+02 -0.30336800606E+02  0.61619712280E+02  0.10419032336E+03  0.66555171162E+02 0.  0.
        -13    1    4    4    0    0 -0.10709331809E+02  0.14623205964E+02  0.84293036209E+01  0.19989524756E+02  0.00000000000E+00 0.  1.
         14    1    4    4    0    0 -0.24845227361E+03 -0.12213881584E+02  0.33684464357E+03  0.41873861186E+03  0.00000000000E+00 0. -1.
         13    1    5    5    0    0 -0.58679313394E+02 -0.27540449746E+02  0.56241977810E+02  0.85818985432E+02  0.00000000000E+00 0. -1.
        -14    1    5    5    0    0  0.17342619504E+02 -0.27963508600E+01  0.53777344704E+01  0.18371337932E+02  0.00000000000E+00 0.  1.
          5    1    3    3  501    0  0.24132376900E+03  0.73031871429E+02 -0.25009891957E+03  0.35515877815E+03  0.41800000000E+01 0.  1.
         -5    1    3    3    0  501  0.59174530306E+02 -0.45104395202E+02 -0.72902510487E+02  0.10425104287E+03  0.41800000000E+01 0.  1.
</event>
<event>
11    1  0.1704459E-009  0.1606745E+03  0.7561462E-02  0.1086445E+00
         22   -1    0    0    0    0  0.00000000000E+00  0.00000000000E+00  0.18512194065E+04  0.18512194065E+04  0.00000000000E+00 0.  1.
         22   -1    0    0    0    0 -0.00000000000E+00 -0.00000000000E+00 -0.86865213909E+02  0.86865213909E+02  0.00000000000E+00 0. -1.
         25    2    1    2    0    0  0.89755408934E+02  0.74254627710E+01  0.81706998981E+02  0.17445831529E+03  0.12509396133E+03 0.  0.
        -24    2    1    2    0    0 -0.11150931770E+03  0.11257560689E+02  0.84485568668E+02  0.16325782664E+03  0.83392122161E+02 0.  0.
         24    2    1    2    0    0  0.21753908764E+02 -0.18683023460E+02  0.15981616250E+04  0.16003684785E+04  0.78970877978E+02 0.  0.
        -13    1    5    5    0    0 -0.10886421161E+02  0.19085622490E+02  0.96216260911E+03  0.96241345664E+03  0.00000000000E+00 0.  1.
         14    1    5    5    0    0  0.32640329925E+02 -0.37768645950E+02  0.63599901586E+03  0.63795502187E+03  0.00000000000E+00 0. -1.
         11    1    4    4    0    0 -0.10580005641E+03  0.37897032385E+02  0.70026811010E+02  0.13241446771E+03  0.00000000000E+00 0. -1.
        -12    1    4    4    0    0 -0.57092612924E+01 -0.26639471696E+02  0.14458757658E+02  0.30843358925E+02  0.00000000000E+00 0.  1.
          5    1    3    3  501    0  0.75479738317E+01 -0.51719091930E+02  0.22352367179E+02  0.56999448221E+02  0.41800000000E+01 0.  1.
         -5    1    3    3    0  501  0.82207435103E+02  0.59144554701E+02  0.59354631802E+02  0.11745886707E+03  0.41800000000E+01 0.  1.
</event>
<event>
11    1  0.1704459E-009  0.2230014E+03  0.7561462E-02  0.1039353E+00
         22   -1    0    0    0    0  0.00000000000E+00  0.00000000000E+00  0.12944195188E+03  0.12944195188E+03  0.00000000000E+00 0. -1.
         22   -1    0    0    0    0 -0.00000000000E+00 -0.00000000000E+00 -0.19179692373E+04  0.19179692373E+04  0.00000000000E+00 0.  1.
         25    2    1    2    0    0  0.12868523072E+03  0.13206869077E+03 -0.17221474536E+04  0.17365025261E+04  0.12508854159E+03 0.  0.
        -24    2    1    2    0    0 -0.15068166385E+03 -0.11485735242E+03 -0.12006413385E+02  0.20621931192E+03  0.80529965978E+02 0.  0.
         24    2    1    2    0    0  0.21996433128E+02 -0.17211338350E+02 -0.54373418376E+02  0.10468935118E+03  0.84990107581E+02 0.  0.
        -11    1    5    5    0    0 -0.20970820515E+02  0.19758617812E+02 -0.33738053137E+02  0.44367043178E+02  0.00000000000E+00 0.  1.
         12    1    5    5    0    0  0.42967253642E+02 -0.36969956162E+02 -0.20635365238E+02  0.60322308002E+02  0.00000000000E+00 0. -1.
         13    1    4    4    0    0 -0.14096942032E+03 -0.69303714006E+02 -0.21898307267E+02  0.15860302047E+03  0.00000000000E+00 0. -1.
        -14    1    4    4    0    0 -0.97122435304E+01 -0.45553638412E+02  0.98918938822E+01  0.47616291451E+02  0.00000000000E+00 0.  1.
          5    1    3    3  501    0  0.22292408201E+02  0.50573113664E+02 -0.10298238611E+04  0.10313143306E+04  0.41800000000E+01 0.  1.
         -5    1    3    3    0  501  0.10639282252E+03  0.81495577104E+02 -0.69232359255E+03  0.70518819543E+03  0.41800000000E+01 0.  1.
</event>
<event>
11    1  0.1704459E-009  0.2002328E+03  0.7561462E-02  0.1054359E+00
         22   -1    0    0    0    0  0.00000000000E+00  0.00000000000E+00  0.11767462325E+03  0.11767462325E+03  0.00000000000E+00 0. -1.
         22   -1    0    0    0    0 -0.00000000000E+00 -0.00000000000E+00 -0.53460121497E+03  0.53460121497E+03  0.00000000000E+00 0.  1.
         25    2    1    2    0    0 -0.10899557691E+02 -0.14211550842E+03 -0.81231800796E+02  0.20630828317E+03  0.12509550013E+03 0.  0.
         24    2    1    2    0    0  0.25657641926E+02  0.15983295589E+03 -0.31040137296E+03  0.35921645263E+03  0.80514341134E+02 0.  0.
        -24    2    1    2    0    0 -0.14758084235E+02 -0.17717447468E+02 -0.25293417962E+02  0.86751102408E+02  0.79713786648E+02 0.  0.
        -11    1    4    4    0    0  0.40496164131E+01  0.71717994086E+02 -0.21880263537E+03  0.23029212604E+03  0.00000000000E+00 0.  1.
         12    1    4    4    0    0  0.21608025513E+02  0.88114961806E+02 -0.91598737590E+02  0.12892432660E+03  0.00000000000E+00 0. -1.
         13    1    5    5    0    0  0.14127024505E+01  0.11602082135E+02 -0.45947032782E+02  0.47410271667E+02  0.00000000000E+00 0. -1.
        -14    1    5    5    0    0 -0.16170786685E+02 -0.29319529604E+02  0.20653614820E+02  0.39340830740E+02  0.00000000000E+00 0.  1.
          5    1    3    3  501    0 -0.26344915719E+02  0.15258136207E+02 -0.67371530720E+01  0.31459925879E+02  0.41800000000E+01 0.  1.
         -5    1    3    3    0  501  0.15445358028E+02 -0.15737364463E+03 -0.74494647724E+02  0.17484835729E+03  0.41800000000E+01 0.  1.
</event>
<event>
11    1  0.1704459E-009  0.2319586E+03  0.7561462E-02  0.1033975E+00
         22   -1    0    0    0    0  0.00000000000E+00  0.00000000000E+00  0.41770763042E+03  0.41770763042E+03  0.00000000000E+00 0. -1.
         22   -1    0    0    0    0 -0.00000000000E+00 -0.00000000000E+00 -0.16296281759E+04  0.16296281759E+04  0.00000000000E+00 0.  1.
         25    2    1    2    0    0  0.18884540696E+03  0.35583629181E+02 -0.10600953663E+04  0.10846096889E+04  0.12508880511E+03 0.  0.
         24    2    1    2    0    0 -0.19429932567E+03 -0.52559922987E+02 -0.53120860800E+03  0.57419529693E+03  0.83683214221E+02 0.  0.
        -24    2    1    2    0    0  0.54539187097E+01  0.16976293806E+02  0.37938342880E+03  0.38853082053E+03  0.81893056319E+02 0.  0.
        -11    1    4    4    0    0 -0.13926795970E+03 -0.50770981166E+02 -0.46515179786E+03  0.48820021731E+03  0.00000000000E+00 0.  1.
         12    1    4    4    0    0 -0.55031365966E+02 -0.17889418217E+01 -0.66056810139E+02  0.85995079619E+02  0.00000000000E+00 0. -1.
         11    1    5    5    0    0 -0.12153621659E+02  0.40994368932E+02  0.31124958696E+03  0.31417280943E+03  0.00000000000E+00 0. -1.
        -12    1    5    5    0    0  0.17607540368E+02 -0.24018075127E+02  0.68133841838E+02  0.74358011096E+02  0.00000000000E+00 0.  1.
          5    1    3    3  501    0  0.61091088491E+02  0.63387599094E+02 -0.59411415379E+03  0.60061569156E+03  0.41800000000E+01 0. -1.
         -5    1    3    3    0  501  0.12775431847E+03 -0.27803969913E+02 -0.46598121252E+03  0.48399399733E+03  0.41800000000E+01 0. -1.
</event>
<event>
11    1  0.1704459E-009  0.1841413E+03  0.7561462E-02  0.1066341E+00
         22   -1    0    0    0    0  0.00000000000E+00  0.00000000000E+00  0.12205292387E+04  0.12205292387E+04  0.00000000000E+00 0.  1.
         22   -1    0    0    0    0 -0.00000000000E+00 -0.00000000000E+00 -0.43816510711E+02  0.43816510711E+02  0.00000000000E+00 0. -1.
         25    2    1    2    0    0 -0.74298768925E+02 -0.80353057139E+02  0.35037732059E+03  0.38780028940E+03  0.12509147380E+03 0.  0.
         24    2    1    2    0    0  0.12851270121E+03  0.10939251440E+03  0.45698258210E+03  0.49379293679E+03  0.80722657951E+02 0.  0.
        -24    2    1    2    0    0 -0.54213932280E+02 -0.29039457257E+02  0.36935282531E+03  0.38275252323E+03  0.79344463857E+02 0.  0.
        -11    1    4    4    0    0  0.12531201621E+03  0.11965702859E+03  0.44576577586E+03  0.47825519634E+03  0.00000000000E+00 0.  1.
         12    1    4    4    0    0  0.32006849991E+01 -0.10264514197E+02  0.11216806237E+02  0.15537740451E+02  0.00000000000E+00 0. -1.
         13    1    5    5    0    0 -0.34385362083E+02  0.21860089889E+02  0.10124470147E+03  0.10913618204E+03  0.00000000000E+00 0. -1.
        -14    1    5    5    0    0 -0.19828570197E+02 -0.50899547146E+02  0.26810812384E+03  0.27361634118E+03  0.00000000000E+00 0.  1.
          5    1    3    3  501    0 -0.48131050242E+02 -0.94766252118E+02  0.14291082274E+03  0.17815222759E+03  0.41800000000E+01 0.  1.
         -5    1    3    3    0  501 -0.26167718683E+02  0.14413194979E+02  0.20746649785E+03  0.20964806181E+03  0.41800000000E+01 0.  1.
</event>
<event>
11    1  0.1704459E-009  0.1384895E+03  0.7561462E-02  0.1109257E+00
         22   -1    0    0    0    0  0.00000000000E+00  0.00000000000E+00  0.70438275493E+02  0.70438275493E+02  0.00000000000E+00 0. -1.
         22   -1    0    0    0    0 -0.00000000000E+00 -0.00000000000E+00 -0.21251137976E+04  0.21251137976E+04  0.00000000000E+00 0.  1.
         25    2    1    2    0    0 -0.13430624497E+01  0.42835297949E+02 -0.14306319627E+04  0.14367295983E+04  0.12508980532E+03 0.  0.
         24    2    1    2    0    0  0.34059221586E+02  0.75278704816E+01 -0.65125281038E+03  0.65706341230E+03  0.79908731350E+02 0.  0.
        -24    2    1    2    0    0 -0.32716159136E+02 -0.50363168431E+02  0.27209250907E+02  0.10175906255E+03  0.77509790820E+02 0.  0.
        -13    1    4    4    0    0  0.94746101914E+01  0.24511252329E+02 -0.56805550056E+03  0.56866301220E+03  0.00000000000E+00 0.  1.
         14    1    4    4    0    0  0.24584611394E+02 -0.16983381847E+02 -0.83197309825E+02  0.88400400103E+02  0.00000000000E+00 0. -1.
         13    1    5    5    0    0 -0.23532769349E+02 -0.62931423078E+02 -0.35545563390E+01  0.67281424737E+02  0.00000000000E+00 0. -1.
        -14    1    5    5    0    0 -0.91833897870E+01  0.12568254647E+02  0.30763807246E+02  0.34477637812E+02  0.00000000000E+00 0.  1.
          5    1    3    3  501    0  0.22568545086E+02 -0.23277440937E+00 -0.47915973833E+02  0.53130089023E+02  0.41800000000E+01 0.  1.
         -5    1    3    3    0  501 -0.23911607536E+02  0.43068072358E+02 -0.13827159888E+04  0.13835995093E+04  0.41800000000E+01 0.  1.
</event>
<event>
11    1  0.1704459E-009  0.1333993E+03  0.7561462E-02  0.1115162E+00
         22   -1    0    0    0    0  0.00000000000E+00  0.00000000000E+00  0.86423373827E+02  0.86423373827E+02  0.00000000000E+00 0.  1.
         22   -1    0    0    0    0 -0.00000000000E+00 -0.00000000000E+00 -0.35990072019E+03  0.35990072019E+03  0.00000000000E+00 0. -1.
         25    2    1    2    0    0  0.42808548912E+02 -0.17905426340E+02 -0.14769328266E+03  0.19903208788E+03  0.12508912867E+03 0.  0.
         24    2    1    2    0    0  0.38817557260E+01  0.30484116640E+02 -0.12970237270E+03  0.15521831042E+03  0.79534074522E+02 0.  0.
        -24    2    1    2    0    0 -0.46690304638E+02 -0.12578690300E+02  0.39183090030E+01  0.92073695711E+02  0.78256017658E+02 0.  0.
        -11    1    4    4    0    0 -0.22271983471E+02  0.33431627697E+01 -0.26308370251E+01  0.22674639766E+02  0.00000000000E+00 0.  1.
         12    1    4    4    0    0  0.26153739197E+02  0.27140953870E+02 -0.12707153568E+03  0.13254367066E+03  0.00000000000E+00 0. -1.
         11    1    5    5    0    0 -0.66932571072E+02 -0.16974404963E+02  0.11526021706E+02  0.70006775891E+02  0.00000000000E+00 0. -1.
        -12    1    5    5    0    0  0.20242266435E+02  0.43957146633E+01 -0.76077127027E+01  0.22066919821E+02  0.00000000000E+00 0.  1.
          5    1    3    3  501    0 -0.32384705988E+02 -0.37719785508E+02 -0.87045602762E+02  0.10032926174E+03  0.41800000000E+01 0.  1.
         -5    1    3    3    0  501  0.75193254900E+02  0.19814359168E+02 -0.60647679897E+02  0.98702826143E+02  0.41800000000E+01 0.  1.
</event>
<event>
11    1  0.1704459E-009  0.1278160E+03  0.7561462E-02  0.1121982E+00
         22   -1    0    0    0    0  0.00000000000E+00  0.00000000000E+00  0.11009397464E+03  0.11009397464E+03  0.00000000000E+00 0.  1.
         22   -1    0    0    0    0 -0.00000000000E+00 -0.00000000000E+00 -0.84347869204E+03  0.84347869204E+03  0.00000000000E+00 0. -1.
         25    2    1    2    0    0 -0.10926974052E+02  0.30589775771E+02 -0.54594353247E+03  0.56103233886E+03  0.12509121252E+03 0.  0.
        -24    2    1    2    0    0  0.11443560291E+02 -0.44865998571E+01 -0.26532777248E+03  0.27706421883E+03  0.78833177416E+02 0.  0.
         24    2    1    2    0    0 -0.51658623876E+00 -0.26103175914E+02  0.77886587543E+02  0.11547610900E+03  0.81158909406E+02 0.  0.
        -11    1    5    5    0    0 -0.73893588731E+01 -0.41130061245E+02  0.87064850924E+02  0.96574183035E+02  0.00000000000E+00 0.  1.
         12    1    5    5    0    0  0.68727726344E+01  0.15026885330E+02 -0.91782633801E+01  0.18901925963E+02  0.00000000000E+00 0. -1.
         11    1    4    4    0    0  0.35586921151E+02  0.85870594508E+01 -0.22690945408E+03  0.22984357049E+03  0.00000000000E+00 0. -1.
        -12    1    4    4    0    0 -0.24143360860E+02 -0.13073659308E+02 -0.38418318396E+02  0.47220648341E+02  0.00000000000E+00 0.  1.
          5    1    3    3  501    0 -0.29386897480E+02  0.74515869313E+02 -0.37763849779E+03  0.38606283418E+03  0.41800000000E+01 0.  1.
         -5    1    3    3    0  501  0.18459923428E+02 -0.43926093541E+02 -0.16830503468E+03  0.17496950467E+03  0.41800000000E+01 0.  1.
</event>
<event>
11    1  0.1704459E-009  0.2769384E+03  0.7561462E-02  0.1010453E+00
         22   -1    0    0    0    0  0.00000000000E+00  0.00000000000E+00  0.62402656403E+03  0.62402656403E+03  0.00000000000E+00 0. -1.
         22   -1    0    0    0    0 -0.00000000000E+00 -0.00000000000E+00 -0.10218338920E+04  0.10218338920E+04  0.00000000000E+00 0. -1.
         25    2    1    2    0    0 -0.86718673996E+02 -0.23607349156E+03 -0.90925901043E+03  0.95165694893E+03  0.12509267991E+03 0.  0.
         24    2    1    2    0    0  0.17057677599E+03  0.45305433981E+02  0.83127331076E+02  0.21100855519E+03  0.80407949468E+02 0.  0.
        -24    2    1    2    0    0 -0.83858101993E+02  0.19076805758E+03  0.42832435141E+03  0.48319495188E+03  0.81184841248E+02 0.  0.
        -11    1    4    4    0    0  0.24390222737E+02  0.21385103258E+02  0.49381843019E+02  0.59082755745E+02  0.00000000000E+00 0.  1.
         12    1    4    4    0    0  0.14618655325E+03  0.23920330724E+02  0.33745488057E+02  0.15192579945E+03  0.00000000000E+00 0. -1.
         13    1    5    5    0    0 -0.95905257897E+02  0.12926238796E+03  0.31052711545E+03  0.34976230909E+03  0.00000000000E+00 0. -1.
        -14    1    5    5    0    0  0.12047155904E+02  0.61505669621E+02  0.11779723596E+03  0.13343264278E+03  0.00000000000E+00 0.  1.
          5    1    3    3  501    0 -0.54671169565E+02 -0.86725043098E+02 -0.18591204410E+03  0.21234625126E+03  0.41800000000E+01 0. -1.
         -5    1    3    3    0  501 -0.32047504431E+02 -0.14934844846E+03 -0.72334696632E+03  0.73931069767E+03  0.41800000000E+01 0. -1.
</event>
<event>
11    1  0.1704459E-009  0.6980516E+03  0.7561462E-02  0.9035181E-01
         22   -1    0    0    0    0  0.00000000000E+00  0.00000000000E+00  0.10242935358E+04  0.10242935358E+04  0.00000000000E+00 0.  1.
         22   -1    0    0    0    0 -0.00000000000E+00 -0.00000000000E+00 -0.91483805077E+03  0.91483805077E+03  0.00000000000E+00 0.  1.
         25    2    1    2    0    0 -0.12878064632E+03 -0.15261719609E+03 -0.37922104625E+03  0.44646614599E+03  0.12508778592E+03 0.  0.
         24    2    1    2    0    0 -0.20837087347E+03 -0.55962564602E+03  0.10187212403E+03  0.61116211745E+03  0.80882133707E+02 0.  0.
        -24    2    1    2    0    0  0.33715151978E+03  0.71224284212E+03  0.38680440724E+03  0.88150332313E+03  0.80432865048E+02 0.  0.
        -13    1    4    4    0    0 -0.57348086561E+02 -0.24447635724E+03  0.17908347410E+02  0.25175027544E+03  0.00000000000E+00 0.  1.
         14    1    4    4    0    0 -0.15102278690E+03 -0.31514928879E+03  0.83963776621E+02  0.35941184200E+03  0.00000000000E+00 0. -1.
         13    1    5    5    0    0  0.61578284193E+01  0.45448923675E+02  0.91750997868E+01  0.46772919197E+02  0.00000000000E+00 0. -1.
        -14    1    5    5    0    0  0.33099369136E+03  0.66679391844E+03  0.37762930745E+03  0.83473040393E+03  0.00000000000E+00 0.  1.
          5    1    3    3  501    0  0.27300700586E-01 -0.22002583752E+02  0.28899165252E+01  0.22581816902E+02  0.41800000000E+01 0. -1.
         -5    1    3    3    0  501 -0.12880794702E+03 -0.13061461234E+03 -0.38211096278E+03  0.42388432909E+03  0.41800000000E+01 0. -1.
</event>
<event>
11    1  0.1704459E-009  0.1479603E+03  0.7561462E-02  0.1098981E+00
         22   -1    0    0    0    0  0.00000000000E+00  0.00000000000E+00  0.36872811715E+03  0.36872811715E+03  0.00000000000E+00 0.  1.
         22   -1    0    0    0    0 -0.00000000000E+00 -0.00000000000E+00 -0.10389987094E+03  0.10389987094E+03  0.00000000000E+00 0. -1.
         25    2    1    2    0    0 -0.76914664513E+02  0.38569435609E+02  0.29645130127E+02  0.15469159882E+03  0.12508872861E+03 0.  0.
        -24    2    1    2    0    0  0.57452668183E+02 -0.43632837135E+02  0.67463068979E+02  0.13150217590E+03  0.86815453882E+02 0.  0.
         24    2    1    2    0    0  0.19461996330E+02  0.50634015261E+01  0.16772004711E+03  0.18643421336E+03  0.78887859493E+02 0.  0.
        -11    1    5    5    0    0  0.34526774865E+02  0.12618310100E+02  0.16538389574E+03  0.16942004871E+03  0.00000000000E+00 0.  1.
         12    1    5    5    0    0 -0.15064778535E+02 -0.75549085737E+01  0.23361513646E+01  0.17014164660E+02  0.00000000000E+00 0. -1.
         13    1    4    4    0    0 -0.15597492475E+02 -0.31286742730E+02  0.65002153602E+01  0.35558330134E+02  0.00000000000E+00 0. -1.
        -14    1    4    4    0    0  0.73050160658E+02 -0.12346094405E+02  0.60962853619E+02  0.95943845767E+02  0.00000000000E+00 0.  1.
          5    1    3    3  501    0 -0.36200872526E+02 -0.30983285633E+01 -0.46225499391E+02  0.58943803792E+02  0.41800000000E+01 0.  1.
         -5    1    3    3    0  501 -0.40713791987E+02  0.41667764173E+02  0.75870629517E+02  0.95747795027E+02  0.41800000000E+01 0.  1.
</event>
<event>
11    1  0.1704459E-009  0.2449503E+03  0.7561462E-02  0.1026624E+00
         22   -1    0    0    0    0  0.00000000000E+00  0.00000000000E+00  0.11416190200E+04  0.11416190200E+04  0.00000000000E+00 0. -1.
         22   -1    0    0    0    0 -0.00000000000E+00 -0.00000000000E+00 -0.92324354809E+02  0.92324354809E+02  0.00000000000E+00 0. -1.
         25    2    1    2    0    0  0.84437189709E+01 -0.23599398727E+03  0.23598256321E+03  0.35651080234E+03  0.12509086147E+03 0.  0.
        -24    2    1    2    0    0  0.70215365439E+02  0.16263192631E+03  0.51146715283E+03  0.54727648272E+03  0.80830434296E+02 0.  0.
         24    2    1    2    0    0 -0.78659084410E+02  0.73362060961E+02  0.30184494918E+03  0.33015608979E+03  0.79519976931E+02 0.  0.
        -11    1    5    5    0    0 -0.56647479433E+02  0.89066716048E+02  0.22110494706E+03  0.24500860076E+03  0.00000000000E+00 0.  1.
         12    1    5    5    0    0 -0.22011604977E+02 -0.15704655087E+02  0.80740002126E+02  0.85147489031E+02  0.00000000000E+00 0. -1.
         13    1    4    4    0    0  0.67900425944E+02  0.11996808198E+03  0.28228857260E+03  0.31414908365E+03  0.00000000000E+00 0. -1.
        -14    1    4    4    0    0  0.23149394953E+01  0.42663844328E+02  0.22917858023E+03  0.23312739906E+03  0.00000000000E+00 0.  1.
          5    1    3    3  501    0 -0.43929807600E+01 -0.46002402658E+02 -0.78950206920E+01  0.47067218762E+02  0.41800000000E+01 0.  1.
         -5    1    3    3    0  501  0.12836699731E+02 -0.18999158461E+03  0.24387758391E+03  0.30944358357E+03  0.41800000000E+01 0.  1.
</event>
<event>
11    1  0.1704459E-009  0.3076709E+03  0.7561462E-02  0.9969960E-01
         22   -1    0    0    0    0  0.00000000000E+00  0.00000000000E+00  0.37948173272E+03  0.37948173272E+03  0.00000000000E+00 0. -1.
         22   -1    0    0    0    0 -0.00000000000E+00 -0.00000000000E+00 -0.89930072005E+03  0.89930072005E+03  0.00000000000E+00 0. -1.
         25    2    1    2    0    0 -0.19838870211E+03  0.23226144960E+03 -0.56864885007E+03  0.65750470139E+03  0.12508980604E+03 0.  0.
        -24    2    1    2    0    0  0.18466254827E+03 -0.16611716764E+03 -0.21410551505E+03  0.33834207638E+03  0.83300774054E+02 0.  0.
         24    2    1    2    0    0  0.13726153839E+02 -0.66144281962E+02  0.26293537779E+03  0.28293567501E+03  0.79712671287E+02 0.  0.
        -11    1    5    5    0    0 -0.15767954186E+01  0.10323274380E+02  0.20475332747E+01  0.10641835849E+02  0.00000000000E+00 0.  1.
         12    1    5    5    0    0  0.15302949257E+02 -0.76467556342E+02  0.26088784451E+03  0.27229383916E+03  0.00000000000E+00 0. -1.
         13    1    4    4    0    0  0.18605912965E+03 -0.15334151363E+03 -0.21785989713E+03  0.32495315710E+03  0.00000000000E+00 0. -1.
        -14    1    4    4    0    0 -0.13965813864E+01 -0.12775654002E+02  0.37543820784E+01  0.13388919282E+02  0.00000000000E+00 0.  1.
          5    1    3    3  501    0 -0.12353750545E+03  0.17127559342E+03 -0.48757513056E+03  0.53136035277E+03  0.41800000000E+01 0. -1.
         -5    1    3    3    0  501 -0.74851196654E+02  0.60985856180E+02 -0.81073719512E+02  0.12614434862E+03  0.41800000000E+01 0. -1.
</event>
<event>
11    1  0.1704459E-009  0.1780255E+03  0.7561462E-02  0.1071251E+00
         22   -1    0    0    0    0  0.00000000000E+00  0.00000000000E+00  0.15395239641E+03  0.15395239641E+03  0.00000000000E+00 0.  1.
         22   -1    0    0    0    0 -0.00000000000E+00 -0.00000000000E+00 -0.39958143960E+03  0.39958143960E+03  0.00000000000E+00 0. -1.
         25    2    1    2    0    0 -0.11328615886E+03  0.19294547446E+02 -0.20389053913E+03  0.26537796864E+03  0.12509228969E+03 0.  0.
         24    2    1    2    0    0  0.15117965703E+03 -0.61749251690E+02 -0.25344102209E+01  0.18049117561E+03  0.76826964360E+02 0.  0.
        -24    2    1    2    0    0 -0.37893498178E+02  0.42454704244E+02 -0.39204093832E+02  0.10766469175E+03  0.82561527122E+02 0.  0.
        -11    1    4    4    0    0  0.10116647957E+03 -0.51521749609E+01  0.16422205838E+02  0.10262012639E+03  0.00000000000E+00 0.  1.
         12    1    4    4    0    0  0.50013177461E+02 -0.56597076729E+02 -0.18956616059E+02  0.77871049218E+02  0.00000000000E+00 0. -1.
         11    1    5    5    0    0 -0.37727700548E+02  0.33788928920E+02 -0.63873937431E+02  0.81516568801E+02  0.00000000000E+00 0. -1.
        -12    1    5    5    0    0 -0.16579763047E+00  0.86657753239E+01  0.24669843598E+02  0.26148122953E+02  0.00000000000E+00 0.  1.
          5    1    3    3  501    0  0.22889294587E+02 -0.12620337009E+02 -0.55092864075E+02  0.61121917386E+02  0.41800000000E+01 0. -1.
         -5    1    3    3    0  501 -0.13617545344E+03  0.31914884454E+02 -0.14879767506E+03  0.20425605125E+03  0.41800000000E+01 0. -1.
</event>
<event>
11    1  0.1704459E-009  0.2421391E+03  0.7561462E-02  0.1028172E+00
         22   -1    0    0    0    0  0.00000000000E+00  0.00000000000E+00  0.63265766737E+03  0.63265766737E+03  0.00000000000E+00 0.  1.
         22   -1    0    0    0    0 -0.00000000000E+00 -0.00000000000E+00 -0.16600873876E+04  0.16600873876E+04  0.00000000000E+00 0.  1.
         25    2    1    2    0    0  0.24472867258E+03 -0.78292320815E+02 -0.10484292222E+04  0.10866799864E+04  0.12509095985E+03 0.  0.
         24    2    1    2    0    0 -0.87052271042E+02  0.17125829548E+03 -0.55689772298E+03  0.59459872608E+03  0.80654011294E+02 0.  0.
        -24    2    1    2    0    0 -0.15767640154E+03 -0.92965974666E+02  0.57789722494E+03  0.61146634247E+03  0.80133422055E+02 0.  0.
        -13    1    4    4    0    0 -0.71868725251E+02  0.99414973256E+02 -0.24277639945E+03  0.27200887983E+03  0.00000000000E+00 0.  1.
         14    1    4    4    0    0 -0.15183545791E+02  0.71843322225E+02 -0.31412132352E+03  0.32258984625E+03  0.00000000000E+00 0. -1.
         11    1    5    5    0    0 -0.28301252060E+02 -0.32411611440E+02  0.57482651283E+02  0.71803402585E+02  0.00000000000E+00 0. -1.
        -12    1    5    5    0    0 -0.12937514948E+03 -0.60554363226E+02  0.52041457366E+03  0.53966293988E+03  0.00000000000E+00 0.  1.
          5    1    3    3  501    0  0.14949620251E+03 -0.11764009750E+02 -0.38596278219E+03  0.41409207687E+03  0.41800000000E+01 0. -1.
         -5    1    3    3    0  501  0.95232470067E+02 -0.66528311065E+02 -0.66246644003E+03  0.67258790957E+03  0.41800000000E+01 0. -1.
</event>
<event>
11    1  0.1704459E-009  0.2455811E+03  0.7561462E-02  0.1026280E+00
         22   -1    0    0    0    0  0.00000000000E+00  0.00000000000E+00  0.14664265781E+04  0.14664265781E+04  0.00000000000E+00 0.  1.
         22   -1    0    0    0    0 -0.00000000000E+00 -0.00000000000E+00 -0.56912455178E+02  0.56912455178E+02  0.00000000000E+00 0.  1.
         25    2    1    2    0    0  0.49888819492E+02 -0.22238103392E+03  0.54816885295E+03  0.60669535301E+03  0.12509173217E+03 0.  0.
         24    2    1    2    0    0 -0.79903479451E+02  0.18111679238E+03  0.51197270709E+03  0.55474729603E+03  0.80253667414E+02 0.  0.
        -24    2    1    2    0    0  0.30014659958E+02  0.41264241543E+02  0.34937256287E+03  0.36189638423E+03  0.79398915563E+02 0.  0.
        -11    1    4    4    0    0 -0.75322397127E+02  0.17683692885E+03  0.51350003906E+03  0.54829467718E+03  0.00000000000E+00 0.  1.
         12    1    4    4    0    0 -0.45810823234E+01  0.42798635212E+01 -0.15273319651E+01  0.64526188439E+01  0.00000000000E+00 0. -1.
         13    1    5    5    0    0 -0.10851600404E+02  0.58582170569E+01  0.50035925032E+01  0.13308338602E+02  0.00000000000E+00 0. -1.
        -14    1    5    5    0    0  0.40866260362E+02  0.35406024486E+02  0.34436897036E+03  0.34858804563E+03  0.00000000000E+00 0.  1.
          5    1    3    3  501    0  0.31247865862E+02 -0.22579997014E+03  0.42768670576E+03  0.48466013486E+03  0.41800000000E+01 0. -1.
         -5    1    3    3    0  501  0.18640953630E+02  0.34189362225E+01  0.12048214719E+03  0.12203521815E+03  0.41800000000E+01 0. -1.
</event>
<event>
11    1  0.1704459E-009  0.2112268E+03  0.7561462E-02  0.1046857E+00
         22   -1    0    0    0    0  0.00000000000E+00  0.00000000000E+00  0.23491764093E+04  0.23491764093E+04  0.00000000000E+00 0. -1.
         22   -1    0    0    0    0 -0.00000000000E+00 -0.00000000000E+00 -0.43461186178E+03  0.43461186178E+03  0.00000000000E+00 0.  1.
         25    2    1    2    0    0 -0.13419393927E+03  0.10373207152E+03 -0.37159266723E+03  0.42719832316E+03  0.12509572726E+03 0.  0.
         24    2    1    2    0    0 -0.12550095187E+03 -0.92849439495E+02  0.26720160249E+03  0.31956153469E+03  0.79695487583E+02 0.  0.
        -24    2    1    2    0    0  0.25969489114E+03 -0.10882632023E+02  0.20189556122E+04  0.20370284132E+04  0.75783401061E+02 0.  0.
        -11    1    4    4    0    0 -0.46284865157E+02 -0.63835781409E+02  0.18792013771E+03  0.20379223216E+03  0.00000000000E+00 0.  1.
         12    1    4    4    0    0 -0.79216086717E+02 -0.29013658086E+02  0.79281464786E+02  0.11576930253E+03  0.00000000000E+00 0. -1.
         13    1    5    5    0    0  0.20219262928E+03 -0.25895841567E+02  0.13320768924E+04  0.13475835043E+04  0.00000000000E+00 0. -1.
        -14    1    5    5    0    0  0.57502261861E+02  0.15013209544E+02  0.68687871983E+03  0.68944490884E+03  0.00000000000E+00 0.  1.
          5    1    3    3  501    0  0.38408870345E+00  0.22123288854E+02 -0.16962481038E+03  0.17111293385E+03  0.41800000000E+01 0.  1.
         -5    1    3    3    0  501 -0.13457802797E+03  0.81608782663E+02 -0.20196785685E+03  0.25608538931E+03  0.41800000000E+01 0.  1.
</event>
<event>
11    1  0.1704459E-009  0.1463895E+03  0.7561462E-02  0.1100626E+00
         22   -1    0    0    0    0  0.00000000000E+00  0.00000000000E+00  0.34962112448E+03  0.34962112448E+03  0.00000000000E+00 0.  1.
         22   -1    0    0    0    0 -0.00000000000E+00 -0.00000000000E+00 -0.11402459834E+03  0.11402459834E+03  0.00000000000E+00 0.  1.
         25    2    1    2    0    0  0.62246321991E+02  0.27781559614E+02  0.19360630594E+02  0.14377081874E+03  0.12509514239E+03 0.  0.
         24    2    1    2    0    0 -0.74462092094E+02 -0.40075281678E+02  0.44941072190E+02  0.12963111192E+03  0.87372157163E+02 0.  0.
        -24    2    1    2    0    0  0.12215770103E+02  0.12293722065E+02  0.17129482335E+03  0.19024379216E+03  0.80934685439E+02 0.  0.
        -13    1    4    4    0    0 -0.20097177843E+02 -0.45119917980E+02 -0.11909290055E+02  0.50808805786E+02  0.00000000000E+00 0.  1.
         14    1    4    4    0    0 -0.54364914251E+02  0.50446363015E+01  0.56850362245E+02  0.78822306134E+02  0.00000000000E+00 0. -1.
         13    1    5    5    0    0  0.46873113351E+02  0.71490293376E+01  0.90180706297E+02  0.10188600082E+03  0.00000000000E+00 0. -1.
        -14    1    5    5    0    0 -0.34657343248E+02  0.51446927271E+01  0.81114117054E+02  0.88357791336E+02  0.00000000000E+00 0.  1.
          5    1    3    3  501    0  0.11852828943E+02  0.11324397687E+02 -0.52052946868E+02  0.54733108943E+02  0.41800000000E+01 0.  1.
         -5    1    3    3    0  501  0.50393493048E+02  0.16457161927E+02  0.71413577462E+02  0.89037709798E+02  0.41800000000E+01 0.  1.
</event>
<event>
11    1  0.1704459E-009  0.1965526E+03  0.7561462E-02  0.1056989E+00
         22   -1    0    0    0    0  0.00000000000E+00  0.00000000000E+00  0.81984402927E+03  0.81984402927E+03  0.00000000000E+00 0. -1.
         22   -1    0    0    0    0 -0.00000000000E+00 -0.00000000000E+00 -0.10942735133E+03  0.10942735133E+03  0.00000000000E+00 0.  1.
         25    2    1    2    0    0 -0.10905837822E+03  0.31209375315E+02  0.13474766510E+03  0.21603743418E+03  0.12508990667E+03 0.  0.
         24    2    1    2    0    0  0.86897222042E+02 -0.19722118699E+03  0.26483347828E+03  0.35117393169E+03  0.82091627381E+02 0.  0.
        -24    2    1    2    0    0  0.22161156175E+02  0.16601181168E+03  0.31083553456E+03  0.36206001472E+03  0.80110462823E+02 0.  0.
        -13    1    4    4    0    0  0.75126434253E+02 -0.74205368347E+02  0.10256813024E+03  0.14720950770E+03  0.00000000000E+00 0.  1.
         14    1    4    4    0    0  0.11770787788E+02 -0.12301581865E+03  0.16226534804E+03  0.20396442400E+03  0.00000000000E+00 0. -1.
         11    1    5    5    0    0  0.11965426935E+02  0.15787790906E+03  0.31103596602E+03  0.34901572711E+03  0.00000000000E+00 0. -1.
        -12    1    5    5    0    0  0.10195729240E+02  0.81339026176E+01 -0.20043145856E+00  0.13044287612E+02  0.00000000000E+00 0.  1.
          5    1    3    3  501    0 -0.13658671003E+03  0.17315698520E+02  0.10938139060E+03  0.17589065860E+03  0.41800000000E+01 0.  1.
         -5    1    3    3    0  501  0.27528331817E+02  0.13893676795E+02  0.25366274500E+02  0.40146775581E+02  0.41800000000E+01 0.  1.
</event>
<event>
11    1  0.1704459E-009  0.1375769E+03  0.7561462E-02  0.1110295E+00
         22   -1    0    0    0    0  0.00000000000E+00  0.00000000000E+00  0.17558937728E+02  0.17558937728E+02  0.00000000000E+00 0. -1.
         22   -1    0    0    0    0 -0.00000000000E+00 -0.00000000000E+00 -0.18198461258E+04  0.18198461258E+04  0.00000000000E+00 0. -1.
         25    2    1    2    0    0  0.64491965128E+01 -0.18058933390E+02 -0.85195163232E+03  0.86129917615E+03  0.12508784839E+03 0.  0.
         24    2    1    2    0    0  0.31933287616E+02 -0.41915104187E+02 -0.64990162624E+03  0.65739720740E+03  0.83799485073E+02 0.  0.
        -24    2    1    2    0    0 -0.38382484129E+02  0.59974037578E+02 -0.30043392955E+03  0.31870868001E+03  0.79022632303E+02 0.  0.
        -13    1    4    4    0    0  0.30861799704E+02 -0.54982426462E+01 -0.74280540196E+02  0.80624313981E+02  0.00000000000E+00 0.  1.
         14    1    4    4    0    0  0.10714879124E+01 -0.36416861541E+02 -0.57562108604E+03  0.57677289342E+03  0.00000000000E+00 0. -1.
         11    1    5    5    0    0  0.74508757869E+01 -0.65008918645E+01 -0.27428242104E+01  0.10261590017E+02  0.00000000000E+00 0. -1.
        -12    1    5    5    0    0 -0.45833359916E+02  0.66474929442E+02 -0.29769110534E+03  0.30844708999E+03  0.00000000000E+00 0.  1.
          5    1    3    3  501    0 -0.15118672884E+01 -0.60439124520E+02 -0.71716651056E+03  0.71972248109E+03  0.41800000000E+01 0. -1.
         -5    1    3    3    0  501  0.79610638013E+01  0.42380191130E+02 -0.13478512175E+03  0.14157669506E+03  0.41800000000E+01 0. -1.
</event>
<event>
11    1  0.1704459E-009  0.5330215E+03  0.7561462E-02  0.9322617E-01
         22   -1    0    0    0    0  0.00000000000E+00  0.00000000000E+00  0.22158823628E+04  0.22158823628E+04  0.00000000000E+00 0. -1.
         22   -1    0    0    0    0 -0.00000000000E+00 -0.00000000000E+00 -0.14371568899E+04  0.14371568899E+04  0.00000000000E+00 0.  1.
         25    2    1    2    0    0  0.44215869004E+03 -0.28550727298E+03 -0.13027093756E+04  0.14105736380E+04  0.12509021091E+03 0.  0.
        -24    2    1    2    0    0 -0.67422854543E+02  0.35232683901E+03  0.54229149926E+03  0.65500206135E+03  0.79168095942E+02 0.  0.
         24    2    1    2    0    0 -0.37473583549E+03 -0.66819566030E+02  0.15391433493E+04  0.15874635534E+04  0.78654197060E+02 0.  0.
        -11    1    5    5    0    0 -0.16331540344E+03 -0.60453109934E+02  0.79455699104E+03  0.81341705878E+03  0.00000000000E+00 0.  1.
         12    1    5    5    0    0 -0.21142043205E+03 -0.63664560960E+01  0.74458635826E+03  0.77404649457E+03  0.00000000000E+00 0. -1.
         11    1    4    4    0    0 -0.20624703917E+02  0.47725910755E+02  0.13195118300E+03  0.14182473573E+03  0.00000000000E+00 0. -1.
        -12    1    4    4    0    0 -0.46798150627E+02  0.30460092825E+03  0.41034031626E+03  0.51317732563E+03  0.00000000000E+00 0.  1.
          5    1    3    3  501    0  0.20861856044E+03 -0.15461438116E+03 -0.48515762494E+03  0.55029328913E+03  0.41800000000E+01 0.  1.
         -5    1    3    3    0  501  0.23354012960E+03 -0.13089289181E+03 -0.81755175066E+03  0.86028034888E+03  0.41800000000E+01 0.  1.
</event>
<event>
11    1  0.1704459E-009  0.2044409E+03  0.7561462E-02  0.1051427E+00
         22   -1    0    0    0    0  0.00000000000E+00  0.00000000000E+00  0.34232338675E+03  0.34232338675E+03  0.00000000000E+00 0. -1.
         22   -1    0    0    0    0 -0.00000000000E+00 -0.00000000000E+00 -0.79163131082E+03  0.79163131082E+03  0.00000000000E+00 0.  1.
         25    2    1    2    0    0  0.13730761708E+03  0.95191249171E+02 -0.51020012578E+03  0.55123886546E+03  0.12508142476E+03 0.  0.
         24    2    1    2    0    0 -0.14408427101E+03 -0.59709941599E+02 -0.22390173672E+03  0.28445680054E+03  0.80362487442E+02 0.  0.
        -24    2    1    2    0    0  0.67766539281E+01 -0.35481307572E+02  0.28479393843E+03  0.29825903157E+03  0.80907455300E+02 0.  0.
        -11    1    4    4    0    0 -0.13716087264E+03 -0.76658261479E+02 -0.20168305246E+03  0.25566706414E+03  0.00000000000E+00 0.  1.
         12    1    4    4    0    0 -0.69233983755E+01  0.16948319879E+02 -0.22218684261E+02  0.28789736402E+02  0.00000000000E+00 0. -1.
         13    1    5    5    0    0  0.14430279541E+02 -0.41012508409E+02  0.28549822037E+03  0.28878970315E+03  0.00000000000E+00 0. -1.
        -14    1    5    5    0    0 -0.76536256125E+01  0.55312008371E+01 -0.70428193692E+00  0.94693284220E+01  0.00000000000E+00 0.  1.
          5    1    3    3  501    0  0.15725495823E+03  0.87828728374E+02 -0.39680843091E+03  0.43579514759E+03  0.41800000000E+01 0. -1.
         -5    1    3    3    0  501 -0.19947341151E+02  0.73625207971E+01 -0.11339169486E+03  0.11544371787E+03  0.41800000000E+01 0. -1.
</event>
<event>
11    1  0.1704459E-009  0.1966805E+03  0.7561462E-02  0.1056896E+00
         22   -1    0    0    0    0  0.00000000000E+00  0.00000000000E+00  0.65434423436E+03  0.65434423436E+03  0.00000000000E+00 0. -1.
         22   -1    0    0    0    0 -0.00000000000E+00 -0.00000000000E+00 -0.24332349531E+03  0.24332349531E+03  0.00000000000E+00 0. -1.
         25    2    1    2    0    0 -0.97063723311E+02 -0.99381843435E+02 -0.36260006780E+02  0.19042895722E+03  0.12510108899E+03 0.  0.
         24    2    1    2    0    0  0.18551945237E+01  0.19374590702E+03 -0.21804765895E+02  0.21149312555E+03  0.81932753555E+02 0.  0.
        -24    2    1    2    0    0  0.95208528788E+02 -0.94364063587E+02  0.46908551173E+03  0.49574564691E+03  0.88052760673E+02 0.  0.
        -13    1    4    4    0    0 -0.12013051660E+02  0.19393022816E+03 -0.27988791982E+02  0.19630746109E+03  0.00000000000E+00 0.  1.
         14    1    4    4    0    0  0.13868246184E+02 -0.18432113343E+00  0.61840260872E+01  0.15185664462E+02  0.00000000000E+00 0. -1.
         11    1    5    5    0    0  0.93460116885E+02 -0.10524255675E+03  0.46119229423E+03  0.48219199646E+03  0.00000000000E+00 0. -1.
        -12    1    5    5    0    0  0.17484119025E+01  0.10878493167E+02  0.78932175026E+01  0.13553650442E+02  0.00000000000E+00 0.  1.
          5    1    3    3  501    0  0.25009254496E+02 -0.45311104806E+02  0.35349367588E+00  0.51924525871E+02  0.41800000000E+01 0. -1.
         -5    1    3    3    0  501 -0.12207297781E+03 -0.54070738629E+02 -0.36613500456E+02  0.13850443134E+03  0.41800000000E+01 0. -1.
</event>
<event>
11    1  0.1704459E-009  0.3109357E+03  0.7561462E-02  0.9956663E-01
         22   -1    0    0    0    0  0.00000000000E+00  0.00000000000E+00  0.87781752244E+03  0.87781752244E+03  0.00000000000E+00 0. -1.
         22   -1    0    0    0    0 -0.00000000000E+00 -0.00000000000E+00 -0.17426068845E+03  0.17426068845E+03  0.00000000000E+00 0.  1.
         25    2    1    2    0    0  0.11967903607E+03 -0.23401404416E+03  0.12269372114E+03  0.31589013372E+03  0.12508869987E+03 0.  0.
         24    2    1    2    0    0 -0.15631886029E+03  0.29634679394E+03  0.44760067850E+03  0.56462404609E+03  0.78720630515E+02 0.  0.
        -24    2    1    2    0    0  0.36639824225E+02 -0.62332749774E+02  0.13326243436E+03  0.17156403109E+03  0.80296275997E+02 0.  0.
        -13    1    4    4    0    0 -0.96701984449E+02  0.18605851706E+03  0.21460789473E+03  0.30004265371E+03  0.00000000000E+00 0.  1.
         14    1    4    4    0    0 -0.59616875841E+02  0.11028827687E+03  0.23299278377E+03  0.26458139237E+03  0.00000000000E+00 0. -1.
         13    1    5    5    0    0  0.40863455950E+02 -0.64454499116E+02  0.14223897967E+03  0.16141911853E+03  0.00000000000E+00 0. -1.
        -14    1    5    5    0    0 -0.42236317245E+01  0.21217493427E+01 -0.89765453103E+01  0.10144912564E+02  0.00000000000E+00 0.  1.
          5    1    3    3  501    0  0.58458975952E+02 -0.14331232722E+02  0.88983371920E+01  0.60987612722E+02  0.41800000000E+01 0.  1.
         -5    1    3    3    0  501  0.61220060113E+02 -0.21968281144E+03  0.11379538394E+03  0.25490252100E+03  0.41800000000E+01 0.  1.
</event>
<event>
11    1  0.1704459E-009  0.1306736E+03  0.7561462E-02  0.1118444E+00
         22   -1    0    0    0    0  0.00000000000E+00  0.00000000000E+00  0.19717753820E+03  0.19717753820E+03  0.00000000000E+00 0. -1.
         22   -1    0    0    0    0 -0.00000000000E+00 -0.00000000000E+00 -0.17830116945E+04  0.17830116945E+04  0.00000000000E+00 0.  1.
         25    2    1    2    0    0 -0.88403624047E+01  0.58702450044E+02 -0.12595744307E+04  0.12671620172E+04  0.12509077377E+03 0.  0.
         24    2    1    2    0    0 -0.50176780219E+01 -0.23720657270E+02 -0.50604942131E+03  0.51300218493E+03  0.80606316504E+02 0.  0.
        -24    2    1    2    0    0  0.13858040427E+02 -0.34981792775E+02  0.17978969577E+03  0.20002503053E+03  0.79182744492E+02 0.  0.
        -13    1    4    4    0    0  0.19276959716E+02 -0.27726726585E+02 -0.45575037391E+03  0.45699975477E+03  0.00000000000E+00 0.  1.
         14    1    4    4    0    0 -0.24294637738E+02  0.40060693156E+01 -0.50299047401E+02  0.56002430158E+02  0.00000000000E+00 0. -1.
         13    1    5    5    0    0  0.24462329610E+02 -0.47426514420E+02  0.65103497657E+02  0.84179244753E+02  0.00000000000E+00 0. -1.
        -14    1    5    5    0    0 -0.10604289183E+02  0.12444721646E+02  0.11468619811E+03  0.11584578578E+03  0.00000000000E+00 0.  1.
          5    1    3    3  501    0 -0.41167284953E+02  0.60390048415E+02 -0.38029489554E+03  0.38727688192E+03  0.41800000000E+01 0.  1.
         -5    1    3    3    0  501  0.32326922548E+02 -0.16875983704E+01 -0.87927953518E+03  0.87988513528E+03  0.41800000000E+01 0.  1.
</event>
<event>
11    1  0.1704459E-009  0.1515807E+03  0.7561462E-02  0.1095274E+00
         22   -1    0    0    0    0  0.00000000000E+00  0.00000000000E+00  0.50150230752E+03  0.50150230752E+03  0.00000000000E+00 0. -1.
         22   -1    0    0    0    0 -0.00000000000E+00 -0.00000000000E+00 -0.14532244070E+03  0.14532244070E+03  0.00000000000E+00 0. -1.
         25    2    1    2    0    0  0.23398792471E+02 -0.83397286687E+02 -0.47474360813E+02  0.15938708895E+03  0.12509123980E+03 0.  0.
         24    2    1    2    0    0  0.53547646602E+02  0.91115780489E+02  0.10905168696E+03  0.17185389923E+03  0.80449091605E+02 0.  0.
        -24    2    1    2    0    0 -0.76946439073E+02 -0.77184938013E+01  0.29460254067E+03  0.31558376005E+03  0.82596144009E+02 0.  0.
        -13    1    4    4    0    0 -0.57036123127E+01  0.50309824823E+02  0.79116880930E+02  0.93931307429E+02  0.00000000000E+00 0.  1.
         14    1    4    4    0    0  0.59251258914E+02  0.40805955666E+02  0.29934806034E+02  0.77922591801E+02  0.00000000000E+00 0. -1.
         13    1    5    5    0    0 -0.65120808555E+02  0.31375717073E+02  0.18544527641E+03  0.19903543873E+03  0.00000000000E+00 0. -1.
        -14    1    5    5    0    0 -0.11825630518E+02 -0.39094210874E+02  0.10915726426E+03  0.11654832132E+03  0.00000000000E+00 0.  1.
          5    1    3    3  501    0 -0.16373195534E+02 -0.99775473645E+02 -0.55525370119E+02  0.11542861777E+03  0.41800000000E+01 0.  1.
         -5    1    3    3    0  501  0.39771988005E+02  0.16378186958E+02  0.80510093068E+01  0.43958471183E+02  0.41800000000E+01 0.  1.
</event>
<event>
11    1  0.1704459E-009  0.2304364E+03  0.7561462E-02  0.1034870E+00
         22   -1    0    0    0    0  0.00000000000E+00  0.00000000000E+00  0.66007495955E+03  0.66007495955E+03  0.00000000000E+00 0. -1.
         22   -1    0    0    0    0 -0.00000000000E+00 -0.00000000000E+00 -0.16368412947E+03  0.16368412947E+03  0.00000000000E+00 0.  1.
         25    2    1    2    0    0  0.13553511834E+02  0.28581338419E+02  0.24330455189E+02  0.13130321828E+03  0.12509186021E+03 0.  0.
        -24    2    1    2    0    0 -0.78228551491E+02  0.18429695981E+03  0.72055901130E+02  0.22770880734E+03  0.81081270254E+02 0.  0.
         24    2    1    2    0    0  0.64675039657E+02 -0.21287829823E+03  0.40000447376E+03  0.46474706341E+03  0.80537092721E+02 0.  0.
        -11    1    5    5    0    0  0.79210146825E+01 -0.52135157706E+02  0.39226735133E+02  0.65723313153E+02  0.00000000000E+00 0.  1.
         12    1    5    5    0    0  0.56754024974E+02 -0.16074314053E+03  0.36077773863E+03  0.39902375025E+03  0.00000000000E+00 0. -1.
         13    1    4    4    0    0 -0.62347219016E+02  0.11434950618E+03  0.84018182570E+02  0.15499045224E+03  0.00000000000E+00 0. -1.
        -14    1    4    4    0    0 -0.15881332475E+02  0.69947453630E+02 -0.11962281440E+02  0.72718355095E+02  0.00000000000E+00 0.  1.
          5    1    3    3  501    0 -0.38055695483E+02 -0.23987985925E+02  0.34464340086E+02  0.56823609222E+02  0.41800000000E+01 0.  1.
         -5    1    3    3    0  501  0.51609207317E+02  0.52569324344E+02 -0.10133884897E+02  0.74479609055E+02  0.41800000000E+01 0.  1.
</event>
<event>
11    1  0.1704459E-009  0.1406461E+03  0.7561462E-02  0.1106839E+00
         22   -1    0    0    0    0  0.00000000000E+00  0.00000000000E+00  0.48267101581E+02  0.48267101581E+02  0.00000000000E+00 0. -1.
         22   -1    0    0    0    0 -0.00000000000E+00 -0.00000000000E+00 -0.90735699941E+03  0.90735699941E+03  0.00000000000E+00 0. -1.
         25    2    1    2    0    0 -0.31086620668E+02 -0.77300634062E+01 -0.40866512911E+03  0.42857739171E+03  0.12508101801E+03 0.  0.
         24    2    1    2    0    0  0.12314789892E+03  0.14660938777E+02 -0.28067074222E+03  0.31730879957E+03  0.80798889944E+02 0.  0.
        -24    2    1    2    0    0 -0.92061278251E+02 -0.69308753706E+01 -0.16975402650E+03  0.20973790971E+03  0.81549035983E+02 0.  0.
        -13    1    4    4    0    0  0.35031310428E+02 -0.32410325465E+02 -0.10177679662E+03  0.11241057885E+03  0.00000000000E+00 0.  1.
         14    1    4    4    0    0  0.88116588491E+02  0.47071264242E+02 -0.17889394560E+03  0.20489822073E+03  0.00000000000E+00 0. -1.
         13    1    5    5    0    0 -0.10494825721E+03  0.34998274023E+01 -0.13330715784E+03  0.16969733002E+03  0.00000000000E+00 0. -1.
        -14    1    5    5    0    0  0.12886978959E+02 -0.10430702773E+02 -0.36446868663E+02  0.40040579695E+02  0.00000000000E+00 0.  1.
          5    1    3    3  501    0 -0.13653859837E+02  0.15855239147E+02 -0.39564084568E+03  0.39621580946E+03  0.41800000000E+01 0. -1.
         -5    1    3    3    0  501 -0.17432760831E+02 -0.23585302553E+02 -0.13024283433E+02  0.32361582249E+02  0.41800000000E+01 0. -1.
</event>
<event>
11    1  0.1704459E-009  0.1550178E+03  0.7561462E-02  0.1091859E+00
         22   -1    0    0    0    0  0.00000000000E+00  0.00000000000E+00  0.70016178061E+03  0.70016178061E+03  0.00000000000E+00 0.  1.
         22   -1    0    0    0    0 -0.00000000000E+00 -0.00000000000E+00 -0.54721734749E+03  0.54721734749E+03  0.00000000000E+00 0. -1.
         25    2    1    2    0    0  0.34709559911E+02 -0.15455387234E+03 -0.35584578553E+03  0.40910345740E+03  0.12509101796E+03 0.  0.
         24    2    1    2    0    0 -0.26881021609E+02  0.64301773565E+02 -0.14093086738E+03  0.17725975587E+03  0.81866991310E+02 0.  0.
        -24    2    1    2    0    0 -0.78285383028E+01  0.90252098770E+02  0.64972108603E+03  0.66101591483E+03  0.81226982473E+02 0.  0.
        -11    1    4    4    0    0 -0.12418409686E+02  0.11801179808E+02 -0.11619110458E+03  0.11744725424E+03  0.00000000000E+00 0.  1.
         12    1    4    4    0    0 -0.14462611923E+02  0.52500593757E+02 -0.24739762792E+02  0.59812501632E+02  0.00000000000E+00 0. -1.
         13    1    5    5    0    0  0.15182513363E+02  0.24906222806E+01  0.22442133603E+02  0.27209580519E+02  0.00000000000E+00 0. -1.
        -14    1    5    5    0    0 -0.23011051666E+02  0.87761476489E+02  0.62727895243E+03  0.63380633431E+03  0.00000000000E+00 0.  1.
          5    1    3    3  501    0 -0.19417365045E+02 -0.14010715776E+03 -0.21417623019E+03  0.25670212250E+03  0.41800000000E+01 0. -1.
         -5    1    3    3    0  501  0.54126924957E+02 -0.14446714576E+02 -0.14166955535E+03  0.15240133490E+03  0.41800000000E+01 0. -1.
</event>
<event>
11    1  0.1704459E-009  0.1791130E+03  0.7561462E-02  0.1070363E+00
         22   -1    0    0    0    0  0.00000000000E+00  0.00000000000E+00  0.10527554139E+03  0.10527554139E+03  0.00000000000E+00 0.  1.
         22   -1    0    0    0    0 -0.00000000000E+00 -0.00000000000E+00 -0.24079867255E+04  0.24079867255E+04  0.00000000000E+00 0. -1.
         25    2    1    2    0    0 -0.12222045080E+03 -0.10241645226E+03 -0.15024365390E+04  0.15160442151E+04  0.12509012786E+03 0.  0.
         24    2    1    2    0    0  0.11457233650E+03  0.59546496526E+01 -0.85032200307E+03  0.86173515697E+03  0.79860463974E+02 0.  0.
        -24    2    1    2    0    0  0.76481142939E+01  0.96461802606E+02  0.50047357942E+02  0.13548289485E+03  0.80545041716E+02 0.  0.
        -13    1    4    4    0    0  0.68145769888E+02 -0.32899023152E+02 -0.56625212270E+03  0.57128596879E+03  0.00000000000E+00 0.  1.
         14    1    4    4    0    0  0.46426566614E+02  0.38853672805E+02 -0.28406988037E+03  0.29044918817E+03  0.00000000000E+00 0. -1.
         13    1    5    5    0    0 -0.34344421367E+02  0.49234951284E+02  0.38290707634E+02  0.71202513987E+02  0.00000000000E+00 0. -1.
        -14    1    5    5    0    0  0.41992535661E+02  0.47226851323E+02  0.11756650308E+02  0.64280380860E+02  0.00000000000E+00 0.  1.
          5    1    3    3  501    0 -0.20619455689E+02  0.25836722985E+02 -0.41796868904E+03  0.41929464058E+03  0.41800000000E+01 0.  1.
         -5    1    3    3    0  501 -0.10160099511E+03 -0.12825317524E+03 -0.10844678499E+04  0.10967495745E+04  0.41800000000E+01 0.  1.
</event>
<event>
11    1  0.1704459E-009  0.1475001E+03  0.7561462E-02  0.1099461E+00
         22   -1    0    0    0    0  0.00000000000E+00  0.00000000000E+00  0.36025255945E+03  0.36025255945E+03  0.00000000000E+00 0. -1.
         22   -1    0    0    0    0 -0.00000000000E+00 -0.00000000000E+00 -0.45917320176E+03  0.45917320176E+03  0.00000000000E+00 0.  1.
         25    2    1    2    0    0  0.78469030117E+02  0.51567745087E+02 -0.24203891095E+03  0.28817856482E+03  0.12508968699E+03 0.  0.
        -24    2    1    2    0    0 -0.67434172497E+02 -0.18826166235E+02 -0.17362282976E+03  0.20192461291E+03  0.75676086918E+02 0.  0.
         24    2    1    2    0    0 -0.11034857621E+02 -0.32741578852E+02  0.31674109841E+03  0.32932258347E+03  0.83274614958E+02 0.  0.
        -13    1    5    5    0    0  0.72468796849E+01 -0.35559369780E+02  0.49165465684E+02  0.61108338713E+02  0.00000000000E+00 0.  1.
         14    1    5    5    0    0 -0.18281737305E+02  0.28177909283E+01  0.26757563272E+03  0.26821424476E+03  0.00000000000E+00 0. -1.
         11    1    4    4    0    0 -0.11181250434E+02 -0.35306311638E+02 -0.33117416919E+02  0.49682182985E+02  0.00000000000E+00 0. -1.
        -12    1    4    4    0    0 -0.56252922063E+02  0.16480145404E+02 -0.14050541284E+03  0.15224242993E+03  0.00000000000E+00 0.  1.
          5    1    3    3  501    0  0.12170879646E+01  0.75261082121E+02 -0.12217788140E+03  0.14356398883E+03  0.41800000000E+01 0.  1.
         -5    1    3    3    0  501  0.77251942153E+02 -0.23693337035E+02 -0.11986102955E+03  0.14461457600E+03  0.41800000000E+01 0.  1.
</event>
<event>
11    1  0.1704459E-009  0.2149074E+03  0.7561462E-02  0.1044455E+00
         22   -1    0    0    0    0  0.00000000000E+00  0.00000000000E+00  0.77543308251E+03  0.77543308251E+03  0.00000000000E+00 0.  1.
         22   -1    0    0    0    0 -0.00000000000E+00 -0.00000000000E+00 -0.13675058510E+03  0.13675058510E+03  0.00000000000E+00 0. -1.
         25    2    1    2    0    0 -0.11520077513E+03 -0.11922456553E+03  0.10051012850E+03  0.23073274603E+03  0.12509835548E+03 0.  0.
         24    2    1    2    0    0  0.14192345354E+03 -0.77622557257E+02  0.13638477582E+03  0.22572593140E+03  0.78637529025E+02 0.  0.
        -24    2    1    2    0    0 -0.26722678412E+02  0.19684712278E+03  0.40178759308E+03  0.45572499018E+03  0.82396028016E+02 0.  0.
        -11    1    4    4    0    0  0.47676701731E+02 -0.61531483127E+02  0.91419568987E+02  0.12006968351E+03  0.00000000000E+00 0.  1.
         12    1    4    4    0    0  0.94246751809E+02 -0.16091074130E+02  0.44965206829E+02  0.10565624789E+03  0.00000000000E+00 0. -1.
         11    1    5    5    0    0  0.10578771917E+02  0.10040053543E+03  0.12775008968E+03  0.16282586816E+03  0.00000000000E+00 0. -1.
        -12    1    5    5    0    0 -0.37301450329E+02  0.96446587352E+02  0.27403750340E+03  0.29289912202E+03  0.00000000000E+00 0.  1.
          5    1    3    3  501    0 -0.12115243617E+03 -0.13540558689E+03  0.68666879846E+02  0.19428123568E+03  0.41800000000E+01 0. -1.
         -5    1    3    3    0  501  0.59516610393E+01  0.16181021365E+02  0.31843248658E+02  0.36451510348E+02  0.41800000000E+01 0. -1.
</event>
<event>
11    1  0.1704459E-009  0.4452163E+03  0.7561462E-02  0.9525026E-01
         22   -1    0    0    0    0  0.00000000000E+00  0.00000000000E+00  0.28453481960E+04  0.28453481960E+04  0.00000000000E+00 0.  1.
         22   -1    0    0    0    0 -0.00000000000E+00 -0.00000000000E+00 -0.25967714993E+03  0.25967714993E+03  0.00000000000E+00 0.  1.
         25    2    1    2    0    0 -0.72349299251E+02 -0.40569974317E+02 -0.63988545544E+02  0.16316428569E+03  0.12509079201E+03 0.  0.
        -24    2    1    2    0    0  0.10044452487E+03 -0.40141363061E+03  0.22830022440E+03  0.47902248952E+03  0.78227537228E+02 0.  0.
         24    2    1    2    0    0 -0.28095225621E+02  0.44198360493E+03  0.24213593672E+04  0.24628385707E+04  0.80335493894E+02 0.  0.
        -13    1    5    5    0    0  0.26097188108E+02  0.18878136764E+03  0.96476925852E+03  0.98341201446E+03  0.00000000000E+00 0.  1.
         14    1    5    5    0    0 -0.54192413729E+02  0.25320223729E+03  0.14565901087E+04  0.14794265563E+04  0.00000000000E+00 0. -1.
         13    1    4    4    0    0  0.69016827864E+02 -0.12992796191E+03  0.66837800334E+02  0.16159173669E+03  0.00000000000E+00 0. -1.
        -14    1    4    4    0    0  0.31427697008E+02 -0.27148566871E+03  0.16146242407E+03  0.31743075282E+03  0.00000000000E+00 0.  1.
          5    1    3    3  501    0 -0.88936754214E+01  0.23598768185E+02 -0.68088528574E+02  0.72729082530E+02  0.41800000000E+01 0.  1.
         -5    1    3    3    0  501 -0.63455623829E+02 -0.64168742501E+02  0.40999830304E+01  0.90435203160E+02  0.41800000000E+01 0.  1.
</event>
<event>
11    1  0.1704459E-009  0.2359894E+03  0.7561462E-02  0.1031639E+00
         22   -1    0    0    0    0  0.00000000000E+00  0.00000000000E+00  0.49155510754E+03  0.49155510754E+03  0.00000000000E+00 0. -1.
         22   -1    0    0    0    0 -0.00000000000E+00 -0.00000000000E+00 -0.32124544444E+03  0.32124544444E+03  0.00000000000E+00 0.  1.
         25    2    1    2    0    0  0.12429571353E+03 -0.17415480018E+03 -0.15355715042E+03  0.29154786840E+03  0.12506415271E+03 0.  0.
        -24    2    1    2    0    0  0.19542924668E+02  0.20329382656E+03  0.90021730187E+02  0.23370455051E+03  0.69308002431E+02 0.  0.
         24    2    1    2    0    0 -0.14383863820E+03 -0.29139026378E+02  0.23384508332E+03  0.28754813307E+03  0.80385130107E+02 0.  0.
        -11    1    5    5    0    0 -0.12621011726E+02  0.11776701492E+02  0.11623838144E+01  0.17301207216E+02  0.00000000000E+00 0.  1.
         12    1    5    5    0    0 -0.13121762647E+03 -0.40915727870E+02  0.23268269951E+03  0.27024692585E+03  0.00000000000E+00 0. -1.
         13    1    4    4    0    0 -0.13799083665E+02  0.10132660086E+03  0.71645089342E+02  0.12486197811E+03  0.00000000000E+00 0. -1.
        -14    1    4    4    0    0  0.33342008333E+02  0.10196722571E+03  0.18376640844E+02  0.10884257240E+03  0.00000000000E+00 0.  1.
          5    1    3    3  501    0  0.10093211250E+03 -0.52414353628E+02 -0.11467831691E+03  0.16156467612E+03  0.41800000000E+01 0.  1.
         -5    1    3    3    0  501  0.23363601030E+02 -0.12174044656E+03 -0.38878833511E+02  0.12998319228E+03  0.41800000000E+01 0.  1.
</event>
<event>
11    1  0.1704459E-009  0.1380160E+03  0.7561462E-02  0.1109794E+00
         22   -1    0    0    0    0  0.00000000000E+00  0.00000000000E+00  0.30407591131E+03  0.30407591131E+03  0.00000000000E+00 0. -1.
         22   -1    0    0    0    0 -0.00000000000E+00 -0.00000000000E+00 -0.60233852798E+03  0.60233852798E+03  0.00000000000E+00 0.  1.
         25    2    1    2    0    0 -0.69567495046E+01  0.12695416276E+02 -0.32497370156E+03  0.34851862484E+03  0.12509098766E+03 0.  0.
        -24    2    1    2    0    0  0.34050640409E+02  0.40477729168E+02 -0.24738701733E+03  0.26548901408E+03  0.80536870974E+02 0.  0.
         24    2    1    2    0    0 -0.27093890905E+02 -0.53173145444E+02  0.27409810221E+03  0.29240680037E+03  0.82525783519E+02 0.  0.
        -13    1    5    5    0    0 -0.69129009886E+01 -0.64773474453E+02  0.11982096386E+03  0.13638348351E+03  0.00000000000E+00 0.  1.
         14    1    5    5    0    0 -0.20180989916E+02  0.11600329009E+02  0.15427713835E+03  0.15602331686E+03  0.00000000000E+00 0. -1.
         11    1    4    4    0    0  0.32095126151E+02  0.24929034851E+02 -0.38388416553E+02  0.55903706735E+02  0.00000000000E+00 0. -1.
        -12    1    4    4    0    0  0.19555142585E+01  0.15548694317E+02 -0.20899860077E+03  0.20958530735E+03  0.00000000000E+00 0.  1.
          5    1    3    3  501    0  0.51134816562E+02  0.26174351998E+02 -0.96758723312E+02  0.11260368158E+03  0.41800000000E+01 0.  1.
         -5    1    3    3    0  501 -0.58091566067E+02 -0.13478935722E+02 -0.22821497825E+03  0.23591494326E+03  0.41800000000E+01 0.  1.
</event>
<event>
11    1  0.1704459E-009  0.4352015E+03  0.7561462E-02  0.9551248E-01
         22   -1    0    0    0    0  0.00000000000E+00  0.00000000000E+00  0.59856546600E+03  0.59856546600E+03  0.00000000000E+00 0. -1.
         22   -1    0    0    0    0 -0.00000000000E+00 -0.00000000000E+00 -0.10069887519E+04  0.10069887519E+04  0.00000000000E+00 0.  1.
         25    2    1    2    0    0 -0.16166460546E+03  0.41214527088E+03 -0.81015671686E+03  0.93166532304E+03  0.12508876576E+03 0.  0.
         24    2    1    2    0    0  0.11358663759E+03 -0.16876245339E+03  0.39126210853E+02  0.22709105078E+03  0.93041899456E+02 0.  0.
        -24    2    1    2    0    0  0.48077967872E+02 -0.24338281749E+03  0.36260722016E+03  0.44679784403E+03  0.81225799355E+02 0.  0.
        -13    1    4    4    0    0  0.48739172746E+01 -0.38511943494E+01  0.28625838066E+02  0.29292070130E+02  0.00000000000E+00 0.  1.
         14    1    4    4    0    0  0.10871272031E+03 -0.16491125904E+03  0.10500372787E+02  0.19779898065E+03  0.00000000000E+00 0. -1.
         13    1    5    5    0    0  0.78887459865E+01 -0.19035312842E+03  0.23185271412E+03  0.30008703213E+03  0.00000000000E+00 0. -1.
        -14    1    5    5    0    0  0.40189221886E+02 -0.53029689068E+02  0.13075450604E+03  0.14671081190E+03  0.00000000000E+00 0.  1.
          5    1    3    3  501    0 -0.14027293915E+03  0.35456781933E+03 -0.58552822027E+03  0.69875289273E+03  0.41800000000E+01 0. -1.
         -5    1    3    3    0  501 -0.21391666309E+02  0.57577451544E+02 -0.22462849659E+03  0.23291243031E+03  0.41800000000E+01 0. -1.
</event>
<event>
11    1  0.1704459E-009  0.2709187E+03  0.7561462E-02  0.1013310E+00
         22   -1    0    0    0    0  0.00000000000E+00  0.00000000000E+00  0.13353330116E+03  0.13353330116E+03  0.00000000000E+00 0. -1.
         22   -1    0    0    0    0 -0.00000000000E+00 -0.00000000000E+00 -0.35641032711E+03  0.35641032711E+03  0.00000000000E+00 0.  1.
         25    2    1    2    0    0 -0.22336854560E+02 -0.62261298166E+00 -0.70883347984E+02  0.14550023269E+03  0.12508615420E+03 0.  0.
         24    2    1    2    0    0  0.13733557378E+03 -0.40845721173E+02 -0.70743575652E+02  0.17923229169E+03  0.81179604109E+02 0.  0.
        -24    2    1    2    0    0 -0.11499871922E+03  0.41468334154E+02 -0.81250102320E+02  0.16521110389E+03  0.75820851769E+02 0.  0.
        -11    1    4    4    0    0  0.12465201081E+03 -0.47453917236E+02 -0.85699869431E+02  0.15853853059E+03  0.00000000000E+00 0.  1.
         12    1    4    4    0    0  0.12683562965E+02  0.66081960636E+01  0.14956293778E+02  0.20693761095E+02  0.00000000000E+00 0. -1.
         13    1    5    5    0    0 -0.10272541241E+03  0.12053641526E+02 -0.35298004115E+02  0.10928746370E+03  0.00000000000E+00 0. -1.
        -14    1    5    5    0    0 -0.12273306811E+02  0.29414692628E+02 -0.45952098205E+02  0.55923640189E+02  0.00000000000E+00 0.  1.
          5    1    3    3  501    0 -0.45837374785E+02 -0.15540307218E+02 -0.96117911954E+02  0.10769722129E+03  0.41800000000E+01 0.  1.
         -5    1    3    3    0  501  0.23500520225E+02  0.14917694237E+02  0.25234563970E+02  0.37803011400E+02  0.41800000000E+01 0.  1.
</event>
<event>
11    1  0.3439133E-009  0.1655340E+03  0.7561462E-02  0.1081985E+00
         22   -1    0    0    0    0  0.00000000000E+00  0.00000000000E+00  0.56468855783E+03  0.56468855783E+03  0.00000000000E+00 0.  1.
         22   -1    0    0    0    0 -0.00000000000E+00 -0.00000000000E+00 -0.87797069062E+03  0.87797069062E+03  0.00000000000E+00 0.  1.
         25    2    1    2    0    0 -0.87768368784E+02  0.70205266448E+02 -0.80532804890E+03  0.82269829726E+03  0.12508859256E+03 0.  0.
        -24    2    1    2    0    0  0.21003048882E+01 -0.38244732486E+01 -0.37534049626E+02  0.73437412316E+02  0.62969919565E+02 0.  0.
         24    2    1    2    0    0  0.85668063895E+02 -0.66380793199E+02  0.52957996574E+03  0.54652353887E+03  0.80545710944E+02 0.  0.
        -11    1    5    5    0    0  0.99393328173E+02 -0.56446713024E+02  0.49486831909E+03  0.50789754708E+03  0.00000000000E+00 0.  1.
         12    1    5    5    0    0 -0.13725264277E+02 -0.99340801749E+01  0.34711646650E+02  0.38625991787E+02  0.00000000000E+00 0. -1.
         11    1    4    4    0    0 -0.11616880830E+02 -0.26800096437E+02 -0.24482223851E+01  0.29311958005E+02  0.00000000000E+00 0. -1.
        -12    1    4    4    0    0  0.13717185719E+02  0.22975623188E+02 -0.35085827241E+02  0.44125454310E+02  0.00000000000E+00 0.  1.
          5    1    3    3  501    0  0.99822141322E+01 -0.26196053223E+02 -0.92011825367E+02  0.96278378730E+02  0.41800000000E+01 0. -1.
         -5    1    3    3    0  501 -0.97750582916E+02  0.96401319671E+02 -0.71331622353E+03  0.72641991853E+03  0.41800000000E+01 0. -1.
</event>
<event>
11    1  0.1704459E-009  0.7556455E+03  0.7561462E-02  0.8954095E-01
         22   -1    0    0    0    0  0.00000000000E+00  0.00000000000E+00  0.97932201543E+03  0.97932201543E+03  0.00000000000E+00 0.  1.
         22   -1    0    0    0    0 -0.00000000000E+00 -0.00000000000E+00 -0.10722210234E+04  0.10722210234E+04  0.00000000000E+00 0.  1.
         25    2    1    2    0    0 -0.47382778098E+03 -0.80758556974E+03 -0.55953519149E+02  0.94630104755E+03  0.12509059841E+03 0.  0.
        -24    2    1    2    0    0  0.49509095789E+03  0.42809787035E+03 -0.19215981057E+03  0.68690975863E+03  0.80850358878E+02 0.  0.
         24    2    1    2    0    0 -0.21263176911E+02  0.37948769940E+03  0.15521432170E+03  0.41833223268E+03  0.80295295971E+02 0.  0.
        -13    1    5    5    0    0 -0.38836956783E+02  0.30302878540E+03  0.14823207255E+03  0.33956958245E+03  0.00000000000E+00 0.  1.
         14    1    5    5    0    0  0.17573779872E+02  0.76458913998E+02  0.69822491520E+01  0.78762650235E+02  0.00000000000E+00 0. -1.
         13    1    4    4    0    0  0.73302311842E+02  0.10507400434E+03 -0.41989766385E+02  0.13482179271E+03  0.00000000000E+00 0. -1.
        -14    1    4    4    0    0  0.42178864605E+03  0.32302386600E+03 -0.15017004418E+03  0.55208796592E+03  0.00000000000E+00 0.  1.
          5    1    3    3  501    0 -0.36993888729E+03 -0.64490509096E+03 -0.94352783775E+02  0.74945131722E+03  0.41800000000E+01 0.  1.
         -5    1    3    3    0  501 -0.10388889369E+03 -0.16268047878E+03  0.38399264626E+02  0.19684973033E+03  0.41800000000E+01 0.  1.
</event>
<event>
11    1  0.1704459E-009  0.2153030E+03  0.7561462E-02  0.1044200E+00
         22   -1    0    0    0    0  0.00000000000E+00  0.00000000000E+00  0.39930582535E+03  0.39930582535E+03  0.00000000000E+00 0. -1.
         22   -1    0    0    0    0 -0.00000000000E+00 -0.00000000000E+00 -0.11115990178E+04  0.11115990178E+04  0.00000000000E+00 0. -1.
         25    2    1    2    0    0  0.83810670401E+02  0.15187099539E+03 -0.10207572815E+04  0.10429198899E+04  0.12508973325E+03 0.  0.
        -24    2    1    2    0    0  0.33863607604E+02  0.42026534997E+02  0.32721026233E+02  0.10205111785E+03  0.80192216162E+02 0.  0.
         24    2    1    2    0    0 -0.11767427801E+03 -0.19389753039E+03  0.27574306283E+03  0.36593383536E+03  0.80186327780E+02 0.  0.
        -11    1    5    5    0    0 -0.10063927035E+03 -0.89394016225E+02  0.14973221188E+03  0.20134370650E+03  0.00000000000E+00 0.  1.
         12    1    5    5    0    0 -0.17035007656E+02 -0.10450351416E+03  0.12601085096E+03  0.16459012886E+03  0.00000000000E+00 0. -1.
         13    1    4    4    0    0  0.60236872255E+02  0.24715292682E+02  0.21516383392E+02  0.68573181534E+02  0.00000000000E+00 0. -1.
        -14    1    4    4    0    0 -0.26373264651E+02  0.17311242314E+02  0.11204642841E+02  0.33477936316E+02  0.00000000000E+00 0.  1.
          5    1    3    3  501    0  0.54591489449E+02  0.99784826018E+02 -0.90935060181E+03  0.91644597857E+03  0.41800000000E+01 0.  1.
         -5    1    3    3    0  501  0.29219180952E+02  0.52086169373E+02 -0.11140667968E+03  0.12647391135E+03  0.41800000000E+01 0.  1.
</event>
<event>
11    1  0.1704459E-009  0.3455602E+03  0.7561462E-02  0.9825627E-01
         22   -1    0    0    0    0  0.00000000000E+00  0.00000000000E+00  0.12303662670E+03  0.12303662670E+03  0.00000000000E+00 0.  1.
         22   -1    0    0    0    0 -0.00000000000E+00 -0.00000000000E+00 -0.34166241682E+04  0.34166241682E+04  0.00000000000E+00 0.  1.
         25    2    1    2    0    0 -0.30535196243E+02 -0.17063942818E+03 -0.19858845004E+04  0.19973570880E+04  0.12509146795E+03 0.  0.
        -24    2    1    2    0    0  0.12114021681E+03 -0.19320665695E+03 -0.10565563098E+04  0.10838693252E+04  0.80359902942E+02 0.  0.
         24    2    1    2    0    0 -0.90605020565E+02  0.36384608513E+03 -0.25114673137E+03  0.45843438174E+03  0.80586340413E+02 0.  0.
        -13    1    5    5    0    0 -0.31646643145E+02  0.27220285719E+03 -0.16885044436E+03  0.32187944645E+03  0.00000000000E+00 0.  1.
         14    1    5    5    0    0 -0.58958377420E+02  0.91643227942E+02 -0.82296287015E+02  0.13655493529E+03  0.00000000000E+00 0. -1.
         13    1    4    4    0    0  0.83700821264E+02 -0.12371212438E+03 -0.50287168855E+03  0.52458598184E+03  0.00000000000E+00 0. -1.
        -14    1    4    4    0    0  0.37439395544E+02 -0.69494532573E+02 -0.55368462124E+03  0.55928334339E+03  0.00000000000E+00 0.  1.
          5    1    3    3  501    0  0.33233650062E+02 -0.42118239460E+02 -0.95667299749E+03  0.95818532556E+03  0.41800000000E+01 0.  1.
         -5    1    3    3    0  501 -0.63768846305E+02 -0.12852118872E+03 -0.10292115029E+04  0.10391717624E+04  0.41800000000E+01 0.  1.
</event>
<event>
11    1  0.1704459E-009  0.2162980E+03  0.7561462E-02  0.1043562E+00
         22   -1    0    0    0    0  0.00000000000E+00  0.00000000000E+00  0.29674135598E+04  0.29674135598E+04  0.00000000000E+00 0. -1.
         22   -1    0    0    0    0 -0.00000000000E+00 -0.00000000000E+00 -0.29019871508E+02  0.29019871508E+02  0.00000000000E+00 0. -1.
         25    2    1    2    0    0 -0.15757669106E+02  0.21235764706E+03  0.92443001520E+03  0.95685030994E+03  0.12509032032E+03 0.  0.
         24    2    1    2    0    0 -0.66214902964E+02 -0.13929827863E+03  0.86152946902E+03  0.87885962794E+03  0.79829792851E+02 0.  0.
        -24    2    1    2    0    0  0.81972572070E+02 -0.73059368427E+02  0.11524342041E+04  0.11607234935E+04  0.84363852405E+02 0.  0.
        -11    1    4    4    0    0  0.61352144170E+01 -0.64979226579E+02  0.23913415358E+03  0.24788118959E+03  0.00000000000E+00 0.  1.
         12    1    4    4    0    0 -0.72350117381E+02 -0.74319052051E+02  0.62239531544E+03  0.63097843835E+03  0.00000000000E+00 0. -1.
         11    1    5    5    0    0  0.61699722227E+02 -0.86022435779E+02  0.10575641332E+04  0.10628492890E+04  0.00000000000E+00 0. -1.
        -12    1    5    5    0    0  0.20272849843E+02  0.12963067352E+02  0.94870070905E+02  0.97874204515E+02  0.00000000000E+00 0.  1.
          5    1    3    3  501    0  0.13089926534E+02  0.97852650382E+02  0.65823082413E+03  0.66560632328E+03  0.41800000000E+01 0.  1.
         -5    1    3    3    0  501 -0.28847595640E+02  0.11450499668E+03  0.26619919107E+03  0.29124398666E+03  0.41800000000E+01 0.  1.
</event>
<event>
11    1  0.1704459E-009  0.4373425E+03  0.7561462E-02  0.9545579E-01
         22   -1    0    0    0    0  0.00000000000E+00  0.00000000000E+00  0.43801020762E+03  0.43801020762E+03  0.00000000000E+00 0.  1.
         22   -1    0    0    0    0 -0.00000000000E+00 -0.00000000000E+00 -0.24134633012E+04  0.24134633012E+04  0.00000000000E+00 0.  1.
         25    2    1    2    0    0  0.26314399086E+02 -0.42802949817E+03 -0.12424657207E+04  0.13203296855E+04  0.12509081605E+03 0.  0.
        -24    2    1    2    0    0 -0.31194406974E+02  0.40820655917E+03 -0.10872935688E+04  0.11646098145E+04  0.80641362600E+02 0.  0.
         24    2    1    2    0    0  0.48800078882E+01  0.19822938996E+02  0.35430619595E+03  0.36653400881E+03  0.91638069266E+02 0.  0.
        -11    1    5    5    0    0 -0.18595364818E+02  0.42044653742E+02  0.29868155596E+03  0.30219896157E+03  0.00000000000E+00 0.  1.
         12    1    5    5    0    0  0.23475372706E+02 -0.22221714746E+02  0.55624639990E+02  0.64335047244E+02  0.00000000000E+00 0. -1.
         13    1    4    4    0    0 -0.51197693606E+02  0.15435826236E+03 -0.42483991960E+03  0.45490288445E+03  0.00000000000E+00 0. -1.
        -14    1    4    4    0    0  0.20003286633E+02  0.25384829681E+03 -0.66245364919E+03  0.70970693007E+03  0.00000000000E+00 0.  1.
          5    1    3    3  501    0  0.41245475651E+02 -0.33946713457E+03 -0.82099614882E+03  0.88937690182E+03  0.41800000000E+01 0.  1.
         -5    1    3    3    0  501 -0.14931076565E+02 -0.88562363594E+02 -0.42146957192E+03  0.43095278367E+03  0.41800000000E+01 0.  1.
</event>
<event>
11    1  0.1704459E-009  0.1319039E+03  0.7561462E-02  0.1116952E+00
         22   -1    0    0    0    0  0.00000000000E+00  0.00000000000E+00  0.13500340636E+04  0.13500340636E+04  0.00000000000E+00 0. -1.
         22   -1    0    0    0    0 -0.00000000000E+00 -0.00000000000E+00 -0.19766222001E+02  0.19766222001E+02  0.00000000000E+00 0.  1.
         25    2    1    2    0    0  0.50423252629E+02 -0.19668084417E+02  0.40633323987E+03  0.42858277771E+03  0.12508859891E+03 0.  0.
        -24    2    1    2    0    0 -0.20972769643E+02  0.25060354274E+02  0.39209258791E+03  0.40228959679E+03  0.83859667117E+02 0.  0.
         24    2    1    2    0    0 -0.29450482986E+02 -0.53922698571E+01  0.53184201379E+03  0.53892791107E+03  0.81798277348E+02 0.  0.
        -13    1    5    5    0    0 -0.25988330970E+02  0.14303466762E+02  0.62736367440E+02  0.69396212487E+02  0.00000000000E+00 0.  1.
         14    1    5    5    0    0 -0.34621520158E+01 -0.19695736619E+02  0.46910564635E+03  0.46953169859E+03  0.00000000000E+00 0. -1.
         13    1    4    4    0    0 -0.39620634678E+02  0.28471508103E+02  0.36989421874E+03  0.37309804947E+03  0.00000000000E+00 0. -1.
        -14    1    4    4    0    0  0.18647865034E+02 -0.34111538285E+01  0.22198369170E+02  0.29191547314E+02  0.00000000000E+00 0.  1.
          5    1    3    3  501    0 -0.12182563137E+02 -0.56084284764E+02  0.24535005330E+03  0.25200790245E+03  0.41800000000E+01 0.  1.
         -5    1    3    3    0  501  0.62605815766E+02  0.36416200347E+02  0.16098318657E+03  0.17657487526E+03  0.41800000000E+01 0.  1.
</event>
<event>
11    1  0.1704459E-009  0.1881901E+03  0.7561462E-02  0.1063204E+00
         22   -1    0    0    0    0  0.00000000000E+00  0.00000000000E+00  0.73222120279E+02  0.73222120279E+02  0.00000000000E+00 0.  1.
         22   -1    0    0    0    0 -0.00000000000E+00 -0.00000000000E+00 -0.16146548762E+04  0.16146548762E+04  0.00000000000E+00 0. -1.
         25    2    1    2    0    0  0.12837163495E+03 -0.25449732574E+02 -0.10254321121E+04  0.10412902773E+04  0.12508980525E+03 0.  0.
         24    2    1    2    0    0  0.80291857575E+02  0.95357830083E+02 -0.26515171538E+03  0.30329938599E+03  0.78391244530E+02 0.  0.
        -24    2    1    2    0    0 -0.20866349253E+03 -0.69908097510E+02 -0.25084892841E+03  0.34328733324E+03  0.80581716693E+02 0.  0.
        -13    1    4    4    0    0  0.29438223456E+02 -0.86839976729E+01 -0.68912558623E+02  0.75438462019E+02  0.00000000000E+00 0.  1.
         14    1    4    4    0    0  0.50853634119E+02  0.10404182776E+03 -0.19623915676E+03  0.22786092397E+03  0.00000000000E+00 0. -1.
         11    1    5    5    0    0 -0.55099916596E+02 -0.32532734595E+02 -0.12802973296E+03  0.14312928474E+03  0.00000000000E+00 0. -1.
        -12    1    5    5    0    0 -0.15356357593E+03 -0.37375362914E+02 -0.12281919545E+03  0.20015804849E+03  0.00000000000E+00 0.  1.
          5    1    3    3  501    0  0.11901662556E+03 -0.81894789961E+01 -0.45169572082E+03  0.46720286957E+03  0.41800000000E+01 0.  1.
         -5    1    3    3    0  501  0.93550093904E+01 -0.17260253578E+02 -0.57373639132E+03  0.57408740770E+03  0.41800000000E+01 0.  1.
</event>
<event>
11    1  0.1704459E-009  0.3018078E+03  0.7561462E-02  0.9994290E-01
         22   -1    0    0    0    0  0.00000000000E+00  0.00000000000E+00  0.43751618135E+03  0.43751618135E+03  0.00000000000E+00 0. -1.
         22   -1    0    0    0    0 -0.00000000000E+00 -0.00000000000E+00 -0.14870136425E+04  0.14870136425E+04  0.00000000000E+00 0.  1.
         25    2    1    2    0    0  0.18852721011E+03 -0.17573043512E+03 -0.12039571588E+04  0.12375718576E+04  0.12509023841E+03 0.  0.
        -24    2    1    2    0    0  0.74244720876E+02  0.31918105452E+03  0.16873795396E+03  0.37728293879E+03  0.80505246094E+02 0.  0.
         24    2    1    2    0    0 -0.26277193099E+03 -0.14345061940E+03 -0.14278256353E+02  0.30967502749E+03  0.77894711776E+02 0.  0.
        -13    1    5    5    0    0 -0.15582565305E+03 -0.99733024773E+02 -0.44429227834E+02  0.19026893247E+03  0.00000000000E+00 0.  1.
         14    1    5    5    0    0 -0.10694627794E+03 -0.43717594630E+02  0.30150971481E+02  0.11940609502E+03  0.00000000000E+00 0. -1.
         11    1    4    4    0    0  0.62228130560E+02  0.31499708588E+03  0.14941631712E+03  0.35414790719E+03  0.00000000000E+00 0. -1.
        -12    1    4    4    0    0  0.12016590316E+02  0.41839686356E+01  0.19321636846E+02  0.23135031592E+02  0.00000000000E+00 0.  1.
          5    1    3    3  501    0  0.43843664869E+02 -0.37516423946E+01 -0.80397331766E+02  0.91747180474E+02  0.41800000000E+01 0.  1.
         -5    1    3    3    0  501  0.14468354524E+03 -0.17197879272E+03 -0.11235598270E+04  0.11458246771E+04  0.41800000000E+01 0.  1.
</event>
<event>
11    1  0.1704459E-009  0.2656953E+03  0.7561462E-02  0.1015855E+00
         22   -1    0    0    0    0  0.00000000000E+00  0.00000000000E+00  0.11549720648E+03  0.11549720648E+03  0.00000000000E+00 0. -1.
         22   -1    0    0    0    0 -0.00000000000E+00 -0.00000000000E+00 -0.13449041786E+04  0.13449041786E+04  0.00000000000E+00 0. -1.
         25    2    1    2    0    0 -0.15809681397E+03  0.21086238657E+03 -0.61275036408E+03  0.67865164532E+03  0.12508996106E+03 0.  0.
         24    2    1    2    0    0 -0.42579925433E+02 -0.24105882763E+03 -0.37953119767E+03  0.45942119954E+03  0.84270399021E+02 0.  0.
        -24    2    1    2    0    0  0.20067673940E+03  0.30196441058E+02 -0.23712541032E+03  0.32232854017E+03  0.80524833429E+02 0.  0.
        -13    1    4    4    0    0  0.13914103652E+02 -0.43580761430E+01 -0.13448510443E+02  0.19835764196E+02  0.00000000000E+00 0.  1.
         14    1    4    4    0    0 -0.56494029085E+02 -0.23670075148E+03 -0.36608268723E+03  0.43958543534E+03  0.00000000000E+00 0. -1.
         13    1    5    5    0    0  0.10005203046E+03  0.50751524980E+02 -0.15209243358E+03  0.18899268356E+03  0.00000000000E+00 0. -1.
        -14    1    5    5    0    0  0.10062470894E+03 -0.20555083922E+02 -0.85032976740E+02  0.13333585661E+03  0.00000000000E+00 0.  1.
          5    1    3    3  501    0 -0.10775600942E+03  0.18454293978E+03 -0.35248544238E+03  0.41222677458E+03  0.41800000000E+01 0. -1.
         -5    1    3    3    0  501 -0.50340804546E+02  0.26319446788E+02 -0.26026492171E+03  0.26642487075E+03  0.41800000000E+01 0. -1.
</event>
<event>
11    1  0.1704459E-009  0.1841939E+03  0.7561462E-02  0.1066300E+00
         22   -1    0    0    0    0  0.00000000000E+00  0.00000000000E+00  0.10857232762E+03  0.10857232762E+03  0.00000000000E+00 0. -1.
         22   -1    0    0    0    0 -0.00000000000E+00 -0.00000000000E+00 -0.11102633799E+04  0.11102633799E+04  0.00000000000E+00 0. -1.
         25    2    1    2    0    0 -0.13408512977E+03  0.12356609084E+02 -0.83508147134E+03  0.85506590919E+03  0.12508052396E+03 0.  0.
        -24    2    1    2    0    0  0.12808497645E+03 -0.68540935818E+02 -0.20125152780E+03  0.25977250159E+03  0.76654771943E+02 0.  0.
         24    2    1    2    0    0  0.60001533197E+01  0.56184326734E+02  0.34641946851E+02  0.10399729675E+03  0.80141704750E+02 0.  0.
        -13    1    5    5    0    0  0.20132393405E+02  0.24916791959E+02 -0.21230020275E+02  0.38430112499E+02  0.00000000000E+00 0.  1.
         14    1    5    5    0    0 -0.14132240085E+02  0.31267534775E+02  0.55871967126E+02  0.65567184256E+02  0.00000000000E+00 0. -1.
         13    1    4    4    0    0  0.46827487732E+02 -0.39024266874E+02 -0.14321100164E+03  0.15564413900E+03  0.00000000000E+00 0. -1.
        -14    1    4    4    0    0  0.81257488721E+02 -0.29516668944E+02 -0.58040526161E+02  0.10412836259E+03  0.00000000000E+00 0.  1.
          5    1    3    3  501    0 -0.22632695042E+02 -0.44674904356E+02 -0.37049709299E+03  0.37388989593E+03  0.41800000000E+01 0. -1.
         -5    1    3    3    0  501 -0.11145243473E+03  0.57031513440E+02 -0.46458437834E+03  0.48117601326E+03  0.41800000000E+01 0. -1.
</event>
<event>
11    1  0.1704459E-009  0.1617662E+03  0.7561462E-02  0.1085428E+00
         22   -1    0    0    0    0  0.00000000000E+00  0.00000000000E+00  0.68799600898E+03  0.68799600898E+03  0.00000000000E+00 0.  1.
         22   -1    0    0    0    0 -0.00000000000E+00 -0.00000000000E+00 -0.94929370924E+02  0.94929370924E+02  0.00000000000E+00 0.  1.
         25    2    1    2    0    0  0.80234728411E+02 -0.62183409623E+02  0.35853511973E+02  0.16503454678E+03  0.12508612727E+03 0.  0.
        -24    2    1    2    0    0 -0.12519418805E+03  0.42432371822E+01  0.38750893814E+03  0.41493681633E+03  0.79484555866E+02 0.  0.
         24    2    1    2    0    0  0.44959459644E+02  0.57940172441E+02  0.16970418794E+03  0.20295401679E+03  0.83740103502E+02 0.  0.
        -13    1    5    5    0    0  0.24531490498E+02 -0.19374572546E+02  0.44156581246E+02  0.54101494940E+02  0.00000000000E+00 0.  1.
         14    1    5    5    0    0  0.20427969146E+02  0.77314744987E+02  0.12554760669E+03  0.14885252185E+03  0.00000000000E+00 0. -1.
         13    1    4    4    0    0  0.91502514899E+01 -0.18176918934E+01  0.79462073450E+01  0.12254522321E+02  0.00000000000E+00 0. -1.
        -14    1    4    4    0    0 -0.13434443954E+03  0.60609290756E+01  0.37956273080E+03  0.40268229401E+03  0.00000000000E+00 0.  1.
          5    1    3    3  501    0 -0.20121801054E+02  0.77264198014E+01 -0.20741694587E+02  0.30203886090E+02  0.41800000000E+01 0. -1.
         -5    1    3    3    0  501  0.10035652947E+03 -0.69909829425E+02  0.56595206560E+02  0.13483066069E+03  0.41800000000E+01 0. -1.
</event>
<event>
11    1  0.1704459E-009  0.1842391E+03  0.7561462E-02  0.1066265E+00
         22   -1    0    0    0    0  0.00000000000E+00  0.00000000000E+00  0.38569401025E+03  0.38569401025E+03  0.00000000000E+00 0.  1.
         22   -1    0    0    0    0 -0.00000000000E+00 -0.00000000000E+00 -0.26826678208E+03  0.26826678208E+03  0.00000000000E+00 0.  1.
         25    2    1    2    0    0  0.10928799369E+03 -0.89040000662E+02 -0.17057985909E+03  0.25420043375E+03  0.12509350465E+03 0.  0.
         24    2    1    2    0    0 -0.12778625484E+03  0.21307310984E+02  0.99081893890E+02  0.18283472818E+03  0.82631638644E+02 0.  0.
        -24    2    1    2    0    0  0.18498261147E+02  0.67732689678E+02  0.18892519337E+03  0.21692563039E+03  0.80212826368E+02 0.  0.
        -13    1    4    4    0    0 -0.27456340575E+02  0.19820081583E+02 -0.93193294171E+01  0.35121733621E+02  0.00000000000E+00 0.  1.
         14    1    4    4    0    0 -0.10032991427E+03  0.14872294007E+01  0.10840122331E+03  0.14771299456E+03  0.00000000000E+00 0. -1.
         13    1    5    5    0    0 -0.38576223288E+01  0.78114460999E+01 -0.67773247709E+01  0.11037756622E+02  0.00000000000E+00 0. -1.
        -14    1    5    5    0    0  0.22355883476E+02  0.59921243578E+02  0.19570251814E+03  0.20588787377E+03  0.00000000000E+00 0.  1.
          5    1    3    3  501    0 -0.10579780391E+02  0.16081886099E+02  0.12786452315E+01  0.19739963203E+02  0.41800000000E+01 0. -1.
         -5    1    3    3    0  501  0.11986777409E+03 -0.10512188676E+03 -0.17185850432E+03  0.23446047055E+03  0.41800000000E+01 0. -1.
</event>
<event>
11    1  0.1704459E-009  0.1395530E+03  0.7561462E-02  0.1108059E+00
         22   -1    0    0    0    0  0.00000000000E+00  0.00000000000E+00  0.57404439572E+03  0.57404439572E+03  0.00000000000E+00 0. -1.
         22   -1    0    0    0    0 -0.00000000000E+00 -0.00000000000E+00 -0.16732852645E+03  0.16732852645E+03  0.00000000000E+00 0. -1.
         25    2    1    2    0    0 -0.68163237792E+01  0.11384801091E+03 -0.46319550997E+02  0.17547820793E+03  0.12505706217E+03 0.  0.
         24    2    1    2    0    0  0.23826311928E+01 -0.54499210366E+02 -0.61063065510E+01  0.96454154083E+02  0.79311260224E+02 0.  0.
        -24    2    1    2    0    0  0.44336925864E+01 -0.59348800540E+02  0.45914172682E+03  0.46944056015E+03  0.77597528634E+02 0.  0.
        -13    1    4    4    0    0  0.15390523777E+02  0.15894092708E+02  0.79361990698E+01  0.23504758259E+02  0.00000000000E+00 0.  1.
         14    1    4    4    0    0 -0.13007892584E+02 -0.70393303074E+02 -0.14042505621E+02  0.72949395825E+02  0.00000000000E+00 0. -1.
         13    1    5    5    0    0  0.36927604179E+01 -0.60082990916E+02  0.46225458158E+03  0.46615759188E+03  0.00000000000E+00 0. -1.
        -14    1    5    5    0    0  0.74093216859E+00  0.73419037672E+00 -0.31128547521E+01  0.32829682751E+01  0.00000000000E+00 0.  1.
          5    1    3    3  501    0 -0.56283460365E+02  0.91564619776E+02 -0.59539610955E+01  0.10772571447E+03  0.41800000000E+01 0.  1.
         -5    1    3    3    0  501  0.49467136586E+02  0.22283391129E+02 -0.40365589901E+02  0.67752493462E+02  0.41800000000E+01 0.  1.
</event>
<event>
11    1  0.1704459E-009  0.2805292E+03  0.7561462E-02  0.1008786E+00
         22   -1    0    0    0    0  0.00000000000E+00  0.00000000000E+00  0.15881282198E+04  0.15881282198E+04  0.00000000000E+00 0.  1.
         22   -1    0    0    0    0 -0.00000000000E+00 -0.00000000000E+00 -0.37365114078E+03  0.37365114078E+03  0.00000000000E+00 0.  1.
         25    2    1    2    0    0  0.63239720080E+02  0.24540197384E+03 -0.29689457761E+03  0.40989653944E+03  0.12508953544E+03 0.  0.
        -24    2    1    2    0    0 -0.11394843403E+03 -0.19090724052E+03  0.89257720260E+03  0.92330249798E+03  0.79772301492E+02 0.  0.
         24    2    1    2    0    0  0.50708713953E+02 -0.54494733318E+02  0.61879445403E+03  0.62858032315E+03  0.81643105520E+02 0.  0.
        -11    1    5    5    0    0  0.66311419343E+02 -0.14956750974E+02  0.38213783954E+03  0.38813687939E+03  0.00000000000E+00 0.  1.
         12    1    5    5    0    0 -0.15602705390E+02 -0.39537982344E+02  0.23665661449E+03  0.24044344375E+03  0.00000000000E+00 0. -1.
         11    1    4    4    0    0 -0.90052025921E+02 -0.75012130050E+02  0.40936380678E+03  0.42581088916E+03  0.00000000000E+00 0. -1.
        -12    1    4    4    0    0 -0.23896408112E+02 -0.11589511047E+03  0.48321339582E+03  0.49749160882E+03  0.00000000000E+00 0.  1.
          5    1    3    3  501    0  0.65343918704E+02  0.25926962258E+03 -0.27516492291E+03  0.38369750078E+03  0.41800000000E+01 0.  1.
         -5    1    3    3    0  501 -0.21041986235E+01 -0.13867648744E+02 -0.21729654703E+02  0.26199038667E+02  0.41800000000E+01 0.  1.
</event>
<event>
11    1  0.1832325E-009  0.1931495E+03  0.7561462E-02  0.1059477E+00
         22   -1    0    0    0    0  0.00000000000E+00  0.00000000000E+00  0.15963754852E+04  0.15963754852E+04  0.00000000000E+00 0.  1.
         22   -1    0    0    0    0 -0.00000000000E+00 -0.00000000000E+00 -0.43849744568E+03  0.43849744568E+03  0.00000000000E+00 0.  1.
         25    2    1    2    0    0  0.13819628564E+03  0.49200964043E+02 -0.39319999187E+03  0.43791906341E+03  0.12509166346E+03 0.  0.
         24    2    1    2    0    0  0.45594591895E+01  0.74921942477E+02  0.18637219865E+03  0.21689179076E+03  0.81690674716E+02 0.  0.
        -24    2    1    2    0    0 -0.14275574483E+03 -0.12412290652E+03  0.13647058327E+04  0.13800620767E+04  0.79772345157E+02 0.  0.
        -13    1    4    4    0    0 -0.87489076923E+01  0.84968093800E+02  0.11301504432E+03  0.14166340598E+03  0.00000000000E+00 0.  1.
         14    1    4    4    0    0  0.13308366882E+02 -0.10046151323E+02  0.73357154332E+02  0.75228384784E+02  0.00000000000E+00 0. -1.
         11    1    5    5    0    0 -0.41903215566E+02 -0.41577864091E+02  0.71383682392E+03  0.71627341807E+03  0.00000000000E+00 0. -1.
        -12    1    5    5    0    0 -0.10085252926E+03 -0.82545042429E+02  0.65086900877E+03  0.66378865859E+03  0.00000000000E+00 0.  1.
          5    1    3    3  501    0  0.12530534936E+03  0.66529405908E+02 -0.39081712166E+03  0.41579212043E+03  0.41800000000E+01 0.  1.
         -5    1    3    3    0  501  0.12890936273E+02 -0.17328441864E+02 -0.23828702157E+01  0.22126942986E+02  0.41800000000E+01 0.  1.
</event>
<event>
11    1  0.1704459E-009  0.1644004E+03  0.7561462E-02  0.1083010E+00
         22   -1    0    0    0    0  0.00000000000E+00  0.00000000000E+00  0.29018245839E+03  0.29018245839E+03  0.00000000000E+00 0.  1.
         22   -1    0    0    0    0 -0.00000000000E+00 -0.00000000000E+00 -0.33879221660E+03  0.33879221660E+03  0.00000000000E+00 0. -1.
         25    2    1    2    0    0  0.21139678774E+02  0.42446438517E+02 -0.69008248489E+02  0.15053100830E+03  0.12509540334E+03 0.  0.
         24    2    1    2    0    0  0.97326305856E+02 -0.11742998063E+03 -0.15986692988E+03  0.23657399241E+03  0.84543529919E+02 0.  0.
        -24    2    1    2    0    0 -0.11846598463E+03  0.74983542114E+02  0.18026542016E+03  0.24186967429E+03  0.79678080640E+02 0.  0.
        -13    1    4    4    0    0  0.20310800961E+01 -0.44417237158E+01  0.10165184602E+02  0.11277640441E+02  0.00000000000E+00 0.  1.
         14    1    4    4    0    0  0.95295225759E+02 -0.11298825691E+03 -0.17003211448E+03  0.22529635197E+03  0.00000000000E+00 0. -1.
         11    1    5    5    0    0 -0.83988132340E+02  0.25036428162E+02  0.15076787395E+03  0.17438973858E+03  0.00000000000E+00 0. -1.
        -12    1    5    5    0    0 -0.34477852290E+02  0.49947113952E+02  0.29497546215E+02  0.67479935709E+02  0.00000000000E+00 0.  1.
          5    1    3    3  501    0 -0.32044913547E+02  0.59031425078E+02 -0.79425473928E+01  0.67765345790E+02  0.41800000000E+01 0.  1.
         -5    1    3    3    0  501  0.53184592321E+02 -0.16584986561E+02 -0.61065701096E+02  0.82765662505E+02  0.41800000000E+01 0.  1.
</event>
<event>
11    1  0.1704459E-009  0.3537864E+03  0.7561462E-02  0.9796906E-01
         22   -1    0    0    0    0  0.00000000000E+00  0.00000000000E+00  0.47536491954E+03  0.47536491954E+03  0.00000000000E+00 0. -1.
         22   -1    0    0    0    0 -0.00000000000E+00 -0.00000000000E+00 -0.10343842147E+04  0.10343842147E+04  0.00000000000E+00 0. -1.
         25    2    1    2    0    0  0.15347499826E+02 -0.16814084375E+03 -0.69466256733E+03  0.72574785433E+03  0.12508787520E+03 0.  0.
        -24    2    1    2    0    0 -0.28496680304E+03  0.32001272509E+03  0.76246042572E+00  0.43644650930E+03  0.82889993852E+02 0.  0.
         24    2    1    2    0    0  0.26961930321E+03 -0.15187188134E+03  0.13488081174E+03  0.34755477062E+03  0.82715465305E+02 0.  0.
        -13    1    5    5    0    0  0.89015622705E+02 -0.23992136900E+02  0.81743499119E+01  0.92553896272E+02  0.00000000000E+00 0.  1.
         14    1    5    5    0    0  0.18060368050E+03 -0.12787974444E+03  0.12670646183E+03  0.25500087435E+03  0.00000000000E+00 0. -1.
         13    1    4    4    0    0 -0.36265577792E+02  0.89621240576E+02 -0.10452166631E+02  0.97244057311E+02  0.00000000000E+00 0. -1.
        -14    1    4    4    0    0 -0.24870122524E+03  0.23039148451E+03  0.11214627057E+02  0.33920245199E+03  0.00000000000E+00 0.  1.
          5    1    3    3  501    0 -0.31815067587E+02 -0.14968670458E+02 -0.26114889176E+03  0.26353837612E+03  0.41800000000E+01 0. -1.
         -5    1    3    3    0  501  0.47162567413E+02 -0.15317217329E+03 -0.43351367557E+03  0.46220947820E+03  0.41800000000E+01 0. -1.
</event>
<event>
11    1  0.1704459E-009  0.2073721E+03  0.7561462E-02  0.1049429E+00
         22   -1    0    0    0    0  0.00000000000E+00  0.00000000000E+00  0.14838419840E+03  0.14838419840E+03  0.00000000000E+00 0.  1.
         22   -1    0    0    0    0 -0.00000000000E+00 -0.00000000000E+00 -0.12278732035E+04  0.12278732035E+04  0.00000000000E+00 0. -1.
         25    2    1    2    0    0  0.15077492874E+03  0.65031068241E+02 -0.10218852045E+04  0.10425252047E+04  0.12508921694E+03 0.  0.
        -24    2    1    2    0    0 -0.13425632556E+03 -0.13339437294E+03  0.13234071189E+01  0.20642917737E+03  0.82416225203E+02 0.  0.
         24    2    1    2    0    0 -0.16518603180E+02  0.68363304694E+02 -0.58927207692E+02  0.12730301985E+03  0.88245324960E+02 0.  0.
        -11    1    5    5    0    0 -0.23703948855E+02  0.82010449497E+02 -0.23314205350E+02  0.88493746610E+02  0.00000000000E+00 0.  1.
         12    1    5    5    0    0  0.71853456745E+01 -0.13647144803E+02 -0.35613002342E+02  0.38809273242E+02  0.00000000000E+00 0. -1.
         11    1    4    4    0    0 -0.47857416052E+02 -0.34598222912E+01  0.13704504585E+02  0.49901062988E+02  0.00000000000E+00 0. -1.
        -12    1    4    4    0    0 -0.86398909511E+02 -0.12993455064E+03 -0.12381097467E+02  0.15652811438E+03  0.00000000000E+00 0.  1.
          5    1    3    3  501    0  0.83168282902E+02  0.84092041609E+02 -0.82496087072E+03  0.83340647068E+03  0.41800000000E+01 0. -1.
         -5    1    3    3    0  501  0.67606645841E+02 -0.19060973368E+02 -0.19692433377E+03  0.20911873397E+03  0.41800000000E+01 0. -1.
</event>
<event>
11    1  0.1704459E-009  0.1703625E+03  0.7561462E-02  0.1077717E+00
         22   -1    0    0    0    0  0.00000000000E+00  0.00000000000E+00  0.59089906321E+03  0.59089906321E+03  0.00000000000E+00 0. -1.
         22   -1    0    0    0    0 -0.00000000000E+00 -0.00000000000E+00 -0.13889355410E+03  0.13889355410E+03  0.00000000000E+00 0.  1.
         25    2    1    2    0    0 -0.76815123937E+02  0.55327015365E+01 -0.13018608143E+02  0.14747842362E+03  0.12509687135E+03 0.  0.
         24    2    1    2    0    0  0.94355956398E+02 -0.14362124567E+03  0.24699206944E+03  0.31130822465E+03  0.79860000316E+02 0.  0.
        -24    2    1    2    0    0 -0.17540832461E+02  0.13808854413E+03  0.21803204781E+03  0.27100596904E+03  0.80809247981E+02 0.  0.
        -11    1    4    4    0    0  0.58093968617E+02 -0.14125156503E+03  0.19098382065E+03  0.24454392972E+03  0.00000000000E+00 0.  1.
         12    1    4    4    0    0  0.36261987781E+02 -0.23696806368E+01  0.56008248794E+02  0.66764294927E+02  0.00000000000E+00 0. -1.
         11    1    5    5    0    0 -0.16075805307E+02  0.95191892650E+02  0.20426669698E+03  0.22593098822E+03  0.00000000000E+00 0. -1.
        -12    1    5    5    0    0 -0.14650271541E+01  0.42896651481E+02  0.13765350837E+02  0.45074980826E+02  0.00000000000E+00 0.  1.
          5    1    3    3  501    0  0.14202916177E+02  0.37369897301E+01 -0.47612930610E+02  0.50001514791E+02  0.41800000000E+01 0. -1.
         -5    1    3    3    0  501 -0.91018040114E+02  0.17957118064E+01  0.34594322467E+02  0.97476908824E+02  0.41800000000E+01 0. -1.
</event>
<event>
11    1  0.1704459E-009  0.1989382E+03  0.7561462E-02  0.1055277E+00
         22   -1    0    0    0    0  0.00000000000E+00  0.00000000000E+00  0.60718337891E+03  0.60718337891E+03  0.00000000000E+00 0. -1.
         22   -1    0    0    0    0 -0.00000000000E+00 -0.00000000000E+00 -0.22664559386E+03  0.22664559386E+03  0.00000000000E+00 0. -1.
         25    2    1    2    0    0 -0.31325368820E+02 -0.48811350491E+02 -0.79780721823E+02  0.15929136554E+03  0.12507977012E+03 0.  0.
        -24    2    1    2    0    0 -0.14119955429E+03 -0.34001209111E+02 -0.50395536097E+01  0.16472343684E+03  0.77556541894E+02 0.  0.
         24    2    1    2    0    0  0.17252492311E+03  0.82812559602E+02  0.46535806049E+03  0.50981417039E+03  0.82034107223E+02 0.  0.
        -13    1    5    5    0    0  0.40869289958E+01  0.29581366872E+02  0.46923200008E+02  0.55619663373E+02  0.00000000000E+00 0.  1.
         14    1    5    5    0    0  0.16843799412E+03  0.53231192730E+02  0.41843486048E+03  0.45419450702E+03  0.00000000000E+00 0. -1.
         13    1    4    4    0    0 -0.10193878686E+03  0.83104505212E+00 -0.30474793803E+02  0.10639981184E+03  0.00000000000E+00 0. -1.
        -14    1    4    4    0    0 -0.39260767435E+02 -0.34832254163E+02  0.25435240194E+02  0.58323625002E+02  0.00000000000E+00 0.  1.
          5    1    3    3  501    0  0.67063400462E+01  0.29887690234E+02 -0.63019528486E+02  0.70193891436E+02  0.41800000000E+01 0.  1.
         -5    1    3    3    0  501 -0.38031708866E+02 -0.78699040725E+02 -0.16761193337E+02  0.89097474108E+02  0.41800000000E+01 0.  1.
</event>
<event>
11    1  0.1704459E-009  0.4108543E+03  0.7561462E-02  0.9618264E-01
         22   -1    0    0    0    0  0.00000000000E+00  0.00000000000E+00  0.47739511062E+03  0.47739511062E+03  0.00000000000E+00 0.  1.
         22   -1    0    0    0    0 -0.00000000000E+00 -0.00000000000E+00 -0.16298411196E+04  0.16298411196E+04  0.00000000000E+00 0.  1.
         25    2    1    2    0    0  0.36382119219E+03 -0.87159420707E+02 -0.82656089288E+03  0.91586711605E+03  0.12508812936E+03 0.  0.
        -24    2    1    2    0    0 -0.40584389488E+03  0.81392011830E+02 -0.69472573342E+03  0.81091417533E+03  0.60033561226E+02 0.  0.
         24    2    1    2    0    0  0.42022702682E+02  0.57674088772E+01  0.36884061737E+03  0.38045493880E+03  0.83086634831E+02 0.  0.
        -13    1    5    5    0    0 -0.10101472890E+01 -0.34393387403E+02  0.13963800918E+03  0.14381480836E+03  0.00000000000E+00 0.  1.
         14    1    5    5    0    0  0.43032849971E+02  0.40160796280E+02  0.22920260819E+03  0.23664013044E+03  0.00000000000E+00 0. -1.
         13    1    4    4    0    0 -0.78817074767E+01  0.97214289518E+01 -0.34494517076E+02  0.36694675390E+02  0.00000000000E+00 0. -1.
        -14    1    4    4    0    0 -0.39796218740E+03  0.71670582878E+02 -0.66023121634E+03  0.77421949994E+03  0.00000000000E+00 0.  1.
          5    1    3    3  501    0  0.25064687454E+03 -0.16784783321E+02 -0.63097397040E+03  0.67915477498E+03  0.41800000000E+01 0.  1.
         -5    1    3    3    0  501  0.11317431765E+03 -0.70374637386E+02 -0.19558692249E+03  0.23671234106E+03  0.41800000000E+01 0.  1.
</event>
<event>
11    1  0.1839827E-009  0.5630021E+03  0.7561462E-02  0.9262808E-01
         22   -1    0    0    0    0  0.00000000000E+00  0.00000000000E+00  0.79107455453E+03  0.79107455453E+03  0.00000000000E+00 0.  1.
         22   -1    0    0    0    0 -0.00000000000E+00 -0.00000000000E+00 -0.14460597088E+04  0.14460597088E+04  0.00000000000E+00 0.  1.
         25    2    1    2    0    0 -0.51616036650E+03 -0.22597789194E+03 -0.12123570379E+04  0.13427375473E+04  0.12508797668E+03 0.  0.
        -24    2    1    2    0    0  0.18910670989E+03 -0.63049487560E+02  0.49275758573E+02  0.21982804353E+03  0.78483646291E+02 0.  0.
         24    2    1    2    0    0  0.32705365662E+03  0.28902737950E+03  0.50809612506E+03  0.67456867253E+03  0.79876787945E+02 0.  0.
        -11    1    5    5    0    0  0.65055808898E+02  0.84980487931E+02  0.16831508224E+03  0.19945903968E+03  0.00000000000E+00 0.  1.
         12    1    5    5    0    0  0.26199784772E+03  0.20404689157E+03  0.33978104282E+03  0.47510963285E+03  0.00000000000E+00 0. -1.
         11    1    4    4    0    0  0.16068033055E+03 -0.75534973199E+02  0.59319475053E+02  0.18719642337E+03  0.00000000000E+00 0. -1.
        -12    1    4    4    0    0  0.28426379337E+02  0.12485485638E+02 -0.10043716480E+02  0.32631620165E+02  0.00000000000E+00 0.  1.
          5    1    3    3  501    0 -0.72055880019E+02  0.42955970396E+01 -0.10352384093E+03  0.12627414637E+03  0.41800000000E+01 0.  1.
         -5    1    3    3    0  501 -0.44410448648E+03 -0.23027348898E+03 -0.11088331970E+04  0.12164634009E+04  0.41800000000E+01 0.  1.
</event>
<event>
11    1  0.1704459E-009  0.1692541E+03  0.7561462E-02  0.1078683E+00
         22   -1    0    0    0    0  0.00000000000E+00  0.00000000000E+00  0.37071112820E+03  0.37071112820E+03  0.00000000000E+00 0.  1.
         22   -1    0    0    0    0 -0.00000000000E+00 -0.00000000000E+00 -0.17902145847E+03  0.17902145847E+03  0.00000000000E+00 0.  1.
         25    2    1    2    0    0  0.52941672897E+02 -0.15936760570E+02 -0.20036169171E+00  0.13676129086E+03  0.12508720745E+03 0.  0.
         24    2    1    2    0    0 -0.83218506279E+02  0.15250191522E+03  0.46128309448E+02  0.19586348747E+03  0.77798013201E+02 0.  0.
        -24    2    1    2    0    0  0.30276833382E+02 -0.13656515465E+03  0.14576172197E+03  0.21710780833E+03  0.79514732869E+02 0.  0.
        -11    1    4    4    0    0 -0.79192099815E+02  0.11025482990E+03  0.63675628977E+02  0.14994032785E+03  0.00000000000E+00 0.  1.
         12    1    4    4    0    0 -0.40264064640E+01  0.42247085316E+02 -0.17547319529E+02  0.45923159619E+02  0.00000000000E+00 0. -1.
         11    1    5    5    0    0  0.16851184261E+02  0.55905903294E+01  0.20933662538E+02  0.27448776630E+02  0.00000000000E+00 0. -1.
        -12    1    5    5    0    0  0.13425649120E+02 -0.14215574498E+03  0.12482805944E+03  0.18965903170E+03  0.00000000000E+00 0.  1.
          5    1    3    3  501    0 -0.18484041731E+02  0.35955838869E+02  0.21173053122E+02  0.45828514334E+02  0.41800000000E+01 0. -1.
         -5    1    3    3    0  501  0.71425714628E+02 -0.51892599439E+02 -0.21373414813E+02  0.90932776530E+02  0.41800000000E+01 0. -1.
</event>
<event>
11    1  0.1704459E-009  0.2599800E+03  0.7561462E-02  0.1018713E+00
         22   -1    0    0    0    0  0.00000000000E+00  0.00000000000E+00  0.19896710882E+04  0.19896710882E+04  0.00000000000E+00 0.  1.
         22   -1    0    0    0    0 -0.00000000000E+00 -0.00000000000E+00 -0.90010389081E+02  0.90010389081E+02  0.00000000000E+00 0.  1.
         25    2    1    2    0    0  0.26050110483E+02 -0.24856879053E+03  0.26259210523E+03  0.38349373501E+03  0.12509108353E+03 0.  0.
        -24    2    1    2    0    0  0.11426710689E+03  0.18551712214E+03  0.59053261502E+03  0.63522469768E+03  0.85487266972E+02 0.  0.
         24    2    1    2    0    0 -0.14031721738E+03  0.63051668386E+02  0.10465359789E+04  0.10609630446E+04  0.82101111790E+02 0.  0.
        -13    1    5    5    0    0 -0.11335338995E+03  0.89248858650E+01  0.70672330502E+03  0.71581175910E+03  0.00000000000E+00 0.  1.
         14    1    5    5    0    0 -0.26963827422E+02  0.54126782521E+02  0.33981267384E+03  0.34515128549E+03  0.00000000000E+00 0. -1.
         11    1    4    4    0    0  0.56518157706E+02  0.98794013241E+02  0.19110347747E+03  0.22242998517E+03  0.00000000000E+00 0. -1.
        -12    1    4    4    0    0  0.57748949187E+02  0.86723108899E+02  0.39942913755E+03  0.41279471251E+03  0.00000000000E+00 0.  1.
          5    1    3    3  501    0  0.20565664989E+02 -0.24767735681E+03  0.27411734173E+03  0.37003352428E+03  0.41800000000E+01 0. -1.
         -5    1    3    3    0  501  0.54844454938E+01 -0.89143371727E+00 -0.11525236499E+02  0.13460210727E+02  0.41800000000E+01 0. -1.
</event>
<event>
11    1  0.1704459E-009  0.3715662E+03  0.7561462E-02  0.9737591E-01
         22   -1    0    0    0    0  0.00000000000E+00  0.00000000000E+00  0.18619818527E+04  0.18619818527E+04  0.00000000000E+00 0.  1.
         22   -1    0    0    0    0 -0.00000000000E+00 -0.00000000000E+00 -0.80178119387E+03  0.80178119387E+03  0.00000000000E+00 0.  1.
         25    2    1    2    0    0 -0.15200006891E+03 -0.30324050060E+03 -0.34199659846E+03  0.49766279703E+03  0.12509102299E+03 0.  0.
        -24    2    1    2    0    0  0.64741205923E+02  0.36538519251E+03 -0.28431868922E+03  0.47430237586E+03  0.80173961232E+02 0.  0.
         24    2    1    2    0    0  0.87258862985E+02 -0.62144691909E+02  0.16865159465E+04  0.16917978737E+04  0.79799346410E+02 0.  0.
        -13    1    5    5    0    0  0.27001044876E+02  0.12258063859E+01  0.90522729858E+03  0.90563073110E+03  0.00000000000E+00 0.  1.
         14    1    5    5    0    0  0.60257818109E+02 -0.63370498294E+02  0.78128864793E+03  0.78616714259E+03  0.00000000000E+00 0. -1.
         13    1    4    4    0    0  0.24485416902E+02  0.16531178206E+03 -0.17811693002E+03  0.24423996743E+03  0.00000000000E+00 0. -1.
        -14    1    4    4    0    0  0.40255789021E+02  0.20007341044E+03 -0.10620175920E+03  0.23006240843E+03  0.00000000000E+00 0.  1.
          5    1    3    3  501    0 -0.19705468299E+02 -0.12842899262E+03 -0.19248632047E+03  0.23227304535E+03  0.41800000000E+01 0. -1.
         -5    1    3    3    0  501 -0.13229460061E+03 -0.17481150798E+03 -0.14951027799E+03  0.26538975168E+03  0.41800000000E+01 0. -1.
</event>
<event>
11    1  0.1704459E-009  0.1439794E+03  0.7561462E-02  0.1103194E+00
         22   -1    0    0    0    0  0.00000000000E+00  0.00000000000E+00  0.63569363038E+02  0.63569363038E+02  0.00000000000E+00 0.  1.
         22   -1    0    0    0    0 -0.00000000000E+00 -0.00000000000E+00 -0.84181557425E+03  0.84181557425E+03  0.00000000000E+00 0. -1.
         25    2    1    2    0    0  0.98037495981E+00 -0.63396912214E+02 -0.58766934091E+03  0.60417136570E+03  0.12509058830E+03 0.  0.
        -24    2    1    2    0    0  0.19118792403E+02  0.93411807235E+02 -0.16122893317E+03  0.20848053090E+03  0.91531791844E+02 0.  0.
         24    2    1    2    0    0 -0.20099167363E+02 -0.30014895021E+02 -0.29347937134E+02  0.92733040686E+02  0.80207511923E+02 0.  0.
        -13    1    5    5    0    0  0.56708641493E+01  0.24352300312E+02  0.16375699014E+01  0.25057431351E+02  0.00000000000E+00 0.  1.
         14    1    5    5    0    0 -0.25770031512E+02 -0.54367195334E+02 -0.30985507036E+02  0.67675609335E+02  0.00000000000E+00 0. -1.
         11    1    4    4    0    0 -0.32142270532E+02  0.44743070923E+02 -0.39754556061E+02  0.67937417364E+02  0.00000000000E+00 0. -1.
        -12    1    4    4    0    0  0.51261062935E+02  0.48668736312E+02 -0.12147437711E+03  0.14054311353E+03  0.00000000000E+00 0.  1.
          5    1    3    3  501    0 -0.43015083899E+02  0.45855320933E+01 -0.90048079351E+02  0.99987266900E+02  0.41800000000E+01 0. -1.
         -5    1    3    3    0  501  0.43995458858E+02 -0.67982444307E+02 -0.49762126156E+03  0.50418409880E+03  0.41800000000E+01 0. -1.
</event>
<event>
11    1  0.1704459E-009  0.6787131E+03  0.7561462E-02  0.9064276E-01
         22   -1    0    0    0    0  0.00000000000E+00  0.00000000000E+00  0.11044884391E+04  0.11044884391E+04  0.00000000000E+00 0. -1.
         22   -1    0    0    0    0 -0.00000000000E+00 -0.00000000000E+00 -0.77033325758E+03  0.77033325758E+03  0.00000000000E+00 0. -1.
         25    2    1    2    0    0  0.61356499916E+03  0.19370179519E+03 -0.30330365244E+03  0.72223535255E+03  0.12509358592E+03 0.  0.
        -24    2    1    2    0    0 -0.75405616136E+03 -0.10986225541E+03  0.58416803934E+03  0.96352395595E+03  0.80347407248E+02 0.  0.
         24    2    1    2    0    0  0.14049116219E+03 -0.83839539779E+02  0.53290794584E+02  0.18906238814E+03  0.78344385483E+02 0.  0.
        -11    1    5    5    0    0  0.13376872894E+03 -0.86557879525E+02  0.67555120058E+02  0.17306078006E+03  0.00000000000E+00 0.  1.
         12    1    5    5    0    0  0.67224332545E+01  0.27183397460E+01 -0.14264325473E+02  0.16001608077E+02  0.00000000000E+00 0. -1.
         11    1    4    4    0    0 -0.52779891223E+03 -0.98568646076E+02  0.44744740632E+03  0.69892535450E+03  0.00000000000E+00 0. -1.
        -12    1    4    4    0    0 -0.22625724912E+03 -0.11293609331E+02  0.13672063303E+03  0.26459860145E+03  0.00000000000E+00 0.  1.
          5    1    3    3  501    0  0.52844354801E+03  0.20369302714E+03 -0.23767429230E+03  0.61420678469E+03  0.41800000000E+01 0.  1.
         -5    1    3    3    0  501  0.85121451153E+02 -0.99912319558E+01 -0.65629360138E+02  0.10802856786E+03  0.41800000000E+01 0.  1.
</event>
<event>
11    1  0.1704459E-009  0.1468844E+03  0.7561462E-02  0.1100105E+00
         22   -1    0    0    0    0  0.00000000000E+00  0.00000000000E+00  0.67369431483E+03  0.67369431483E+03  0.00000000000E+00 0.  1.
         22   -1    0    0    0    0 -0.00000000000E+00 -0.00000000000E+00 -0.60517210613E+02  0.60517210613E+02  0.00000000000E+00 0. -1.
         25    2    1    2    0    0 -0.29765678306E+01  0.71306809280E+02  0.14938886644E+03  0.20750412399E+03  0.12508959610E+03 0.  0.
         24    2    1    2    0    0 -0.80314226282E+02 -0.69775849256E+02  0.24873217857E+03  0.28229981409E+03  0.80662533414E+02 0.  0.
        -24    2    1    2    0    0  0.83290794112E+02 -0.15309600239E+01  0.21505605922E+03  0.24440758737E+03  0.80908960778E+02 0.  0.
        -11    1    4    4    0    0 -0.57391739806E+02 -0.81615842492E+02  0.22908853183E+03  0.24987299366E+03  0.00000000000E+00 0.  1.
         12    1    4    4    0    0 -0.22922486476E+02  0.11839993236E+02  0.19643646737E+02  0.32426820430E+02  0.00000000000E+00 0. -1.
         11    1    5    5    0    0  0.33633548119E+02  0.39380976823E+02  0.96204274714E+02  0.10925813182E+03  0.00000000000E+00 0. -1.
        -12    1    5    5    0    0  0.49657245993E+02 -0.40911936847E+02  0.11885178450E+03  0.13514945555E+03  0.00000000000E+00 0.  1.
          5    1    3    3  501    0  0.17624369196E+01  0.10590479648E+03  0.92838740599E+02  0.14090931927E+03  0.41800000000E+01 0.  1.
         -5    1    3    3    0  501 -0.47390047502E+01 -0.34597987196E+02  0.56550125838E+02  0.66594804725E+02  0.41800000000E+01 0.  1.
</event>
<event>
11    1  0.1704459E-009  0.1955159E+03  0.7561462E-02  0.1057741E+00
         22   -1    0    0    0    0  0.00000000000E+00  0.00000000000E+00  0.22122803596E+04  0.22122803596E+04  0.00000000000E+00 0. -1.
         22   -1    0    0    0    0 -0.00000000000E+00 -0.00000000000E+00 -0.40084226502E+02  0.40084226502E+02  0.00000000000E+00 0. -1.
         25    2    1    2    0    0  0.15530740246E+03  0.30855581009E+01  0.28966396460E+03  0.35168640731E+03  0.12509279265E+03 0.  0.
        -24    2    1    2    0    0 -0.12547786894E+03 -0.33180903088E+02  0.14862252619E+04  0.14939730521E+04  0.79020776842E+02 0.  0.
         24    2    1    2    0    0 -0.29829533517E+02  0.30095344987E+02  0.39630690657E+03  0.40670512673E+03  0.80959033155E+02 0.  0.
        -13    1    5    5    0    0  0.80666181960E+01 -0.52033290937E+01  0.27030230335E+03  0.27047269763E+03  0.00000000000E+00 0.  1.
         14    1    5    5    0    0 -0.37896151713E+02  0.35298674081E+02  0.12600460322E+03  0.13623242910E+03  0.00000000000E+00 0. -1.
         11    1    4    4    0    0 -0.65895457153E+02  0.23203459458E+02  0.66263617615E+03  0.66630872255E+03  0.00000000000E+00 0. -1.
        -12    1    4    4    0    0 -0.59582411792E+02 -0.56384362546E+02  0.82358908580E+03  0.82766432954E+03  0.00000000000E+00 0.  1.
          5    1    3    3  501    0  0.13340242571E+03  0.27438818880E+02  0.12890628635E+03  0.18757238344E+03  0.41800000000E+01 0. -1.
         -5    1    3    3    0  501  0.21904976747E+02 -0.24353260779E+02  0.16075767825E+03  0.16411402387E+03  0.41800000000E+01 0. -1.
</event>
<event>
11    1  0.1704459E-009  0.1600923E+03  0.7561462E-02  0.1086991E+00
         22   -1    0    0    0    0  0.00000000000E+00  0.00000000000E+00  0.24835149824E+04  0.24835149824E+04  0.00000000000E+00 0. -1.
         22   -1    0    0    0    0 -0.00000000000E+00 -0.00000000000E+00 -0.49184515618E+03  0.49184515618E+03  0.00000000000E+00 0. -1.
         25    2    1    2    0    0  0.57122820368E+02  0.34002423950E+02 -0.38724992958E+03  0.41234681821E+03  0.12509280190E+03 0.  0.
         24    2    1    2    0    0 -0.43070930658E+02  0.65160378844E+02 -0.55407906278E+02  0.12529184151E+03  0.80790033004E+02 0.  0.
        -24    2    1    2    0    0 -0.14051889711E+02 -0.99162802794E+02  0.24343276621E+04  0.24377214789E+04  0.80648155853E+02 0.  0.
        -13    1    4    4    0    0 -0.66063548011E+02  0.36877231353E+02 -0.33316184124E+02  0.82669768916E+02  0.00000000000E+00 0.  1.
         14    1    4    4    0    0  0.22992617353E+02  0.28283147492E+02 -0.22091722154E+02  0.42622072597E+02  0.00000000000E+00 0. -1.
         11    1    5    5    0    0 -0.17479898794E+01 -0.95484380506E+02  0.23792750131E+04  0.23811908597E+04  0.00000000000E+00 0. -1.
        -12    1    5    5    0    0 -0.12303899831E+02 -0.36784222889E+01  0.55052648974E+02  0.56530619142E+02  0.00000000000E+00 0.  1.
          5    1    3    3  501    0  0.30603536542E+02  0.72554216466E+02 -0.14006230854E+03  0.16073460564E+03  0.41800000000E+01 0.  1.
         -5    1    3    3    0  501  0.26519283826E+02 -0.38551792516E+02 -0.24718762104E+03  0.25161221257E+03  0.41800000000E+01 0.  1.
</event>
<event>
11    1  0.1704459E-009  0.3264117E+03  0.7561462E-02  0.9895940E-01
         22   -1    0    0    0    0  0.00000000000E+00  0.00000000000E+00  0.15410175114E+04  0.15410175114E+04  0.00000000000E+00 0.  1.
         22   -1    0    0    0    0 -0.00000000000E+00 -0.00000000000E+00 -0.19477782235E+03  0.19477782235E+03  0.00000000000E+00 0. -1.
         25    2    1    2    0    0  0.23712376839E+03 -0.32017578359E+02  0.24241387294E+03  0.36285690613E+03  0.12509133333E+03 0.  0.
         24    2    1    2    0    0 -0.36051532560E+03 -0.11259300483E+03  0.17942431084E+03  0.42639940550E+03  0.83515776731E+02 0.  0.
        -24    2    1    2    0    0  0.12339155721E+03  0.14461058319E+03  0.92440150526E+03  0.94653902210E+03  0.72665537123E+02 0.  0.
        -11    1    4    4    0    0 -0.14142702597E+03 -0.46652457432E+02  0.11658621176E+03  0.18913064329E+03  0.00000000000E+00 0.  1.
         12    1    4    4    0    0 -0.21908829962E+03 -0.65940547398E+02  0.62838099080E+02  0.23726876221E+03  0.00000000000E+00 0. -1.
         13    1    5    5    0    0  0.40422719914E+02  0.81617251383E+01  0.13548456386E+03  0.14162159824E+03  0.00000000000E+00 0. -1.
        -14    1    5    5    0    0  0.82968837292E+02  0.13644885805E+03  0.78891694139E+03  0.80491742386E+03  0.00000000000E+00 0.  1.
          5    1    3    3  501    0  0.21769616499E+03 -0.34520228494E+01  0.15086437039E+03  0.26491709527E+03  0.41800000000E+01 0. -1.
         -5    1    3    3    0  501  0.19427603406E+02 -0.28565555510E+02  0.91549502546E+02  0.97939810864E+02  0.41800000000E+01 0. -1.
</event>
<event>
11    1  0.1704459E-009  0.1493228E+03  0.7561462E-02  0.1097573E+00
         22   -1    0    0    0    0  0.00000000000E+00  0.00000000000E+00  0.24626295636E+03  0.24626295636E+03  0.00000000000E+00 0. -1.
         22   -1    0    0    0    0 -0.00000000000E+00 -0.00000000000E+00 -0.14009287845E+03  0.14009287845E+03  0.00000000000E+00 0.  1.
         25    2    1    2    0    0 -0.57722070808E+02 -0.34780552533E+02 -0.86510992901E+01  0.14234461800E+03  0.12508247064E+03 0.  0.
        -24    2    1    2    0    0 -0.28171644569E+02  0.16650059405E+02  0.12936164681E+02  0.87113638776E+02  0.79690499234E+02 0.  0.
         24    2    1    2    0    0  0.85893715378E+02  0.18130493127E+02  0.10188501252E+03  0.15689757804E+03  0.80807481686E+02 0.  0.
        -11    1    5    5    0    0  0.97188693179E+02  0.39757165246E+01  0.98579164624E+02  0.13848935014E+03  0.00000000000E+00 0.  1.
         12    1    5    5    0    0 -0.11294977802E+02  0.14154776603E+02  0.33058478971E+01  0.18408227903E+02  0.00000000000E+00 0. -1.
         13    1    4    4    0    0 -0.11141531929E+02  0.26780606405E+01  0.45987828716E+02  0.47393946159E+02  0.00000000000E+00 0. -1.
        -14    1    4    4    0    0 -0.17030112640E+02  0.13971998765E+02 -0.33051664036E+02  0.39719692616E+02  0.00000000000E+00 0.  1.
          5    1    3    3  501    0  0.17569397430E+02  0.81464958529E+01  0.38713876319E+02  0.43488915144E+02  0.41800000000E+01 0. -1.
         -5    1    3    3    0  501 -0.75291468238E+02 -0.42927048385E+02 -0.47364975609E+02  0.98855702855E+02  0.41800000000E+01 0. -1.
</event>
<event>
11    1  0.1704459E-009  0.1663515E+03  0.7561462E-02  0.1081251E+00
         22   -1    0    0    0    0  0.00000000000E+00  0.00000000000E+00  0.58869008267E+03  0.58869008267E+03  0.00000000000E+00 0.  1.
         22   -1    0    0    0    0 -0.00000000000E+00 -0.00000000000E+00 -0.94588027973E+03  0.94588027973E+03  0.00000000000E+00 0.  1.
         25    2    1    2    0    0  0.22473163769E+02 -0.10071232106E+03 -0.33356357416E+03  0.37089091009E+03  0.12508954584E+03 0.  0.
         24    2    1    2    0    0 -0.40808184965E+02  0.10517855898E+03 -0.58251411920E+03  0.59863795546E+03  0.79478710495E+02 0.  0.
        -24    2    1    2    0    0  0.18335021196E+02 -0.44662379172E+01  0.55888749630E+03  0.56504149685E+03  0.80997156463E+02 0.  0.
        -11    1    4    4    0    0 -0.88422248111E+01  0.81000737818E+02 -0.50338791105E+03  0.50993989201E+03  0.00000000000E+00 0.  1.
         12    1    4    4    0    0 -0.31965960154E+02  0.24177821158E+02 -0.79126208149E+02  0.88698063454E+02  0.00000000000E+00 0. -1.
         11    1    5    5    0    0 -0.57243407477E+01  0.35238789749E+02  0.28802754454E+03  0.29023164333E+03  0.00000000000E+00 0. -1.
        -12    1    5    5    0    0  0.24059361944E+02 -0.39705027666E+02  0.27085995176E+03  0.27480985352E+03  0.00000000000E+00 0.  1.
          5    1    3    3  501    0 -0.10470734619E+02 -0.10905120039E+03 -0.31132307818E+03  0.33006261830E+03  0.41800000000E+01 0. -1.
         -5    1    3    3    0  501  0.32943898388E+02  0.83388793295E+01 -0.22240495985E+02  0.40828291798E+02  0.41800000000E+01 0. -1.
</event>
<event>
11    1  0.1704459E-009  0.8022770E+03  0.7561462E-02  0.8893823E-01
         22   -1    0    0    0    0  0.00000000000E+00  0.00000000000E+00  0.99509769336E+02  0.99509769336E+02  0.00000000000E+00 0. -1.
         22   -1    0    0    0    0 -0.00000000000E+00 -0.00000000000E+00 -0.16170483073E+04  0.16170483073E+04  0.00000000000E+00 0. -1.
         25    2    1    2    0    0 -0.12488486684E+03 -0.29747448241E+03 -0.11100705657E+04  0.11627514948E+04  0.12508828941E+03 0.  0.
        -24    2    1    2    0    0  0.11281464280E+03  0.22808721619E+03 -0.26871281973E+03  0.37799129048E+03  0.76940979805E+02 0.  0.
         24    2    1    2    0    0  0.12070224035E+02  0.69387266222E+02 -0.13875515251E+03  0.17581529134E+03  0.81839729352E+02 0.  0.
        -13    1    5    5    0    0  0.45172167825E+02  0.46650404598E+02 -0.65254557777E+02  0.92059449846E+02  0.00000000000E+00 0.  1.
         14    1    5    5    0    0 -0.33101943789E+02  0.22736861624E+02 -0.73500594732E+02  0.83755841499E+02  0.00000000000E+00 0. -1.
         11    1    4    4    0    0  0.71492686919E+02  0.13875779745E+03 -0.10898856438E+03  0.19037709369E+03  0.00000000000E+00 0. -1.
        -12    1    4    4    0    0  0.41321955885E+02  0.89329418735E+02 -0.15972425535E+03  0.18761419679E+03  0.00000000000E+00 0.  1.
          5    1    3    3  501    0 -0.48033442956E+02 -0.23758980697E+03 -0.88189814242E+03  0.91461354354E+03  0.41800000000E+01 0. -1.
         -5    1    3    3    0  501 -0.76851423883E+02 -0.59884675437E+02 -0.22817242330E+03  0.24813795127E+03  0.41800000000E+01 0. -1.
</event>
<event>
11    1  0.1704459E-009  0.9982748E+03  0.7561462E-02  0.8680657E-01
         22   -1    0    0    0    0  0.00000000000E+00  0.00000000000E+00  0.15956464333E+04  0.15956464333E+04  0.00000000000E+00 0. -1.
         22   -1    0    0    0    0 -0.00000000000E+00 -0.00000000000E+00 -0.15613617374E+03  0.15613617374E+03  0.00000000000E+00 0. -1.
         25    2    1    2    0    0 -0.17479065378E+03  0.35344389992E+03  0.26591541654E+03  0.49176513408E+03  0.12509026862E+03 0.  0.
         24    2    1    2    0    0  0.15634253711E+03 -0.19690643993E+03  0.86404472879E+03  0.90338228517E+03  0.79442588157E+02 0.  0.
        -24    2    1    2    0    0  0.18448116671E+02 -0.15653745999E+03  0.30955011423E+03  0.35663518779E+03  0.80765553070E+02 0.  0.
        -13    1    4    4    0    0  0.31504169601E+02 -0.51899236387E+02  0.34264158060E+03  0.34797887320E+03  0.00000000000E+00 0.  1.
         14    1    4    4    0    0  0.12483836751E+03 -0.14500720355E+03  0.52140314819E+03  0.55540341197E+03  0.00000000000E+00 0. -1.
         11    1    5    5    0    0  0.10212223269E+02 -0.16415559721E+03  0.29891394454E+03  0.34117575505E+03  0.00000000000E+00 0. -1.
        -12    1    5    5    0    0  0.82358934023E+01  0.76181372177E+01  0.10636169691E+02  0.15459432735E+02  0.00000000000E+00 0.  1.
          5    1    3    3  501    0 -0.13011355817E+03  0.17319461602E+03  0.85819350779E+02  0.23304151220E+03  0.41800000000E+01 0.  1.
         -5    1    3    3    0  501 -0.44677095611E+02  0.18024928390E+03  0.18009606576E+03  0.25872362189E+03  0.41800000000E+01 0.  1.
</event>
<event>
11    1  0.1704459E-009  0.2264010E+03  0.7561462E-02  0.1037280E+00
         22   -1    0    0    0    0  0.00000000000E+00  0.00000000000E+00  0.91798120901E+03  0.91798120901E+03  0.00000000000E+00 0.  1.
         22   -1    0    0    0    0 -0.00000000000E+00 -0.00000000000E+00 -0.10475771142E+04  0.10475771142E+04  0.00000000000E+00 0. -1.
         25    2    1    2    0    0  0.10242980824E+03 -0.19934225968E+03 -0.70049719763E+03  0.74603812256E+03  0.12508938532E+03 0.  0.
         24    2    1    2    0    0 -0.91690087229E+02  0.12297947116E+03 -0.29728949605E+03  0.34433008481E+03  0.81554524240E+02 0.  0.
        -24    2    1    2    0    0 -0.10739721015E+02  0.76362788524E+02  0.86819078851E+03  0.87519011581E+03  0.79094098888E+02 0.  0.
        -11    1    4    4    0    0 -0.28200616189E+02  0.96633994605E+02 -0.13774706241E+03  0.17060966230E+03  0.00000000000E+00 0.  1.
         12    1    4    4    0    0 -0.63489471040E+02  0.26345476555E+02 -0.15954243363E+03  0.17372042251E+03  0.00000000000E+00 0. -1.
         13    1    5    5    0    0  0.31559249283E+02  0.38458665992E+02  0.52265528329E+03  0.52501771432E+03  0.00000000000E+00 0. -1.
        -14    1    5    5    0    0 -0.42298970298E+02  0.37904122533E+02  0.34553550522E+03  0.35017240148E+03  0.00000000000E+00 0.  1.
          5    1    3    3  501    0  0.21511936694E+01 -0.23017620130E+02 -0.86163550780E+01  0.25023038294E+02  0.41800000000E+01 0. -1.
         -5    1    3    3    0  501  0.10027861457E+03 -0.17632463955E+03 -0.69188084255E+03  0.72101508427E+03  0.41800000000E+01 0. -1.
</event>
<event>
11    1  0.1704459E-009  0.1734875E+03  0.7561462E-02  0.1075036E+00
         22   -1    0    0    0    0  0.00000000000E+00  0.00000000000E+00  0.77450272346E+03  0.77450272346E+03  0.00000000000E+00 0.  1.
         22   -1    0    0    0    0 -0.00000000000E+00 -0.00000000000E+00 -0.10183745566E+03  0.10183745566E+03  0.00000000000E+00 0. -1.
         25    2    1    2    0    0 -0.54401428092E+02 -0.49690796200E+02  0.36087326135E+02  0.14959805289E+03  0.12509433126E+03 0.  0.
         24    2    1    2    0    0 -0.68463402826E+02  0.14613984366E+03  0.25745549326E+03  0.30906204520E+03  0.56497126804E+02 0.  0.
        -24    2    1    2    0    0  0.12286483092E+03 -0.96449047465E+02  0.37912244840E+03  0.41768008104E+03  0.79527566153E+02 0.  0.
        -13    1    4    4    0    0 -0.57137259881E+02  0.12729802399E+03  0.24915060342E+03  0.28556168609E+03  0.00000000000E+00 0.  1.
         14    1    4    4    0    0 -0.11326142945E+02  0.18841819678E+02  0.83048898397E+01  0.23500359105E+02  0.00000000000E+00 0. -1.
         11    1    5    5    0    0  0.20627780076E+02 -0.63824758772E+02  0.12583071548E+03  0.14259198470E+03  0.00000000000E+00 0. -1.
        -12    1    5    5    0    0  0.10223705084E+03 -0.32624288693E+02  0.25329173292E+03  0.27508809633E+03  0.00000000000E+00 0.  1.
          5    1    3    3  501    0 -0.73470197222E+02 -0.70266175851E+02 -0.24151238236E+01  0.10177676833E+03  0.41800000000E+01 0.  1.
         -5    1    3    3    0  501  0.19068769130E+02  0.20575379650E+02  0.38502449959E+02  0.47821284557E+02  0.41800000000E+01 0.  1.
</event>
<event>
11    1  0.1704459E-009  0.2895328E+03  0.7561462E-02  0.1004721E+00
         22   -1    0    0    0    0  0.00000000000E+00  0.00000000000E+00  0.10670968399E+03  0.10670968399E+03  0.00000000000E+00 0. -1.
         22   -1    0    0    0    0 -0.00000000000E+00 -0.00000000000E+00 -0.12934459430E+04  0.12934459430E+04  0.00000000000E+00 0. -1.
         25    2    1    2    0    0 -0.17836768389E+03 -0.22647417420E+03 -0.74507965698E+03  0.80863797550E+03  0.12508436330E+03 0.  0.
         24    2    1    2    0    0  0.20454030430E+03  0.11706953756E+03 -0.33190901793E+03  0.41653061253E+03  0.88273111925E+02 0.  0.
        -24    2    1    2    0    0 -0.26172620401E+02  0.10940463664E+03 -0.10974758410E+03  0.17498703895E+03  0.76951614721E+02 0.  0.
        -11    1    4    4    0    0  0.16397967398E+03  0.12913292942E+03 -0.26441245255E+03  0.33686583680E+03  0.00000000000E+00 0.  1.
         12    1    4    4    0    0  0.40560630316E+02 -0.12063391859E+02 -0.67496565380E+02  0.79664775735E+02  0.00000000000E+00 0. -1.
         13    1    5    5    0    0 -0.44821400676E+01  0.11395464699E+03 -0.89517410397E+02  0.14497971552E+03  0.00000000000E+00 0. -1.
        -14    1    5    5    0    0 -0.21690480333E+02 -0.45500103452E+01 -0.20230173707E+02  0.30007323431E+02  0.00000000000E+00 0.  1.
          5    1    3    3  501    0 -0.15525563191E+03 -0.11096397815E+03 -0.53079398024E+03  0.56407183722E+03  0.41800000000E+01 0.  1.
         -5    1    3    3    0  501 -0.23112051987E+02 -0.11551019605E+03 -0.21428567674E+03  0.24456613828E+03  0.41800000000E+01 0.  1.
</event>
<event>
11    1  0.1720476E-009  0.4903100E+03  0.7561462E-02  0.9415438E-01
         22   -1    0    0    0    0  0.00000000000E+00  0.00000000000E+00  0.21707456764E+04  0.21707456764E+04  0.00000000000E+00 0. -1.
         22   -1    0    0    0    0 -0.00000000000E+00 -0.00000000000E+00 -0.55407597934E+03  0.55407597934E+03  0.00000000000E+00 0. -1.
         25    2    1    2    0    0  0.32057994380E+03  0.34786758950E+03 -0.38336988111E+03  0.62161352821E+03  0.12509017754E+03 0.  0.
        -24    2    1    2    0    0  0.11882176834E+02  0.13526883232E+02  0.63504629763E+02  0.10382973146E+03  0.80147441867E+02 0.  0.
         24    2    1    2    0    0 -0.33246212064E+03 -0.36139447273E+03  0.19365349484E+04  0.19993783960E+04  0.78799350442E+02 0.  0.
        -11    1    5    5    0    0 -0.28682742204E+02 -0.61723119057E+02  0.34383291122E+03  0.35050465612E+03  0.00000000000E+00 0.  1.
         12    1    5    5    0    0 -0.30377937843E+03 -0.29967135368E+03  0.15927020371E+04  0.16488737399E+04  0.00000000000E+00 0. -1.
         13    1    4    4    0    0  0.13731757820E+02 -0.29524022453E+02  0.48066586663E+02  0.58057091109E+02  0.00000000000E+00 0. -1.
        -14    1    4    4    0    0 -0.18495809853E+01  0.43050905685E+02  0.15438043101E+02  0.45772640354E+02  0.00000000000E+00 0.  1.
          5    1    3    3  501    0  0.14429568478E+03  0.18154626247E+03 -0.11142600829E+03  0.25731987445E+03  0.41800000000E+01 0.  1.
         -5    1    3    3    0  501  0.17628425902E+03  0.16632132703E+03 -0.27194387282E+03  0.36429365376E+03  0.41800000000E+01 0.  1.
</event>
<event>
11    1  0.1704459E-009  0.1310900E+03  0.7561462E-02  0.1117937E+00
         22   -1    0    0    0    0  0.00000000000E+00  0.00000000000E+00  0.77356173893E+03  0.77356173893E+03  0.00000000000E+00 0.  1.
         22   -1    0    0    0    0 -0.00000000000E+00 -0.00000000000E+00 -0.19115017280E+03  0.19115017280E+03  0.00000000000E+00 0. -1.
         25    2    1    2    0    0 -0.72100599870E+01  0.26883584041E+02 -0.89793737160E+02  0.15648335765E+03  0.12509761761E+03 0.  0.
        -24    2    1    2    0    0 -0.53295838283E+02 -0.56237126794E+02  0.10138787825E+01  0.12879621872E+03  0.10288040240E+03 0.  0.
         24    2    1    2    0    0  0.60505898270E+02  0.29353542753E+02  0.67119142451E+03  0.67943233536E+03  0.81288226717E+02 0.  0.
        -11    1    5    5    0    0  0.21013272640E+02 -0.31613926472E+01  0.50725434905E+03  0.50769924824E+03  0.00000000000E+00 0.  1.
         12    1    5    5    0    0  0.39492625629E+02  0.32514935400E+02  0.16393707546E+03  0.17173308712E+03  0.00000000000E+00 0. -1.
         11    1    4    4    0    0 -0.47104696349E+02 -0.57171146880E+02 -0.42117251062E+02  0.85212999541E+02  0.00000000000E+00 0. -1.
        -12    1    4    4    0    0 -0.61911419338E+01  0.93402008659E+00  0.43131129845E+02  0.43583219175E+02  0.00000000000E+00 0.  1.
          5    1    3    3  501    0  0.17623076242E+01 -0.43285283766E+02 -0.70818710933E+02  0.83123304416E+02  0.41800000000E+01 0. -1.
         -5    1    3    3    0  501 -0.89723676112E+01  0.70168867807E+02 -0.18975026227E+02  0.73360053232E+02  0.41800000000E+01 0. -1.
</event>
<event>
11    1  0.1704459E-009  0.1308048E+03  0.7561462E-02  0.1118284E+00
         22   -1    0    0    0    0  0.00000000000E+00  0.00000000000E+00  0.10437059463E+03  0.10437059463E+03  0.00000000000E+00 0.  1.
         22   -1    0    0    0    0 -0.00000000000E+00 -0.00000000000E+00 -0.62887595022E+03  0.62887595022E+03  0.00000000000E+00 0.  1.
         25    2    1    2    0    0 -0.21136037297E+02  0.49130137748E+02 -0.34020424666E+03  0.36639797535E+03  0.12509214359E+03 0.  0.
         24    2    1    2    0    0  0.12786378928E+02 -0.26910558139E+02 -0.24741913193E+03  0.26193501382E+03  0.80660120231E+02 0.  0.
        -24    2    1    2    0    0  0.83496583692E+01 -0.22219579609E+02  0.63118022996E+02  0.10491355568E+03  0.80371281095E+02 0.  0.
        -11    1    4    4    0    0  0.29974104690E+01 -0.50288046586E+02 -0.21479300531E+03  0.22062163817E+03  0.00000000000E+00 0.  1.
         12    1    4    4    0    0  0.97889684591E+01  0.23377488447E+02 -0.32626126622E+02  0.41313375654E+02  0.00000000000E+00 0. -1.
         13    1    5    5    0    0 -0.22330823314E+02 -0.23800955561E+02 -0.22214557769E+01  0.32712169315E+02  0.00000000000E+00 0. -1.
        -14    1    5    5    0    0  0.30680481683E+02  0.15813759523E+01  0.65339478773E+02  0.72201386362E+02  0.00000000000E+00 0.  1.
          5    1    3    3  501    0  0.15329059980E+02  0.81417845981E+02 -0.16761090082E+03  0.18701532610E+03  0.41800000000E+01 0. -1.
         -5    1    3    3    0  501 -0.36465097278E+02 -0.32287708233E+02 -0.17259334584E+03  0.17938264925E+03  0.41800000000E+01 0. -1.
</event>
<event>
11    1  0.1704459E-009  0.4538279E+03  0.7561462E-02  0.9503058E-01
         22   -1    0    0    0    0  0.00000000000E+00  0.00000000000E+00  0.12177063022E+04  0.12177063022E+04  0.00000000000E+00 0.  1.
         22   -1    0    0    0    0 -0.00000000000E+00 -0.00000000000E+00 -0.40380936929E+03  0.40380936929E+03  0.00000000000E+00 0.  1.
         25    2    1    2    0    0 -0.35887288934E+03 -0.14875777571E+03  0.17362626191E+03  0.44352079239E+03  0.12508392348E+03 0.  0.
         24    2    1    2    0    0  0.22203549482E+03  0.52487719247E+03  0.42313012741E+03  0.71549889759E+03  0.90020773111E+02 0.  0.
        -24    2    1    2    0    0  0.13683739452E+03 -0.37611941675E+03  0.21714054354E+03  0.46249598147E+03  0.81007586274E+02 0.  0.
        -11    1    4    4    0    0  0.11098467183E+03  0.34957354227E+03  0.30283957549E+03  0.47563753776E+03  0.00000000000E+00 0.  1.
         12    1    4    4    0    0  0.11105082299E+03  0.17530365019E+03  0.12029055192E+03  0.23986135983E+03  0.00000000000E+00 0. -1.
         11    1    5    5    0    0  0.50756733806E+02 -0.21818113361E+03  0.86242455556E+02  0.24003544370E+03  0.00000000000E+00 0. -1.
        -12    1    5    5    0    0  0.86080660711E+02 -0.15793828314E+03  0.13089808798E+03  0.22246053778E+03  0.00000000000E+00 0.  1.
          5    1    3    3  501    0 -0.29669956680E+03 -0.10883270637E+03  0.18854637185E+03  0.36802499596E+03  0.41800000000E+01 0. -1.
         -5    1    3    3    0  501 -0.62173322540E+02 -0.39925069337E+02 -0.14920109933E+02  0.75495796423E+02  0.41800000000E+01 0. -1.
</event>
<event>
11    1  0.1704459E-009  0.5411236E+03  0.7561462E-02  0.9306050E-01
         22   -1    0    0    0    0  0.00000000000E+00  0.00000000000E+00  0.11717783527E+04  0.11717783527E+04  0.00000000000E+00 0. -1.
         22   -1    0    0    0    0 -0.00000000000E+00 -0.00000000000E+00 -0.69849803324E+03  0.69849803324E+03  0.00000000000E+00 0.  1.
         25    2    1    2    0    0  0.15795537148E+03  0.48078572051E+03 -0.49147833984E+02  0.52361173139E+03  0.12509567236E+03 0.  0.
         24    2    1    2    0    0 -0.23524967047E+03 -0.49090208702E+03 -0.22214002270E+03  0.59368967040E+03  0.82425533410E+02 0.  0.
        -24    2    1    2    0    0  0.77294298989E+02  0.10116366516E+02  0.74456817612E+03  0.75297498412E+03  0.80701972043E+02 0.  0.
        -11    1    4    4    0    0 -0.93073517974E+01 -0.88432325702E+02 -0.39858431835E+02  0.97445357072E+02  0.00000000000E+00 0.  1.
         12    1    4    4    0    0 -0.22594231867E+03 -0.40246976132E+03 -0.18228159087E+03  0.49624431333E+03  0.00000000000E+00 0. -1.
         11    1    5    5    0    0  0.53872931659E+02  0.59572170744E+01  0.70296339519E+03  0.70504986787E+03  0.00000000000E+00 0. -1.
        -12    1    5    5    0    0  0.23421367330E+02  0.41591494415E+01  0.41604780929E+02  0.47925116253E+02  0.00000000000E+00 0.  1.
          5    1    3    3  501    0  0.31330039848E+02  0.28345536742E+03 -0.47272561123E+02  0.28910324133E+03  0.41800000000E+01 0. -1.
         -5    1    3    3    0  501  0.12662533163E+03  0.19733035309E+03 -0.18752728609E+01  0.23450849006E+03  0.41800000000E+01 0. -1.
</event>
<event>
11    1  0.1704459E-009  0.1275819E+04  0.7561462E-02  0.8453452E-01
         22   -1    0    0    0    0  0.00000000000E+00  0.00000000000E+00  0.23881724627E+04  0.23881724627E+04  0.00000000000E+00 0. -1.
         22   -1    0    0    0    0 -0.00000000000E+00 -0.00000000000E+00 -0.17039320238E+03  0.17039320238E+03  0.00000000000E+00 0. -1.
         25    2    1    2    0    0 -0.48119716345E+03  0.12487743459E+03  0.38242935612E+03  0.63956644030E+03  0.12509170780E+03 0.  0.
         24    2    1    2    0    0  0.43867922099E+03 -0.63269308145E+02  0.14040032785E+04  0.14743930722E+04  0.78531910600E+02 0.  0.
        -24    2    1    2    0    0  0.42517942455E+02 -0.61608126445E+02  0.43134662573E+03  0.44460615262E+03  0.77533107398E+02 0.  0.
        -13    1    4    4    0    0  0.97374569533E+02 -0.39153275533E+02  0.26214624264E+03  0.28237464175E+03  0.00000000000E+00 0.  1.
         14    1    4    4    0    0  0.34130465146E+03 -0.24116032612E+02  0.11418570359E+04  0.11920184304E+04  0.00000000000E+00 0. -1.
         13    1    5    5    0    0  0.15911087646E+02 -0.75284292358E+02  0.28308462139E+03  0.29335608099E+03  0.00000000000E+00 0. -1.
        -14    1    5    5    0    0  0.26606854809E+02  0.13676165913E+02  0.14826200434E+03  0.15125007163E+03  0.00000000000E+00 0.  1.
          5    1    3    3  501    0 -0.46430838662E+03  0.90186524128E+02  0.36252126448E+03  0.59594884564E+03  0.41800000000E+01 0. -1.
         -5    1    3    3    0  501 -0.16888776826E+02  0.34690910462E+02  0.19908091635E+02  0.43617594660E+02  0.41800000000E+01 0. -1.
</event>
<event>
11    1  0.1704459E-009  0.3160397E+03  0.7561462E-02  0.9936224E-01
         22   -1    0    0    0    0  0.00000000000E+00  0.00000000000E+00  0.11772025565E+03  0.11772025565E+03  0.00000000000E+00 0.  1.
         22   -1    0    0    0    0 -0.00000000000E+00 -0.00000000000E+00 -0.35491271051E+04  0.35491271051E+04  0.00000000000E+00 0. -1.
         25    2    1    2    0    0 -0.28512637795E+03  0.11483934363E+03 -0.31804332962E+04  0.31977005810E+04  0.12509167797E+03 0.  0.
         24    2    1    2    0    0  0.17106383738E+03  0.31864433509E+02 -0.15698321543E+03  0.24648188245E+03  0.76363668501E+02 0.  0.
        -24    2    1    2    0    0  0.11406254057E+03 -0.14670377714E+03 -0.93990337811E+02  0.22266489730E+03  0.78823927217E+02 0.  0.
        -11    1    4    4    0    0  0.45754342176E+02 -0.13054356874E+02 -0.10838257757E+02  0.48799015283E+02  0.00000000000E+00 0.  1.
         12    1    4    4    0    0  0.12530949520E+03  0.44918790382E+02 -0.14614495768E+03  0.19768286717E+03  0.00000000000E+00 0. -1.
         11    1    5    5    0    0 -0.79186830590E+01 -0.27175071677E+02 -0.27293995317E+02  0.39321142435E+02  0.00000000000E+00 0. -1.
        -12    1    5    5    0    0  0.12198122363E+03 -0.11952870546E+03 -0.66696342494E+02  0.18334375487E+03  0.00000000000E+00 0.  1.
          5    1    3    3  501    0 -0.25055255816E+03  0.48216591300E+02 -0.23211742788E+04  0.23351592941E+04  0.41800000000E+01 0.  1.
         -5    1    3    3    0  501 -0.34573819794E+02  0.66622752327E+02 -0.85925901740E+03  0.86254128686E+03  0.41800000000E+01 0.  1.
</event>
<event>
11    1  0.1704459E-009  0.1944495E+03  0.7561462E-02  0.1058520E+00
         22   -1    0    0    0    0  0.00000000000E+00  0.00000000000E+00  0.11663299997E+03  0.11663299997E+03  0.00000000000E+00 0. -1.
         22   -1    0    0    0    0 -0.00000000000E+00 -0.00000000000E+00 -0.18189032689E+04  0.18189032689E+04  0.00000000000E+00 0. -1.
         25    2    1    2    0    0  0.63121990112E+02  0.13368628292E+03 -0.15104092467E+04  0.15227743344E+04  0.12509665583E+03 0.  0.
         24    2    1    2    0    0 -0.16808209644E+01 -0.16689428136E+03 -0.23411357424E+03  0.29892585111E+03  0.81798364970E+02 0.  0.
        -24    2    1    2    0    0 -0.61441169148E+02  0.33207998434E+02  0.42252552009E+02  0.11383608330E+03  0.79344736957E+02 0.  0.
        -11    1    4    4    0    0  0.30275981123E+02 -0.35690884754E+02 -0.89929047705E+02  0.10137903091E+03  0.00000000000E+00 0.  1.
         12    1    4    4    0    0 -0.31956802087E+02 -0.13120339660E+03 -0.14418452654E+03  0.19754682020E+03  0.00000000000E+00 0. -1.
         11    1    5    5    0    0 -0.53327453742E+02 -0.88092695955E+01  0.45869128207E+02  0.70890037917E+02  0.00000000000E+00 0. -1.
        -12    1    5    5    0    0 -0.81137154059E+01  0.42017268029E+02 -0.36165761979E+01  0.42946045379E+02  0.00000000000E+00 0.  1.
          5    1    3    3  501    0  0.68758114110E+02  0.62825832446E+02 -0.42854918132E+03  0.43857341083E+03  0.41800000000E+01 0.  1.
         -5    1    3    3    0  501 -0.56361239976E+01  0.70860450477E+02 -0.10818600653E+04  0.10842009236E+04  0.41800000000E+01 0.  1.
</event>
<event>
11    1  0.1704459E-009  0.1120112E+04  0.7561462E-02  0.8572476E-01
         22   -1    0    0    0    0  0.00000000000E+00  0.00000000000E+00  0.12281218063E+03  0.12281218063E+03  0.00000000000E+00 0.  1.
         22   -1    0    0    0    0 -0.00000000000E+00 -0.00000000000E+00 -0.25540052530E+04  0.25540052530E+04  0.00000000000E+00 0. -1.
         25    2    1    2    0    0  0.19547865214E+03  0.32472718023E+03 -0.20896146549E+04  0.21273923557E+04  0.12509669892E+03 0.  0.
         24    2    1    2    0    0 -0.17092601008E+03 -0.24249099405E+03 -0.25359316461E+03  0.39853120006E+03  0.80622832796E+02 0.  0.
        -24    2    1    2    0    0 -0.24552642069E+02 -0.82236186182E+02 -0.87985252890E+02  0.15089387790E+03  0.87532480326E+02 0.  0.
        -11    1    4    4    0    0 -0.12415304295E+03 -0.21546886008E+03 -0.23282536932E+03  0.34065886212E+03  0.00000000000E+00 0.  1.
         12    1    4    4    0    0 -0.46772967124E+02 -0.27022133966E+02 -0.20767795290E+02  0.57872337942E+02  0.00000000000E+00 0. -1.
         13    1    5    5    0    0  0.10192122469E+02 -0.83747782665E+01 -0.64673120571E+02  0.66004763433E+02  0.00000000000E+00 0. -1.
        -14    1    5    5    0    0 -0.34744764538E+02 -0.73861407915E+02 -0.23312132318E+02  0.84889114469E+02  0.00000000000E+00 0.  1.
          5    1    3    3  501    0  0.11856210458E+03  0.86969557106E+02 -0.88264361429E+03  0.89481724321E+03  0.41800000000E+01 0.  1.
         -5    1    3    3    0  501  0.76916547569E+02  0.23775762313E+03 -0.12069710406E+04  0.12325751124E+04  0.41800000000E+01 0.  1.
</event>
<event>
11    1  0.1704459E-009  0.2015340E+03  0.7561462E-02  0.1053444E+00
         22   -1    0    0    0    0  0.00000000000E+00  0.00000000000E+00  0.35507232895E+03  0.35507232895E+03  0.00000000000E+00 0.  1.
         22   -1    0    0    0    0 -0.00000000000E+00 -0.00000000000E+00 -0.47397178362E+03  0.47397178362E+03  0.00000000000E+00 0.  1.
         25    2    1    2    0    0 -0.13107643956E+03  0.53392242914E+02 -0.23851046558E+03  0.30424764810E+03  0.12509046555E+03 0.  0.
        -24    2    1    2    0    0  0.21278577128E+03  0.10489063757E+03 -0.60765040354E+02  0.25886511433E+03  0.83898313322E+02 0.  0.
         24    2    1    2    0    0 -0.81709331725E+02 -0.15828288049E+03  0.18037605126E+03  0.26593135014E+03  0.80337276351E+02 0.  0.
        -13    1    5    5    0    0 -0.90196620550E+02 -0.15682793907E+03  0.15204980529E+03  0.23632514915E+03  0.00000000000E+00 0.  1.
         14    1    5    5    0    0  0.84872888246E+01 -0.14549414134E+01  0.28326245969E+02  0.29606200986E+02  0.00000000000E+00 0. -1.
         13    1    4    4    0    0  0.51784192558E+02  0.10672589084E+01 -0.41412778715E+02  0.66315608127E+02  0.00000000000E+00 0. -1.
        -14    1    4    4    0    0  0.16100157873E+03  0.10382337866E+03 -0.19352261639E+02  0.19254950620E+03  0.00000000000E+00 0.  1.
          5    1    3    3  501    0 -0.93232903802E+02  0.37120197454E+02 -0.51814629597E+02  0.11301553721E+03  0.41800000000E+01 0. -1.
         -5    1    3    3    0  501 -0.37843535756E+02  0.16272045461E+02 -0.18669583598E+03  0.19123211089E+03  0.41800000000E+01 0. -1.
</event>
<event>
11    1  0.1704459E-009  0.1825585E+03  0.7561462E-02  0.1067592E+00
         22   -1    0    0    0    0  0.00000000000E+00  0.00000000000E+00  0.55963006759E+02  0.55963006759E+02  0.00000000000E+00 0. -1.
         22   -1    0    0    0    0 -0.00000000000E+00 -0.00000000000E+00 -0.96263190371E+03  0.96263190371E+03  0.00000000000E+00 0. -1.
         25    2    1    2    0    0 -0.14005612610E+03 -0.39149915283E+02 -0.29138473353E+03  0.34885655119E+03  0.12508955211E+03 0.  0.
        -24    2    1    2    0    0  0.12262814429E+03  0.38418985813E+02 -0.53746421292E+03  0.55812789065E+03  0.78264180275E+02 0.  0.
         24    2    1    2    0    0  0.17427981814E+02  0.73092946962E+00 -0.77819950503E+02  0.11161046863E+03  0.78081260259E+02 0.  0.
        -11    1    5    5    0    0 -0.22312206517E+02  0.15434950734E+02 -0.59602919749E+02  0.65487253007E+02  0.00000000000E+00 0.  1.
         12    1    5    5    0    0  0.39740188331E+02 -0.14704021265E+02 -0.18217030754E+02  0.46123215624E+02  0.00000000000E+00 0. -1.
         11    1    4    4    0    0  0.98775321960E+02  0.57952583829E+02 -0.35319780370E+03  0.37130008718E+03  0.00000000000E+00 0. -1.
        -12    1    4    4    0    0  0.23852822327E+02 -0.19533598016E+02 -0.18426640922E+03  0.18682780348E+03  0.00000000000E+00 0.  1.
          5    1    3    3  501    0 -0.13280954866E+03  0.15649476737E+02 -0.17830609832E+03  0.22292110586E+03  0.41800000000E+01 0. -1.
         -5    1    3    3    0  501 -0.72465774423E+01 -0.54799392019E+02 -0.11307863521E+03  0.12593544533E+03  0.41800000000E+01 0. -1.
</event>
<event>
11    1  0.1704459E-009  0.1499689E+03  0.7561462E-02  0.1096911E+00
         22   -1    0    0    0    0  0.00000000000E+00  0.00000000000E+00  0.40635970381E+02  0.40635970381E+02  0.00000000000E+00 0.  1.
         22   -1    0    0    0    0 -0.00000000000E+00 -0.00000000000E+00 -0.92459574843E+03  0.92459574843E+03  0.00000000000E+00 0.  1.
         25    2    1    2    0    0 -0.42306389669E+01  0.94069342711E+02 -0.49863390683E+03  0.52263712238E+03  0.12508736591E+03 0.  0.
         24    2    1    2    0    0  0.54550270738E+02 -0.31998958756E+02 -0.21054140576E+03  0.23493647053E+03  0.82872168112E+02 0.  0.
        -24    2    1    2    0    0 -0.50319631771E+02 -0.62070383955E+02 -0.17478446547E+03  0.20765812590E+03  0.78660599915E+02 0.  0.
        -11    1    4    4    0    0  0.52965954986E+02 -0.56016409280E+02 -0.13280642961E+03  0.15356034072E+03  0.00000000000E+00 0.  1.
         12    1    4    4    0    0  0.15843157518E+01  0.24017450524E+02 -0.77734976156E+02  0.81376129818E+02  0.00000000000E+00 0. -1.
         11    1    5    5    0    0  0.14845888179E+02 -0.40644758131E+02 -0.60845601516E+02  0.74663136709E+02  0.00000000000E+00 0. -1.
        -12    1    5    5    0    0 -0.65165519950E+02 -0.21425625824E+02 -0.11393886395E+03  0.13299498919E+03  0.00000000000E+00 0.  1.
          5    1    3    3  501    0  0.25274775999E+02  0.71014494698E+02 -0.46807817344E+03  0.47412711545E+03  0.41800000000E+01 0. -1.
         -5    1    3    3    0  501 -0.29505414966E+02  0.23054848014E+02 -0.30555733388E+02  0.48510006928E+02  0.41800000000E+01 0. -1.
</event>
<event>
11    1  0.1704459E-009  0.2262419E+03  0.7561462E-02  0.1037376E+00
         22   -1    0    0    0    0  0.00000000000E+00  0.00000000000E+00  0.20255754610E+04  0.20255754610E+04  0.00000000000E+00 0. -1.
         22   -1    0    0    0    0 -0.00000000000E+00 -0.00000000000E+00 -0.15481367961E+03  0.15481367961E+03  0.00000000000E+00 0.  1.
         25    2    1    2    0    0 -0.18768788531E+03 -0.72827149208E+02 -0.88123023193E+01  0.23718583788E+03  0.12509567964E+03 0.  0.
        -24    2    1    2    0    0  0.16558472220E+03 -0.32271531903E+01  0.25848523201E+03  0.31770435207E+03  0.81809079032E+02 0.  0.
         24    2    1    2    0    0  0.22103163115E+02  0.76054302398E+02  0.16210888517E+04  0.16254989506E+04  0.89693738705E+02 0.  0.
        -13    1    5    5    0    0 -0.17146328899E+02  0.48077927745E+01  0.68373858823E+02  0.70654766552E+02  0.00000000000E+00 0.  1.
         14    1    5    5    0    0  0.39249492014E+02  0.71246509624E+02  0.15527149928E+04  0.15548441841E+04  0.00000000000E+00 0. -1.
         13    1    4    4    0    0  0.14527156152E+03 -0.27791002664E+02  0.17986386612E+03  0.23286729429E+03  0.00000000000E+00 0. -1.
        -14    1    4    4    0    0  0.20313160683E+02  0.24563849474E+02  0.78621365892E+02  0.84837057779E+02  0.00000000000E+00 0.  1.
          5    1    3    3  501    0 -0.74041670539E+02 -0.92850095399E+02 -0.22377293954E+02  0.12091949750E+03  0.41800000000E+01 0. -1.
         -5    1    3    3    0  501 -0.11364621478E+03  0.20022946191E+02  0.13564991635E+02  0.11626634038E+03  0.41800000000E+01 0. -1.
</event>
<event>
11    1  0.1704459E-009  0.2807142E+03  0.7561462E-02  0.1008701E+00
         22   -1    0    0    0    0  0.00000000000E+00  0.00000000000E+00  0.66206129992E+03  0.66206129992E+03  0.00000000000E+00 0.  1.
         22   -1    0    0    0    0 -0.00000000000E+00 -0.00000000000E+00 -0.19659938524E+03  0.19659938524E+03  0.00000000000E+00 0. -1.
         25    2    1    2    0    0  0.16797737907E+03  0.14873488560E+03  0.65742809816E+02  0.26515998079E+03  0.12509689163E+03 0.  0.
         24    2    1    2    0    0 -0.24287679873E+03 -0.19438097527E+03  0.29550694250E+03  0.43600471137E+03  0.77476785923E+02 0.  0.
        -24    2    1    2    0    0  0.74899419662E+02  0.45646089671E+02  0.10421216236E+03  0.15749599301E+03  0.79065317689E+02 0.  0.
        -11    1    4    4    0    0 -0.96114668796E+02 -0.48816419676E+02  0.14321958919E+03  0.17925658458E+03  0.00000000000E+00 0.  1.
         12    1    4    4    0    0 -0.14676212994E+03 -0.14556455560E+03  0.15228735331E+03  0.25674812679E+03  0.00000000000E+00 0. -1.
         13    1    5    5    0    0 -0.97281457280E+01  0.30628198689E+02  0.27916305484E+02  0.42568104094E+02  0.00000000000E+00 0. -1.
        -14    1    5    5    0    0  0.84627565390E+02  0.15017890982E+02  0.76295856876E+02  0.11492788891E+03  0.00000000000E+00 0.  1.
          5    1    3    3  501    0  0.18755913492E+02  0.62046702530E+02 -0.25649131286E+02  0.69835004987E+02  0.41800000000E+01 0.  1.
         -5    1    3    3    0  501  0.14922146558E+03  0.86688183073E+02  0.91391941102E+02  0.19532497580E+03  0.41800000000E+01 0.  1.
</event>
<event>
11    1  0.1704459E-009  0.1842020E+03  0.7561462E-02  0.1066294E+00
         22   -1    0    0    0    0  0.00000000000E+00  0.00000000000E+00  0.48418922894E+03  0.48418922894E+03  0.00000000000E+00 0.  1.
         22   -1    0    0    0    0 -0.00000000000E+00 -0.00000000000E+00 -0.13926374905E+03  0.13926374905E+03  0.00000000000E+00 0.  1.
         25    2    1    2    0    0  0.49284169952E+01  0.16581539704E+03  0.30207972498E+02  0.20995039317E+03  0.12509041051E+03 0.  0.
        -24    2    1    2    0    0 -0.41021848281E+02 -0.41432120784E+02  0.58960316057E+02  0.11588693191E+03  0.80957083999E+02 0.  0.
         24    2    1    2    0    0  0.36093431285E+02 -0.12438327625E+03  0.25575719133E+03  0.29761565291E+03  0.79933727189E+02 0.  0.
        -13    1    5    5    0    0  0.59953274929E+00 -0.93596040460E+02  0.21832382049E+03  0.23754129920E+03  0.00000000000E+00 0.  1.
         14    1    5    5    0    0  0.35493898536E+02 -0.30787235795E+02  0.37433370840E+02  0.60074353710E+02  0.00000000000E+00 0. -1.
         13    1    4    4    0    0 -0.55835520324E+02 -0.50362830477E+02  0.27649076358E+02  0.80115488183E+02  0.00000000000E+00 0. -1.
        -14    1    4    4    0    0  0.14813672043E+02  0.89307096923E+01  0.31311239699E+02  0.35771443729E+02  0.00000000000E+00 0.  1.
          5    1    3    3  501    0 -0.25505581754E+02  0.16740796413E+03  0.45785425811E+02  0.17547005092E+03  0.41800000000E+01 0. -1.
         -5    1    3    3    0  501  0.30433998749E+02 -0.15925670906E+01 -0.15577453313E+02  0.34480342248E+02  0.41800000000E+01 0. -1.
</event>
<event>
11    1  0.1704459E-009  0.2156896E+03  0.7561462E-02  0.1043952E+00
         22   -1    0    0    0    0  0.00000000000E+00  0.00000000000E+00  0.45326963598E+03  0.45326963598E+03  0.00000000000E+00 0.  1.
         22   -1    0    0    0    0 -0.00000000000E+00 -0.00000000000E+00 -0.17863919074E+03  0.17863919074E+03  0.00000000000E+00 0. -1.
         25    2    1    2    0    0 -0.18134033288E+03  0.43674010449E+02 -0.20402699244E+02  0.22551064999E+03  0.12508815933E+03 0.  0.
         24    2    1    2    0    0  0.15474234636E+03 -0.31634123383E+02  0.12276427676E+03  0.21551040774E+03  0.80173291534E+02 0.  0.
        -24    2    1    2    0    0  0.26597986520E+02 -0.12039887066E+02  0.17226886773E+03  0.19088776899E+03  0.76871098576E+02 0.  0.
        -13    1    4    4    0    0  0.26989778983E+02 -0.40423786222E+02  0.26943004533E+02  0.55573880154E+02  0.00000000000E+00 0.  1.
         14    1    4    4    0    0  0.12775256738E+03  0.87896628388E+01  0.95821272227E+02  0.15993652759E+03  0.00000000000E+00 0. -1.
         11    1    5    5    0    0 -0.98872596478E+01 -0.36722028572E+02  0.74107326796E+02  0.83295625159E+02  0.00000000000E+00 0. -1.
        -12    1    5    5    0    0  0.36485246168E+02  0.24682141506E+02  0.98161540931E+02  0.10759214384E+03  0.00000000000E+00 0.  1.
          5    1    3    3  501    0 -0.94248667713E+01  0.30602364669E+02 -0.40592437973E+02  0.51870523977E+02  0.41800000000E+01 0. -1.
         -5    1    3    3    0  501 -0.17191546611E+03  0.13071645780E+02  0.20189738729E+02  0.17364012601E+03  0.41800000000E+01 0. -1.
</event>
<event>
11    1  0.1704459E-009  0.4215199E+03  0.7561462E-02  0.9588313E-01
         22   -1    0    0    0    0  0.00000000000E+00  0.00000000000E+00  0.22191347820E+03  0.22191347820E+03  0.00000000000E+00 0. -1.
         22   -1    0    0    0    0 -0.00000000000E+00 -0.00000000000E+00 -0.89021945929E+03  0.89021945929E+03  0.00000000000E+00 0. -1.
         25    2    1    2    0    0 -0.73058487415E+02  0.52305384272E+02 -0.20191752824E+03  0.25395389028E+03  0.12509394217E+03 0.  0.
         24    2    1    2    0    0 -0.76865497105E+02  0.24183997661E+03 -0.44420990423E+03  0.51751203233E+03  0.78111366985E+02 0.  0.
        -24    2    1    2    0    0  0.14992398452E+03 -0.29414536088E+03 -0.22178548611E+02  0.34066701489E+03  0.81015014354E+02 0.  0.
        -13    1    4    4    0    0 -0.39695297007E+02  0.17381294350E+03 -0.23919044419E+03  0.29832654009E+03  0.00000000000E+00 0.  1.
         14    1    4    4    0    0 -0.37170200098E+02  0.68027033110E+02 -0.20501946004E+03  0.21918549223E+03  0.00000000000E+00 0. -1.
         13    1    5    5    0    0  0.13789352729E+03 -0.21058214812E+03  0.56426095950E+01  0.25177629955E+03  0.00000000000E+00 0. -1.
        -14    1    5    5    0    0  0.12030457233E+02 -0.83563212762E+02 -0.27821158206E+02  0.88890715332E+02  0.00000000000E+00 0.  1.
          5    1    3    3  501    0 -0.86145090864E+02 -0.12294012558E+02 -0.10144671935E+03  0.13371996370E+03  0.41800000000E+01 0.  1.
         -5    1    3    3    0  501  0.13086603449E+02  0.64599396830E+02 -0.10047080889E+03  0.12023392658E+03  0.41800000000E+01 0.  1.
</event>
<event>
11    1  0.1704459E-009  0.2112857E+03  0.7561462E-02  0.1046818E+00
         22   -1    0    0    0    0  0.00000000000E+00  0.00000000000E+00  0.41159615031E+03  0.41159615031E+03  0.00000000000E+00 0.  1.
         22   -1    0    0    0    0 -0.00000000000E+00 -0.00000000000E+00 -0.21862733436E+03  0.21862733436E+03  0.00000000000E+00 0.  1.
         25    2    1    2    0    0  0.17127265981E+03  0.83673247477E+02  0.32239887194E+02  0.23026210351E+03  0.12508273121E+03 0.  0.
        -24    2    1    2    0    0 -0.10867137071E+03  0.82556589232E+02  0.23124954679E+02  0.15932944846E+03  0.78905338105E+02 0.  0.
         24    2    1    2    0    0 -0.62601289102E+02 -0.16622983671E+03  0.13760397408E+03  0.24063193270E+03  0.86125451177E+02 0.  0.
        -13    1    5    5    0    0 -0.22161685301E+02 -0.14514439085E+03  0.80153884310E+02  0.16728024289E+03  0.00000000000E+00 0.  1.
         14    1    5    5    0    0 -0.40439603801E+02 -0.21085445856E+02  0.57450089771E+02  0.73351689805E+02  0.00000000000E+00 0. -1.
         13    1    4    4    0    0  0.46939388538E+01  0.25252703973E+02 -0.10782179257E+02  0.27856552361E+02  0.00000000000E+00 0. -1.
        -14    1    4    4    0    0 -0.11336530956E+03  0.57303885259E+02  0.33907133936E+02  0.13147289610E+03  0.00000000000E+00 0.  1.
          5    1    3    3  501    0  0.67392627494E+02  0.99873803982E+02  0.12098462536E+01  0.12056317469E+03  0.41800000000E+01 0. -1.
         -5    1    3    3    0  501  0.10388003231E+03 -0.16200556504E+02  0.31030040940E+02  0.10969892883E+03  0.41800000000E+01 0. -1.
</event>
<event>
11    1  0.1704459E-009  0.1271009E+03  0.7561462E-02  0.1122883E+00
         22   -1    0    0    0    0  0.00000000000E+00  0.00000000000E+00  0.52542048590E+03  0.52542048590E+03  0.00000000000E+00 0.  1.
         22   -1    0    0    0    0 -0.00000000000E+00 -0.00000000000E+00 -0.72058110254E+02  0.72058110254E+02  0.00000000000E+00 0. -1.
         25    2    1    2    0    0  0.14184759478E+02 -0.33071649866E+01  0.96994232594E+02  0.15895744656E+03  0.12508974346E+03 0.  0.
         24    2    1    2    0    0 -0.27923979157E+02 -0.94473149919E+02  0.15432821574E+03  0.19967535776E+03  0.79675125706E+02 0.  0.
        -24    2    1    2    0    0  0.13739219679E+02  0.97780314905E+02  0.20203992731E+03  0.23884579183E+03  0.80482444702E+02 0.  0.
        -13    1    4    4    0    0 -0.55889915989E+02 -0.55863315708E+02  0.95383891518E+02  0.12386476300E+03  0.00000000000E+00 0.  1.
         14    1    4    4    0    0  0.27965936831E+02 -0.38609834211E+02  0.58944324220E+02  0.75810594763E+02  0.00000000000E+00 0. -1.
         11    1    5    5    0    0 -0.30357357998E+02  0.46426067452E+02  0.61284002797E+02  0.82660014049E+02  0.00000000000E+00 0. -1.
        -12    1    5    5    0    0  0.44096577678E+02  0.51354247453E+02  0.14075592452E+03  0.15618577778E+03  0.00000000000E+00 0.  1.
          5    1    3    3  501    0 -0.47086226630E+02  0.26804599312E+02  0.25545037016E+02  0.60046820054E+02  0.41800000000E+01 0. -1.
         -5    1    3    3    0  501  0.61270986108E+02 -0.30111764299E+02  0.71449195578E+02  0.98910626509E+02  0.41800000000E+01 0. -1.
</event>
<event>
11    1  0.1704459E-009  0.3375836E+03  0.7561462E-02  0.9854308E-01
         22   -1    0    0    0    0  0.00000000000E+00  0.00000000000E+00  0.14680787553E+03  0.14680787553E+03  0.00000000000E+00 0. -1.
         22   -1    0    0    0    0 -0.00000000000E+00 -0.00000000000E+00 -0.14541370822E+04  0.14541370822E+04  0.00000000000E+00 0.  1.
         25    2    1    2    0    0 -0.23732749017E+03 -0.10371995474E+03 -0.40627592744E+03  0.49778453460E+03  0.12508855691E+03 0.  0.
         24    2    1    2    0    0  0.30829017572E+03  0.18012160221E+03 -0.90032283149E+03  0.97181699071E+03  0.79752357321E+02 0.  0.
        -24    2    1    2    0    0 -0.70962685544E+02 -0.76401647464E+02 -0.73044771205E+00  0.13134343240E+03  0.79860185359E+02 0.  0.
        -13    1    4    4    0    0  0.72001474777E+02  0.70262746353E+02 -0.18624125943E+03  0.21167633927E+03  0.00000000000E+00 0.  1.
         14    1    4    4    0    0  0.23628870094E+03  0.10985885585E+03 -0.71408157206E+03  0.76014065143E+03  0.00000000000E+00 0. -1.
         11    1    5    5    0    0 -0.69594777208E+02 -0.72217757374E+02  0.26519181187E+02  0.10374056326E+03  0.00000000000E+00 0. -1.
        -12    1    5    5    0    0 -0.13679083365E+01 -0.41838900891E+01 -0.27249628899E+02  0.27602869138E+02  0.00000000000E+00 0.  1.
          5    1    3    3  501    0 -0.10365006710E+03 -0.63706737941E+02 -0.29543309166E+03  0.31953101402E+03  0.41800000000E+01 0.  1.
         -5    1    3    3    0  501 -0.13367742307E+03 -0.40013216801E+02 -0.11084283577E+03  0.17825352058E+03  0.41800000000E+01 0.  1.
</event>
<event>
11    1  0.2220940E-009  0.2194556E+03  0.7561462E-02  0.1041559E+00
         22   -1    0    0    0    0  0.00000000000E+00  0.00000000000E+00  0.24863694289E+04  0.24863694289E+04  0.00000000000E+00 0.  1.
         22   -1    0    0    0    0 -0.00000000000E+00 -0.00000000000E+00 -0.53636539760E+03  0.53636539760E+03  0.00000000000E+00 0.  1.
         25    2    1    2    0    0  0.61796030761E+02 -0.16949995577E+03 -0.49938909491E+03  0.54551460887E+03  0.12509091073E+03 0.  0.
        -24    2    1    2    0    0  0.58227276081E+02  0.31476839421E+02  0.27828037597E+03  0.29694547046E+03  0.79720998965E+02 0.  0.
         24    2    1    2    0    0 -0.12002330684E+03  0.13802311635E+03  0.21711127502E+04  0.21802747472E+04  0.80071368888E+02 0.  0.
        -11    1    5    5    0    0 -0.50292002535E+02  0.24916881941E+02  0.36602962262E+03  0.37030773845E+03  0.00000000000E+00 0.  1.
         12    1    5    5    0    0 -0.69731304307E+02  0.11310623441E+03  0.18050831276E+04  0.18099670087E+04  0.00000000000E+00 0. -1.
         11    1    4    4    0    0  0.70374190278E+01 -0.17901701162E+02  0.15479859671E+02  0.24690529085E+02  0.00000000000E+00 0. -1.
        -12    1    4    4    0    0  0.51189857053E+02  0.49378540582E+02  0.26280051630E+03  0.27225494137E+03  0.00000000000E+00 0.  1.
          5    1    3    3  501    0 -0.57139016916E+01 -0.50555222527E+02 -0.29607846775E+03  0.30044701806E+03  0.41800000000E+01 0.  1.
         -5    1    3    3    0  501  0.67509932452E+02 -0.11894473325E+03 -0.20331062716E+03  0.24506759080E+03  0.41800000000E+01 0.  1.
</event>
<event>
11    1  0.1704459E-009  0.1481952E+03  0.7561462E-02  0.1098737E+00
         22   -1    0    0    0    0  0.00000000000E+00  0.00000000000E+00  0.14451970748E+03  0.14451970748E+03  0.00000000000E+00 0.  1.
         22   -1    0    0    0    0 -0.00000000000E+00 -0.00000000000E+00 -0.94453709202E+03  0.94453709202E+03  0.00000000000E+00 0.  1.
         25    2    1    2    0    0 -0.10785492535E+03 -0.47589924410E+02 -0.70262009561E+03  0.72333933303E+03  0.12508919264E+03 0.  0.
        -24    2    1    2    0    0  0.42361336073E+02  0.49411027115E+01 -0.19643175195E+03  0.21622199155E+03  0.79671947169E+02 0.  0.
         24    2    1    2    0    0  0.65493589279E+02  0.42648821699E+02  0.99034463015E+02  0.14949547493E+03  0.80204363536E+02 0.  0.
        -13    1    5    5    0    0  0.70560026984E+01  0.52284499568E+02  0.47079701190E+02  0.70710355206E+02  0.00000000000E+00 0.  1.
         14    1    5    5    0    0  0.58437586580E+02 -0.96356778691E+01  0.51954761825E+02  0.78785119722E+02  0.00000000000E+00 0. -1.
         13    1    4    4    0    0  0.16289781691E+02  0.14907451251E+02 -0.48372013705E+01  0.22605035002E+02  0.00000000000E+00 0. -1.
        -14    1    4    4    0    0  0.26071554382E+02 -0.99663485395E+01 -0.19159455058E+03  0.19361695654E+03  0.00000000000E+00 0.  1.
          5    1    3    3  501    0 -0.12755831864E+03 -0.10339132493E+02 -0.56618013282E+03  0.58047862795E+03  0.41800000000E+01 0.  1.
         -5    1    3    3    0  501  0.19703393290E+02 -0.37250791918E+02 -0.13643996280E+03  0.14286070507E+03  0.41800000000E+01 0.  1.
</event>
<event>
11    1  0.1704459E-009  0.2556750E+03  0.7561462E-02  0.1020919E+00
         22   -1    0    0    0    0  0.00000000000E+00  0.00000000000E+00  0.82828118128E+02  0.82828118128E+02  0.00000000000E+00 0.  1.
         22   -1    0    0    0    0 -0.00000000000E+00 -0.00000000000E+00 -0.19761822271E+04  0.19761822271E+04  0.00000000000E+00 0.  1.
         25    2    1    2    0    0 -0.24127153676E+03 -0.39464763212E+02 -0.15929377387E+04  0.16164365579E+04  0.12508830729E+03 0.  0.
         24    2    1    2    0    0  0.11255645605E+03  0.28614749053E+02 -0.23641789824E+03  0.27561872149E+03  0.81144915836E+02 0.  0.
        -24    2    1    2    0    0  0.12871508071E+03  0.10850014159E+02 -0.63998472062E+02  0.16695506578E+03  0.84219325307E+02 0.  0.
        -11    1    4    4    0    0  0.67049016663E+02  0.53671806684E+02 -0.11480839670E+03  0.14337782751E+03  0.00000000000E+00 0.  1.
         12    1    4    4    0    0  0.45507439389E+02 -0.25057057630E+02 -0.12160950154E+03  0.13224089398E+03  0.00000000000E+00 0. -1.
         13    1    5    5    0    0  0.12580761477E+03  0.33181670482E+02 -0.62614732016E+02  0.14439246467E+03  0.00000000000E+00 0. -1.
        -14    1    5    5    0    0  0.29074659437E+01 -0.22331656323E+02 -0.13837400463E+01  0.22562601110E+02  0.00000000000E+00 0.  1.
          5    1    3    3  501    0 -0.20904018244E+03 -0.58701251058E+02 -0.10519527690E+04  0.10741348777E+04  0.41800000000E+01 0. -1.
         -5    1    3    3    0  501 -0.32231354326E+02  0.19236487845E+02 -0.54098496961E+03  0.54230168026E+03  0.41800000000E+01 0. -1.
</event>
<event>
11    1  0.1704459E-009  0.1896402E+03  0.7561462E-02  0.1062101E+00
         22   -1    0    0    0    0  0.00000000000E+00  0.00000000000E+00  0.34022080983E+03  0.34022080983E+03  0.00000000000E+00 0.  1.
         22   -1    0    0    0    0 -0.00000000000E+00 -0.00000000000E+00 -0.18344695937E+03  0.18344695937E+03  0.00000000000E+00 0.  1.
         25    2    1    2    0    0 -0.12763128676E+03  0.88869831069E+02  0.28483296032E+02  0.20162372340E+03  0.12511289083E+03 0.  0.
         24    2    1    2    0    0  0.14603066066E+03  0.12551780298E+02  0.82444219908E+02  0.18955977575E+03  0.87483473552E+02 0.  0.
        -24    2    1    2    0    0 -0.18399373895E+02 -0.10142161137E+03  0.45846334517E+02  0.13248427005E+03  0.69464488838E+02 0.  0.
        -13    1    4    4    0    0  0.91175802237E+02  0.36749046097E+02  0.84413182190E+02  0.12957277735E+03  0.00000000000E+00 0.  1.
         14    1    4    4    0    0  0.54854858419E+02 -0.24197265799E+02 -0.19689622814E+01  0.59986998398E+02  0.00000000000E+00 0. -1.
         13    1    5    5    0    0  0.49114834102E+01 -0.89540946113E+02  0.54486335663E+02  0.10493076038E+03  0.00000000000E+00 0. -1.
        -14    1    5    5    0    0 -0.23310857305E+02 -0.11880665255E+02 -0.86400011462E+01  0.27553509668E+02  0.00000000000E+00 0.  1.
          5    1    3    3  501    0 -0.12332174622E+03  0.54459457202E+02 -0.25558129076E+02  0.13727627592E+03  0.41800000000E+01 0.  1.
         -5    1    3    3    0  501 -0.43095405406E+01  0.34410373868E+02  0.54041425107E+02  0.64347447479E+02  0.41800000000E+01 0.  1.
</event>
<event>
11    1  0.1704459E-009  0.1566089E+03  0.7561462E-02  0.1090311E+00
         22   -1    0    0    0    0  0.00000000000E+00  0.00000000000E+00  0.52564067146E+03  0.52564067146E+03  0.00000000000E+00 0. -1.
         22   -1    0    0    0    0 -0.00000000000E+00 -0.00000000000E+00 -0.86942704159E+02  0.86942704159E+02  0.00000000000E+00 0.  1.
         25    2    1    2    0    0  0.88976343343E+02  0.43715161041E+02  0.47413365744E+02  0.16650425940E+03  0.12509131132E+03 0.  0.
         24    2    1    2    0    0 -0.53474139211E+02 -0.73566337029E+02  0.21934325489E+03  0.25061031010E+03  0.80140966770E+02 0.  0.
        -24    2    1    2    0    0 -0.35502204132E+02  0.29851175987E+02  0.17194134667E+03  0.19546880612E+03  0.80577467476E+02 0.  0.
        -13    1    4    4    0    0  0.14740006247E+02 -0.28745215221E+02  0.28631533438E+02  0.43166189191E+02  0.00000000000E+00 0.  1.
         14    1    4    4    0    0 -0.68214145457E+02 -0.44821121807E+02  0.19071172146E+03  0.20744412091E+03  0.00000000000E+00 0. -1.
         11    1    5    5    0    0  0.19045135407E+02 -0.68340344412E+01  0.14612087970E+02  0.24958652293E+02  0.00000000000E+00 0. -1.
        -12    1    5    5    0    0 -0.54547339539E+02  0.36685210429E+02  0.15732925870E+03  0.17051015382E+03  0.00000000000E+00 0.  1.
          5    1    3    3  501    0  0.34874716602E+02  0.63956030215E+02 -0.21897957628E+02  0.76181445295E+02  0.41800000000E+01 0. -1.
         -5    1    3    3    0  501  0.54101626741E+02 -0.20240869174E+02  0.69311323372E+02  0.90322814108E+02  0.41800000000E+01 0. -1.
</event>
<event>
11    1  0.1704459E-009  0.4649247E+03  0.7561462E-02  0.9475505E-01
         22   -1    0    0    0    0  0.00000000000E+00  0.00000000000E+00  0.73128096364E+03  0.73128096364E+03  0.00000000000E+00 0. -1.
         22   -1    0    0    0    0 -0.00000000000E+00 -0.00000000000E+00 -0.14363398126E+04  0.14363398126E+04  0.00000000000E+00 0. -1.
         25    2    1    2    0    0 -0.41792096576E+03  0.15457416483E+03 -0.12653242751E+04  0.13473098344E+04  0.12508861878E+03 0.  0.
        -24    2    1    2    0    0  0.42683463769E+03 -0.22815521540E+03  0.49857540714E+03  0.69945347890E+03  0.80094458547E+02 0.  0.
         24    2    1    2    0    0 -0.89136719272E+01  0.73581050564E+02  0.61690019004E+02  0.12085746299E+03  0.72850829544E+02 0.  0.
        -11    1    5    5    0    0  0.25309565366E+02  0.77846414573E+01  0.37509409292E+01  0.26744051665E+02  0.00000000000E+00 0.  1.
         12    1    5    5    0    0 -0.34223237293E+02  0.65796409107E+02  0.57939078075E+02  0.94113411320E+02  0.00000000000E+00 0. -1.
         11    1    4    4    0    0  0.27920086320E+03 -0.11306959122E+03  0.27516695812E+03  0.40798861419E+03  0.00000000000E+00 0. -1.
        -12    1    4    4    0    0  0.14763377449E+03 -0.11508562418E+03  0.22340844902E+03  0.29146486471E+03  0.00000000000E+00 0.  1.
          5    1    3    3  501    0 -0.97836882978E+02  0.78992433352E+02 -0.24721136564E+03  0.27738563751E+03  0.41800000000E+01 0.  1.
         -5    1    3    3    0  501 -0.32008408279E+03  0.75581731483E+02 -0.10181129095E+04  0.10699241969E+04  0.41800000000E+01 0.  1.
</event>
<event>
11    1  0.1704459E-009  0.1599520E+03  0.7561462E-02  0.1087122E+00
         22   -1    0    0    0    0  0.00000000000E+00  0.00000000000E+00  0.17849116918E+03  0.17849116918E+03  0.00000000000E+00 0. -1.
         22   -1    0    0    0    0 -0.00000000000E+00 -0.00000000000E+00 -0.67990802913E+03  0.67990802913E+03  0.00000000000E+00 0. -1.
         25    2    1    2    0    0 -0.65948652940E+02 -0.78894363055E+02 -0.58333703265E+03  0.60539492985E+03  0.12508949631E+03 0.  0.
        -24    2    1    2    0    0  0.74666849208E+02 -0.17178396878E+02  0.17121588099E+02  0.11213009091E+03  0.80061056817E+02 0.  0.
         24    2    1    2    0    0 -0.87181962677E+01  0.96072759932E+02  0.64798584597E+02  0.14087417755E+03  0.79628482266E+02 0.  0.
        -13    1    5    5    0    0  0.37159861892E+01 -0.13912685619E+02  0.75422504436E+01  0.16255980938E+02  0.00000000000E+00 0.  1.
         14    1    5    5    0    0 -0.12434182457E+02  0.10998544555E+03  0.57256334153E+02  0.12461819661E+03  0.00000000000E+00 0. -1.
         11    1    4    4    0    0  0.73552043027E+02 -0.34883041677E+01 -0.16805451451E+02  0.75528104026E+02  0.00000000000E+00 0. -1.
        -12    1    4    4    0    0  0.11148061810E+01 -0.13690092710E+02  0.33927039550E+02  0.36601986884E+02  0.00000000000E+00 0.  1.
          5    1    3    3  501    0 -0.63646118295E+02 -0.11039009956E+03 -0.41774506768E+03  0.43676677578E+03  0.41800000000E+01 0.  1.
         -5    1    3    3    0  501 -0.23025346453E+01  0.31495736509E+02 -0.16559196497E+03  0.16862815407E+03  0.41800000000E+01 0.  1.
</event>
<event>
11    1  0.1704459E-009  0.4588311E+03  0.7561462E-02  0.9490533E-01
         22   -1    0    0    0    0  0.00000000000E+00  0.00000000000E+00  0.19211988182E+03  0.19211988182E+03  0.00000000000E+00 0. -1.
         22   -1    0    0    0    0 -0.00000000000E+00 -0.00000000000E+00 -0.12624658824E+04  0.12624658824E+04  0.00000000000E+00 0. -1.
         25    2    1    2    0    0 -0.13148205625E+03  0.56488305537E+02 -0.61287635637E+03  0.64167278098E+03  0.12509224549E+03 0.  0.
        -24    2    1    2    0    0 -0.21567605548E+03  0.69126083389E+02 -0.34244347781E+03  0.41812059163E+03  0.79137332139E+02 0.  0.
         24    2    1    2    0    0  0.34715811173E+03 -0.12561438893E+03 -0.11502616642E+03  0.39479239163E+03  0.79575651312E+02 0.  0.
        -13    1    5    5    0    0  0.30090580459E+02  0.81980046932E+01  0.21041149127E+01  0.31258240719E+02  0.00000000000E+00 0.  1.
         14    1    5    5    0    0  0.31706753127E+03 -0.13381239362E+03 -0.11713028134E+03  0.36353415091E+03  0.00000000000E+00 0. -1.
         13    1    4    4    0    0 -0.70392133416E+02  0.62789494703E+02 -0.12727461544E+03  0.15841843588E+03  0.00000000000E+00 0. -1.
        -14    1    4    4    0    0 -0.14528392206E+03  0.63365886866E+01 -0.21516886237E+03  0.25970215575E+03  0.00000000000E+00 0.  1.
          5    1    3    3  501    0 -0.14589593029E+03  0.18014394968E+02 -0.43975631991E+03  0.46369519537E+03  0.41800000000E+01 0.  1.
         -5    1    3    3    0  501  0.14413874048E+02  0.38473910569E+02 -0.17312003645E+03  0.17797758561E+03  0.41800000000E+01 0.  1.
</event>
<event>
11    1  0.1704459E-009  0.5440448E+03  0.7561462E-02  0.9300152E-01
         22   -1    0    0    0    0  0.00000000000E+00  0.00000000000E+00  0.13229806281E+04  0.13229806281E+04  0.00000000000E+00 0. -1.
         22   -1    0    0    0    0 -0.00000000000E+00 -0.00000000000E+00 -0.54269890944E+03  0.54269890944E+03  0.00000000000E+00 0. -1.
         25    2    1    2    0    0  0.26020557506E+03  0.13304580542E+03 -0.98650734821E+02  0.33284698059E+03  0.12508803849E+03 0.  0.
        -24    2    1    2    0    0 -0.16650705733E+03 -0.63426291505E+03  0.22133996187E+03  0.69681141407E+03  0.80874733463E+02 0.  0.
         24    2    1    2    0    0 -0.93698517727E+02  0.50121710963E+03  0.65759249156E+03  0.83602114283E+03  0.80656451081E+02 0.  0.
        -11    1    5    5    0    0 -0.58465200441E+02  0.18968310376E+03  0.20406896784E+03  0.28467877187E+03  0.00000000000E+00 0.  1.
         12    1    5    5    0    0 -0.35233317286E+02  0.31153400587E+03  0.45352352372E+03  0.55134237097E+03  0.00000000000E+00 0. -1.
         11    1    4    4    0    0 -0.12884645037E+03 -0.35617831384E+03  0.10520276428E+03  0.39310561003E+03  0.00000000000E+00 0. -1.
        -12    1    4    4    0    0 -0.37660606963E+02 -0.27808460121E+03  0.11613719759E+03  0.30370580405E+03  0.00000000000E+00 0.  1.
          5    1    3    3  501    0  0.34713255364E+01  0.42483998710E+02 -0.29267059291E+02  0.51874593077E+02  0.41800000000E+01 0. -1.
         -5    1    3    3    0  501  0.25673424952E+03  0.90561806713E+02 -0.69383675529E+02  0.28097238751E+03  0.41800000000E+01 0. -1.
</event>
<event>
11    1  0.1704459E-009  0.3220230E+03  0.7561462E-02  0.9912786E-01
         22   -1    0    0    0    0  0.00000000000E+00  0.00000000000E+00  0.23515835230E+04  0.23515835230E+04  0.00000000000E+00 0. -1.
         22   -1    0    0    0    0 -0.00000000000E+00 -0.00000000000E+00 -0.86926458051E+02  0.86926458051E+02  0.00000000000E+00 0.  1.
         25    2    1    2    0    0 -0.11295218453E+03 -0.18496249607E+02  0.99123625829E+02  0.19640071623E+03  0.12508973139E+03 0.  0.
         24    2    1    2    0    0 -0.11630533306E+03 -0.43244576794E+02  0.14942509924E+03  0.21038580071E+03  0.80853577145E+02 0.  0.
        -24    2    1    2    0    0  0.22925751759E+03  0.61740826401E+02  0.20161083399E+04  0.20317234641E+04  0.82682872974E+02 0.  0.
        -11    1    4    4    0    0 -0.81342311084E+02  0.62606499923E+01  0.55742067380E+02  0.98807618059E+02  0.00000000000E+00 0.  1.
         12    1    4    4    0    0 -0.34963021973E+02 -0.49505226786E+02  0.93683031861E+02  0.11157818265E+03  0.00000000000E+00 0. -1.
         13    1    5    5    0    0  0.23394117698E+03  0.50834694779E+02  0.19343161554E+04  0.19490745572E+04  0.00000000000E+00 0. -1.
        -14    1    5    5    0    0 -0.46836593902E+01  0.10906131623E+02  0.81792184464E+02  0.82648906900E+02  0.00000000000E+00 0.  1.
          5    1    3    3  501    0 -0.12614061288E+03 -0.16492142985E+02  0.11755809253E+03  0.17326517975E+03  0.41800000000E+01 0. -1.
         -5    1    3    3    0  501  0.13188428346E+02 -0.20041066218E+01 -0.18434466698E+02  0.23135536476E+02  0.41800000000E+01 0. -1.
</event>
<event>
11    1  0.1704459E-009  0.2030546E+03  0.7561462E-02  0.1052384E+00
         22   -1    0    0    0    0  0.00000000000E+00  0.00000000000E+00  0.48910338732E+03  0.48910338732E+03  0.00000000000E+00 0.  1.
         22   -1    0    0    0    0 -0.00000000000E+00 -0.00000000000E+00 -0.15709046968E+04  0.15709046968E+04  0.00000000000E+00 0.  1.
         25    2    1    2    0    0 -0.53252333055E+01 -0.16053987876E+03 -0.15117571040E+04  0.15254044070E+04  0.12509057862E+03 0.  0.
         24    2    1    2    0    0 -0.80665825038E+02  0.12534552285E+03  0.35209372180E+03  0.38956867638E+03  0.74667859623E+02 0.  0.
        -24    2    1    2    0    0  0.85991058343E+02  0.35194355915E+02  0.77862072622E+02  0.14503500076E+03  0.79621255259E+02 0.  0.
        -11    1    4    4    0    0 -0.38243626861E+02  0.44472797213E+01  0.76113548177E+02  0.85297277263E+02  0.00000000000E+00 0.  1.
         12    1    4    4    0    0 -0.42422198176E+02  0.12089824313E+03  0.27598017362E+03  0.30427139912E+03  0.00000000000E+00 0. -1.
         13    1    5    5    0    0 -0.11313118029E+02 -0.58475714325E+01 -0.16521686077E+01  0.12841744130E+02  0.00000000000E+00 0. -1.
        -14    1    5    5    0    0  0.97304176372E+02  0.41041927348E+02  0.79514241230E+02  0.13219325663E+03  0.00000000000E+00 0.  1.
          5    1    3    3  501    0 -0.61961038939E+02 -0.11319534009E+03 -0.10137359010E+04  0.10219248039E+04  0.41800000000E+01 0. -1.
         -5    1    3    3    0  501  0.56635805633E+02 -0.47344538671E+02 -0.49802120295E+03  0.50347960317E+03  0.41800000000E+01 0. -1.
</event>
<event>
11    1  0.1704459E-009  0.1022495E+04  0.7561462E-02  0.8657908E-01
         22   -1    0    0    0    0  0.00000000000E+00  0.00000000000E+00  0.74263790282E+03  0.74263790282E+03  0.00000000000E+00 0.  1.
         22   -1    0    0    0    0 -0.00000000000E+00 -0.00000000000E+00 -0.12773608458E+04  0.12773608458E+04  0.00000000000E+00 0.  1.
         25    2    1    2    0    0  0.29846314392E+03  0.93336210744E+02 -0.36807574712E+03  0.49891826006E+03  0.12509107917E+03 0.  0.
        -24    2    1    2    0    0  0.58312654539E+03  0.11949314314E+03 -0.39038244247E+02  0.60164440280E+03  0.78337881684E+02 0.  0.
         24    2    1    2    0    0 -0.88158968931E+03 -0.21282935389E+03 -0.12760895158E+03  0.91943608574E+03  0.81129261415E+02 0.  0.
        -11    1    5    5    0    0 -0.21391442673E+03 -0.79642535082E+02 -0.54634789948E+02  0.23470678650E+03  0.00000000000E+00 0.  1.
         12    1    5    5    0    0 -0.66767526258E+03 -0.13318681880E+03 -0.72974161637E+02  0.68472929923E+03  0.00000000000E+00 0. -1.
         11    1    4    4    0    0  0.30701871692E+03  0.23920890225E+02 -0.28650053892E+02  0.30927904410E+03  0.00000000000E+00 0. -1.
        -12    1    4    4    0    0  0.27610782847E+03  0.95572252916E+02 -0.10388190355E+02  0.29236535870E+03  0.00000000000E+00 0.  1.
          5    1    3    3  501    0  0.96419528459E+02 -0.91523122807E+01 -0.17999105949E+03  0.20443762908E+03  0.41800000000E+01 0. -1.
         -5    1    3    3    0  501  0.20204361546E+03  0.10248852302E+03 -0.18808468763E+03  0.29448063098E+03  0.41800000000E+01 0. -1.
</event>
<event>
11    1  0.1704459E-009  0.2739329E+03  0.7561462E-02  0.1011870E+00
         22   -1    0    0    0    0  0.00000000000E+00  0.00000000000E+00  0.23260128695E+04  0.23260128695E+04  0.00000000000E+00 0.  1.
         22   -1    0    0    0    0 -0.00000000000E+00 -0.00000000000E+00 -0.32425000640E+03  0.32425000640E+03  0.00000000000E+00 0. -1.
         25    2    1    2    0    0  0.22622374124E+03  0.12963889943E+03 -0.19748882094E+03  0.35018880827E+03  0.12508773600E+03 0.  0.
        -24    2    1    2    0    0  0.13672347527E+02 -0.17996774383E+03  0.18911265595E+03  0.27351034319E+03  0.80430027258E+02 0.  0.
         24    2    1    2    0    0 -0.23989608877E+03  0.50328844402E+02  0.20101390281E+04  0.20265637245E+04  0.78857409164E+02 0.  0.
        -11    1    5    5    0    0 -0.16896146387E+03  0.65598486377E+02  0.15780527708E+04  0.15884274252E+04  0.00000000000E+00 0.  1.
         12    1    5    5    0    0 -0.70934624898E+02 -0.15269641974E+02  0.43208625729E+03  0.43813629924E+03  0.00000000000E+00 0. -1.
         11    1    4    4    0    0  0.37936998587E+02 -0.50564262242E+02  0.41026468407E+02  0.75360013189E+02  0.00000000000E+00 0. -1.
        -12    1    4    4    0    0 -0.24264651060E+02 -0.12940348159E+03  0.14808618754E+03  0.19815033000E+03  0.00000000000E+00 0.  1.
          5    1    3    3  501    0  0.44086210164E+02  0.50050929688E+02 -0.11892849655E+03  0.13641902060E+03  0.41800000000E+01 0.  1.
         -5    1    3    3    0  501  0.18213753108E+03  0.79587969738E+02 -0.78560324386E+02  0.21376978767E+03  0.41800000000E+01 0.  1.
</event>
<event>
11    1  0.1704459E-009  0.2633594E+03  0.7561462E-02  0.1017014E+00
         22   -1    0    0    0    0  0.00000000000E+00  0.00000000000E+00  0.10085536341E+04  0.10085536341E+04  0.00000000000E+00 0.  1.
         22   -1    0    0    0    0 -0.00000000000E+00 -0.00000000000E+00 -0.28202504580E+03  0.28202504580E+03  0.00000000000E+00 0.  1.
         25    2    1    2    0    0 -0.77395120816E+02 -0.24179362597E+03 -0.17478338677E+02  0.28356068221E+03  0.12508799258E+03 0.  0.
         24    2    1    2    0    0  0.46671723813E+02  0.21001953754E+03 -0.26612828533E+02  0.23155950598E+03  0.81394755452E+02 0.  0.
        -24    2    1    2    0    0  0.30723397003E+02  0.31774088430E+02  0.77061975553E+03  0.77545849172E+03  0.74347460940E+02 0.  0.
        -13    1    4    4    0    0  0.25775371279E+02  0.39429068826E+02 -0.36226305025E+02  0.59425301083E+02  0.00000000000E+00 0.  1.
         14    1    4    4    0    0  0.20896352534E+02  0.17059046872E+03  0.96134764917E+01  0.17213420490E+03  0.00000000000E+00 0. -1.
         11    1    5    5    0    0  0.30362633244E+02  0.50469294020E+02  0.39432528375E+03  0.39869972227E+03  0.00000000000E+00 0. -1.
        -12    1    5    5    0    0  0.36076375975E+00 -0.18695205590E+02  0.37629447178E+03  0.37675876945E+03  0.00000000000E+00 0.  1.
          5    1    3    3  501    0 -0.11359943485E+02 -0.13860572098E+03  0.44667058225E+02  0.14612738517E+03  0.41800000000E+01 0. -1.
         -5    1    3    3    0  501 -0.66035177331E+02 -0.10318790499E+03 -0.62145396902E+02  0.13743329705E+03  0.41800000000E+01 0. -1.
</event>
<event>
11    1  0.1704459E-009  0.1361889E+03  0.7561462E-02  0.1111890E+00
         22   -1    0    0    0    0  0.00000000000E+00  0.00000000000E+00  0.62744612389E+03  0.62744612389E+03  0.00000000000E+00 0.  1.
         22   -1    0    0    0    0 -0.00000000000E+00 -0.00000000000E+00 -0.79147708550E+02  0.79147708550E+02  0.00000000000E+00 0.  1.
         25    2    1    2    0    0  0.12590616818E+02  0.29908578257E+02  0.42053152831E+02  0.13589993887E+03  0.12508908441E+03 0.  0.
        -24    2    1    2    0    0  0.85704069401E+01 -0.11166821370E+03  0.19827935614E+03  0.24154623045E+03  0.80539658245E+02 0.  0.
         24    2    1    2    0    0 -0.21161023758E+02  0.81759635438E+02  0.30796590637E+03  0.32914766312E+03  0.79766896223E+02 0.  0.
        -11    1    5    5    0    0  0.14233006674E+02  0.78977051318E+02  0.22592667460E+03  0.23975574114E+03  0.00000000000E+00 0.  1.
         12    1    5    5    0    0 -0.35394030432E+02  0.27825841201E+01  0.82039231775E+02  0.89391921978E+02  0.00000000000E+00 0. -1.
         13    1    4    4    0    0 -0.19224283993E+02 -0.30047654673E+02  0.14424819212E+02  0.38477396686E+02  0.00000000000E+00 0. -1.
        -14    1    4    4    0    0  0.27794690933E+02 -0.81620559022E+02  0.18385453692E+03  0.20306883376E+03  0.00000000000E+00 0.  1.
          5    1    3    3  501    0 -0.42527426557E+02  0.38077793235E+02 -0.11639141985E+02  0.58407554078E+02  0.41800000000E+01 0. -1.
         -5    1    3    3    0  501  0.55118043375E+02 -0.81692149777E+01  0.53692294816E+02  0.77492384797E+02  0.41800000000E+01 0. -1.
</event>
<event>
11    1  0.1704459E-009  0.1310575E+03  0.7561462E-02  0.1117976E+00
         22   -1    0    0    0    0  0.00000000000E+00  0.00000000000E+00  0.11347421241E+03  0.11347421241E+03  0.00000000000E+00 0.  1.
         22   -1    0    0    0    0 -0.00000000000E+00 -0.00000000000E+00 -0.39716892617E+03  0.39716892617E+03  0.00000000000E+00 0.  1.
         25    2    1    2    0    0  0.15750883815E-01 -0.14373431137E+02 -0.12330346361E+03  0.17623310365E+03  0.12509103449E+03 0.  0.
         24    2    1    2    0    0 -0.76128177625E+02 -0.56633587687E+02 -0.16210319761E+03  0.20526246624E+03  0.82779047414E+02 0.  0.
        -24    2    1    2    0    0  0.76112426741E+02  0.71007018824E+02  0.17119474642E+01  0.12914756870E+03  0.76426863792E+02 0.  0.
        -13    1    4    4    0    0 -0.43253596640E+02 -0.74610862798E+02 -0.12953284349E+03  0.15561623312E+03  0.00000000000E+00 0.  1.
         14    1    4    4    0    0 -0.32874580985E+02  0.17977275111E+02 -0.32570354120E+02  0.49646233119E+02  0.00000000000E+00 0. -1.
         13    1    5    5    0    0  0.44080468135E+02 -0.24193040387E+01  0.17515390316E+02  0.47494521800E+02  0.00000000000E+00 0. -1.
        -14    1    5    5    0    0  0.32031958606E+02  0.73426322863E+02 -0.15803442852E+02  0.81653046896E+02  0.00000000000E+00 0.  1.
          5    1    3    3  501    0  0.52354250702E+02 -0.41223150335E+02 -0.70103780529E+02  0.96810785219E+02  0.41800000000E+01 0.  1.
         -5    1    3    3    0  501 -0.52338499818E+02  0.26849719198E+02 -0.53199683085E+02  0.79422318428E+02  0.41800000000E+01 0.  1.
</event>
<event>
11    1  0.1704459E-009  0.2808504E+03  0.7561462E-02  0.1008638E+00
         22   -1    0    0    0    0  0.00000000000E+00  0.00000000000E+00  0.11240992964E+03  0.11240992964E+03  0.00000000000E+00 0. -1.
         22   -1    0    0    0    0 -0.00000000000E+00 -0.00000000000E+00 -0.32706619032E+04  0.32706619032E+04  0.00000000000E+00 0.  1.
         25    2    1    2    0    0 -0.18558799915E+03  0.12293778588E+03 -0.28201221900E+04  0.28316590025E+04  0.12508770958E+03 0.  0.
        -24    2    1    2    0    0 -0.15839635643E+02  0.30625733938E+02 -0.26107222419E+03  0.27510405769E+03  0.79590870567E+02 0.  0.
         24    2    1    2    0    0  0.20142763479E+03 -0.15356351982E+03 -0.77057559297E+02  0.27630877261E+03  0.79081121001E+02 0.  0.
        -13    1    5    5    0    0  0.44535716780E+02 -0.71735214404E+02 -0.30044384196E+01  0.84489038963E+02  0.00000000000E+00 0.  1.
         14    1    5    5    0    0  0.15689191801E+03 -0.81828305418E+02 -0.74053120877E+02  0.19181973365E+03  0.00000000000E+00 0. -1.
         13    1    4    4    0    0  0.31297721373E+02  0.20388490451E+02 -0.92233671193E+02  0.99510240718E+02  0.00000000000E+00 0. -1.
        -14    1    4    4    0    0 -0.47137357016E+02  0.10237243486E+02 -0.16883855300E+03  0.17559381698E+03  0.00000000000E+00 0.  1.
          5    1    3    3  501    0 -0.20270287084E+03  0.99143355792E+02 -0.25113295860E+04  0.25214503011E+04  0.41800000000E+01 0.  1.
         -5    1    3    3    0  501  0.17114871694E+02  0.23794430093E+02 -0.30879260403E+03  0.31020870143E+03  0.41800000000E+01 0.  1.
</event>
<event>
11    1  0.1704459E-009  0.2959438E+03  0.7561462E-02  0.1001923E+00
         22   -1    0    0    0    0  0.00000000000E+00  0.00000000000E+00  0.11208245455E+03  0.11208245455E+03  0.00000000000E+00 0.  1.
         22   -1    0    0    0    0 -0.00000000000E+00 -0.00000000000E+00 -0.11505710317E+04  0.11505710317E+04  0.00000000000E+00 0.  1.
         25    2    1    2    0    0 -0.95575669229E+02 -0.25403777027E+03 -0.69084427323E+03  0.75271700891E+03  0.12508872201E+03 0.  0.
         24    2    1    2    0    0  0.42354322811E+02  0.26221051805E+03 -0.26843716862E+03  0.38561821161E+03  0.78068221383E+02 0.  0.
        -24    2    1    2    0    0  0.53221346418E+02 -0.81727477826E+01 -0.79207135335E+02  0.12431826576E+03  0.79258787478E+02 0.  0.
        -13    1    4    4    0    0  0.61246838621E+02  0.17819330893E+03 -0.16033995416E+03  0.24741247237E+03  0.00000000000E+00 0.  1.
         14    1    4    4    0    0 -0.18892515809E+02  0.84017209129E+02 -0.10809721446E+03  0.13820573924E+03  0.00000000000E+00 0. -1.
         11    1    5    5    0    0  0.71257458274E+02 -0.20083212194E+02 -0.64342343301E+02  0.98086175953E+02  0.00000000000E+00 0. -1.
        -12    1    5    5    0    0 -0.18036111856E+02  0.11910464411E+02 -0.14864792034E+02  0.26232089806E+02  0.00000000000E+00 0.  1.
          5    1    3    3  501    0 -0.10709849396E+03 -0.23113342713E+03 -0.67684363907E+03  0.72320642468E+03  0.41800000000E+01 0. -1.
         -5    1    3    3    0  501  0.11522824733E+02 -0.22904343146E+02 -0.14000634155E+02  0.29510584229E+02  0.41800000000E+01 0. -1.
</event>
<event>
11    1  0.1704459E-009  0.4361526E+03  0.7561462E-02  0.9548726E-01
         22   -1    0    0    0    0  0.00000000000E+00  0.00000000000E+00  0.25962736652E+04  0.25962736652E+04  0.00000000000E+00 0.  1.
         22   -1    0    0    0    0 -0.00000000000E+00 -0.00000000000E+00 -0.66627879997E+02  0.66627879997E+02  0.00000000000E+00 0.  1.
         25    2    1    2    0    0  0.21774938318E+03  0.52794147621E+02  0.50325362573E+03  0.56490125937E+03  0.12508878899E+03 0.  0.
        -24    2    1    2    0    0 -0.35272373550E+03 -0.10473732553E+03  0.14591081027E+04  0.15069257769E+04  0.80280139601E+02 0.  0.
         24    2    1    2    0    0  0.13497435232E+03  0.51943177910E+02  0.56728405679E+03  0.59107450893E+03  0.81496653321E+02 0.  0.
        -13    1    5    5    0    0  0.13187194061E+03  0.25021998591E+02  0.51475569633E+03  0.53196779605E+03  0.00000000000E+00 0.  1.
         14    1    5    5    0    0  0.31024117075E+01  0.26921179319E+02  0.52528360462E+02  0.59106712878E+02  0.00000000000E+00 0. -1.
         13    1    4    4    0    0 -0.61772441361E+01  0.67647328528E+01  0.82078635782E+02  0.82588270399E+02  0.00000000000E+00 0. -1.
        -14    1    4    4    0    0 -0.34654649136E+03 -0.11150205838E+03  0.13770294669E+04  0.14243375065E+04  0.00000000000E+00 0.  1.
          5    1    3    3  501    0  0.77681682923E+01  0.43215939527E+02  0.11868084274E+03  0.12661191374E+03  0.41800000000E+01 0.  1.
         -5    1    3    3    0  501  0.20998121489E+03  0.95782080936E+01  0.38457278299E+03  0.43828934563E+03  0.41800000000E+01 0.  1.
</event>
<event>
11    1  0.1704459E-009  0.3186877E+03  0.7561462E-02  0.9925783E-01
         22   -1    0    0    0    0  0.00000000000E+00  0.00000000000E+00  0.18593757451E+04  0.18593757451E+04  0.00000000000E+00 0. -1.
         22   -1    0    0    0    0 -0.00000000000E+00 -0.00000000000E+00 -0.66250834083E+03  0.66250834083E+03  0.00000000000E+00 0. -1.
         25    2    1    2    0    0  0.99242966401E+02  0.15909945074E+03 -0.53728598549E+03  0.58265419949E+03  0.12509150401E+03 0.  0.
        -24    2    1    2    0    0  0.48311009749E+02  0.97033985950E+02 -0.38219475025E+02  0.14053711499E+03  0.80872766281E+02 0.  0.
         24    2    1    2    0    0 -0.14755397615E+03 -0.25613343669E+03  0.17723728648E+04  0.17986927714E+04  0.81324049351E+02 0.  0.
        -11    1    5    5    0    0 -0.36720873892E+01 -0.64460558655E+02  0.29276967919E+03  0.29980449113E+03  0.00000000000E+00 0.  1.
         12    1    5    5    0    0 -0.14388188876E+03 -0.19167287803E+03  0.14796031856E+04  0.14988882803E+04  0.00000000000E+00 0. -1.
         13    1    4    4    0    0 -0.11464130440E+01  0.76633691852E+02 -0.41086849216E+02  0.86960716236E+02  0.00000000000E+00 0. -1.
        -14    1    4    4    0    0  0.49457422793E+02  0.20400294098E+02  0.28673741911E+01  0.53576398753E+02  0.00000000000E+00 0.  1.
          5    1    3    3  501    0  0.37227829237E+01 -0.86000650608E+00  0.60266868286E+01  0.82699503032E+01  0.41800000000E+01 0.  1.
         -5    1    3    3    0  501  0.95520183477E+02  0.15995945724E+03 -0.54331267232E+03  0.57438424919E+03  0.41800000000E+01 0.  1.
</event>
<event>
11    1  0.1704459E-009  0.2159776E+03  0.7561462E-02  0.1043767E+00
         22   -1    0    0    0    0  0.00000000000E+00  0.00000000000E+00  0.19728145378E+04  0.19728145378E+04  0.00000000000E+00 0.  1.
         22   -1    0    0    0    0 -0.00000000000E+00 -0.00000000000E+00 -0.45643499468E+02  0.45643499468E+02  0.00000000000E+00 0. -1.
         25    2    1    2    0    0  0.14105307853E+03  0.75430170600E+01  0.36210325238E+03  0.40831228717E+03  0.12508912984E+03 0.  0.
        -24    2    1    2    0    0  0.24945582251E+02 -0.12359022841E+03  0.44864399124E+03  0.47263125507E+03  0.78753068276E+02 0.  0.
         24    2    1    2    0    0 -0.16599866078E+03  0.11604721135E+03  0.11164237948E+04  0.11375144951E+04  0.80713235294E+02 0.  0.
        -11    1    5    5    0    0 -0.10707202050E+03  0.73381208114E+02  0.89703055583E+03  0.90637356392E+03  0.00000000000E+00 0.  1.
         12    1    5    5    0    0 -0.58926640278E+02  0.42666003232E+02  0.21939323893E+03  0.23114093115E+03  0.00000000000E+00 0. -1.
         11    1    4    4    0    0 -0.22182771406E+02 -0.58863473806E+02  0.13511586741E+03  0.14904120747E+03  0.00000000000E+00 0. -1.
        -12    1    4    4    0    0  0.47128353657E+02 -0.64726754600E+02  0.31352812383E+03  0.32359004761E+03  0.00000000000E+00 0.  1.
          5    1    3    3  501    0  0.36021168213E+01 -0.37067605629E+02  0.37721127315E+02  0.53172723069E+02  0.41800000000E+01 0. -1.
         -5    1    3    3    0  501  0.13745096171E+03  0.44610622689E+02  0.32438212506E+03  0.35513956410E+03  0.41800000000E+01 0. -1.
</event>
<event>
11    1  0.1704459E-009  0.1874412E+03  0.7561462E-02  0.1063778E+00
         22   -1    0    0    0    0  0.00000000000E+00  0.00000000000E+00  0.36136977777E+02  0.36136977777E+02  0.00000000000E+00 0.  1.
         22   -1    0    0    0    0 -0.00000000000E+00 -0.00000000000E+00 -0.16141625223E+04  0.16141625223E+04  0.00000000000E+00 0. -1.
         25    2    1    2    0    0  0.51087515958E+02 -0.13687393253E+03 -0.10947016279E+04  0.11114689586E+04  0.12508870562E+03 0.  0.
         24    2    1    2    0    0 -0.50049132643E+02  0.11535692222E+03 -0.31159607968E+03  0.34762930643E+03  0.89117240962E+02 0.  0.
        -24    2    1    2    0    0 -0.10383833147E+01  0.21517010316E+02 -0.17172783700E+03  0.19120123503E+03  0.81261321074E+02 0.  0.
        -13    1    4    4    0    0 -0.72748007037E+02  0.60025426642E+02 -0.19152059613E+03  0.21348410506E+03  0.00000000000E+00 0.  1.
         14    1    4    4    0    0  0.22698874394E+02  0.55331495575E+02 -0.12007548355E+03  0.13414520137E+03  0.00000000000E+00 0. -1.
         11    1    5    5    0    0  0.24871501642E+02 -0.21428061476E+02 -0.83364481151E+02  0.89595703749E+02  0.00000000000E+00 0. -1.
        -12    1    5    5    0    0 -0.25909884957E+02  0.42945071792E+02 -0.88363355845E+02  0.10160553128E+03  0.00000000000E+00 0.  1.
          5    1    3    3  501    0  0.32648305475E+02 -0.15846064961E+03 -0.86810591043E+03  0.88306343682E+03  0.41800000000E+01 0. -1.
         -5    1    3    3    0  501  0.18439210483E+02  0.21586717076E+02 -0.22659571743E+03  0.22840552181E+03  0.41800000000E+01 0. -1.
</event>
<event>
11    1  0.1704459E-009  0.5923013E+03  0.7561462E-02  0.9208053E-01
         22   -1    0    0    0    0  0.00000000000E+00  0.00000000000E+00  0.11128254677E+04  0.11128254677E+04  0.00000000000E+00 0. -1.
         22   -1    0    0    0    0 -0.00000000000E+00 -0.00000000000E+00 -0.94418316462E+03  0.94418316462E+03  0.00000000000E+00 0. -1.
         25    2    1    2    0    0 -0.47341422841E+03  0.38010477478E+03 -0.58412307413E+03  0.85173200635E+03  0.12508786290E+03 0.  0.
         24    2    1    2    0    0  0.44316170957E+03 -0.26523077483E+03  0.95012817143E+02  0.53203837714E+03  0.85426779081E+02 0.  0.
        -24    2    1    2    0    0  0.30252518843E+02 -0.11487399996E+03  0.65775256004E+03  0.67323824881E+03  0.80622941232E+02 0.  0.
        -11    1    4    4    0    0  0.36896123468E+02 -0.41944889026E+02 -0.98988452502E+01  0.56733453796E+02  0.00000000000E+00 0.  1.
         12    1    4    4    0    0  0.40626558610E+03 -0.22328588580E+03  0.10491166239E+03  0.47530492334E+03  0.00000000000E+00 0. -1.
         11    1    5    5    0    0  0.19160443930E+02 -0.12449568379E+03  0.62128746595E+03  0.63392776658E+03  0.00000000000E+00 0. -1.
        -12    1    5    5    0    0  0.11092074912E+02  0.96216838381E+01  0.36465094087E+02  0.39310482222E+02  0.00000000000E+00 0.  1.
          5    1    3    3  501    0 -0.88890313035E+02  0.48243756633E+02 -0.44264832333E+02  0.11047984245E+03  0.41800000000E+01 0.  1.
         -5    1    3    3    0  501 -0.38452391537E+03  0.33186101815E+03 -0.53985824179E+03  0.74125216390E+03  0.41800000000E+01 0.  1.
</event>
<event>
11    1  0.1704459E-009  0.3600087E+03  0.7561462E-02  0.9775731E-01
         22   -1    0    0    0    0  0.00000000000E+00  0.00000000000E+00  0.12586352793E+03  0.12586352793E+03  0.00000000000E+00 0. -1.
         22   -1    0    0    0    0 -0.00000000000E+00 -0.00000000000E+00 -0.19414022825E+04  0.19414022825E+04  0.00000000000E+00 0. -1.
         25    2    1    2    0    0  0.49687333559E+02 -0.33460026196E+03 -0.14569240238E+04  0.15009001417E+04  0.12508979789E+03 0.  0.
         24    2    1    2    0    0 -0.30650927351E+02  0.33374493907E+03 -0.23679141428E+03  0.41800223689E+03  0.79564643305E+02 0.  0.
        -24    2    1    2    0    0 -0.19036406208E+02  0.85532289144E+00 -0.12182331645E+03  0.14836343190E+03  0.82508612608E+02 0.  0.
        -13    1    4    4    0    0 -0.48369879905E+02  0.20651528399E+03 -0.11638783919E+03  0.24193870487E+03  0.00000000000E+00 0.  1.
         14    1    4    4    0    0  0.17718952554E+02  0.12722965508E+03 -0.12040357509E+03  0.17606353202E+03  0.00000000000E+00 0. -1.
         11    1    5    5    0    0 -0.37904144832E+02  0.26881373241E+02 -0.97650286692E+02  0.10814301140E+03  0.00000000000E+00 0. -1.
        -12    1    5    5    0    0  0.18867738624E+02 -0.26026050350E+02 -0.24173029760E+02  0.40220420502E+02  0.00000000000E+00 0.  1.
          5    1    3    3  501    0 -0.97395310415E+01 -0.19583369923E+03 -0.61417939803E+03  0.64473211614E+03  0.41800000000E+01 0.  1.
         -5    1    3    3    0  501  0.59426864600E+02 -0.13876656273E+03 -0.84274462582E+03  0.85616802551E+03  0.41800000000E+01 0.  1.
</event>
<event>
11    1  0.1704459E-009  0.1857582E+03  0.7561462E-02  0.1065078E+00
         22   -1    0    0    0    0  0.00000000000E+00  0.00000000000E+00  0.44973048599E+03  0.44973048599E+03  0.00000000000E+00 0.  1.
         22   -1    0    0    0    0 -0.00000000000E+00 -0.00000000000E+00 -0.25671462634E+03  0.25671462634E+03  0.00000000000E+00 0.  1.
         25    2    1    2    0    0  0.21086970594E+02 -0.14924382611E+03 -0.15624807960E+03  0.25056005798E+03  0.12509396595E+03 0.  0.
        -24    2    1    2    0    0  0.65384838096E+02  0.10638999312E+03  0.82762427170E+02  0.16101337059E+03  0.59005749448E+02 0.  0.
         24    2    1    2    0    0 -0.86471808690E+02  0.42853832991E+02  0.26650151207E+03  0.29487168376E+03  0.81316844794E+02 0.  0.
        -11    1    5    5    0    0 -0.13289560376E+00  0.13932996660E+02  0.13026634204E+03  0.13100941159E+03  0.00000000000E+00 0.  1.
         12    1    5    5    0    0 -0.86338913087E+02  0.28920836331E+02  0.13623517004E+03  0.16386227217E+03  0.00000000000E+00 0. -1.
         11    1    4    4    0    0  0.64768186430E+02  0.75064137818E+02  0.83576276127E+02  0.12967087835E+03  0.00000000000E+00 0. -1.
        -12    1    4    4    0    0  0.61665166625E+00  0.31325855304E+02 -0.81384895788E+00  0.31342492242E+02  0.00000000000E+00 0.  1.
          5    1    3    3  501    0 -0.50884344559E+02 -0.50278962753E+02 -0.74322767941E+02  0.10324019010E+03  0.41800000000E+01 0. -1.
         -5    1    3    3    0  501  0.71971315154E+02 -0.98964863360E+02 -0.81925311654E+02  0.14731986789E+03  0.41800000000E+01 0. -1.
</event>
<event>
11    1  0.1704459E-009  0.4449968E+03  0.7561462E-02  0.9525592E-01
         22   -1    0    0    0    0  0.00000000000E+00  0.00000000000E+00  0.78836881145E+03  0.78836881145E+03  0.00000000000E+00 0.  1.
         22   -1    0    0    0    0 -0.00000000000E+00 -0.00000000000E+00 -0.35008461514E+03  0.35008461514E+03  0.00000000000E+00 0.  1.
         25    2    1    2    0    0  0.20376659380E+03  0.33208892053E+03  0.11327322417E+03  0.42459721613E+03  0.12509235287E+03 0.  0.
         24    2    1    2    0    0 -0.26868314350E+03 -0.38903366458E+03  0.14982637506E+03  0.50252291856E+03  0.80892009723E+02 0.  0.
        -24    2    1    2    0    0  0.64916549706E+02  0.56944744054E+02  0.17518459708E+03  0.21133329190E+03  0.80717128966E+02 0.  0.
        -11    1    4    4    0    0 -0.24740949677E+03 -0.34993538974E+03  0.10919442779E+03  0.44225519686E+03  0.00000000000E+00 0.  1.
         12    1    4    4    0    0 -0.21273646730E+02 -0.39098274842E+02  0.40631947270E+02  0.60267721707E+02  0.00000000000E+00 0. -1.
         13    1    5    5    0    0  0.81552566431E+02  0.39797275641E+02  0.11438997473E+03  0.14601270684E+03  0.00000000000E+00 0. -1.
        -14    1    5    5    0    0 -0.16636016725E+02  0.17147468413E+02  0.60794622350E+02  0.65320585057E+02  0.00000000000E+00 0.  1.
          5    1    3    3  501    0  0.16679501480E+03  0.22278105844E+03  0.13127111123E+03  0.30773617597E+03  0.41800000000E+01 0.  1.
         -5    1    3    3    0  501  0.36971579000E+02  0.10930786209E+03 -0.17997887051E+02  0.11686104016E+03  0.41800000000E+01 0.  1.
</event>
<event>
11    1  0.1704459E-009  0.3221600E+03  0.7561462E-02  0.9912256E-01
         22   -1    0    0    0    0  0.00000000000E+00  0.00000000000E+00  0.84904258615E+03  0.84904258615E+03  0.00000000000E+00 0. -1.
         22   -1    0    0    0    0 -0.00000000000E+00 -0.00000000000E+00 -0.15550233624E+04  0.15550233624E+04  0.00000000000E+00 0.  1.
         25    2    1    2    0    0 -0.44186894648E+03 -0.11139824311E+03 -0.12930636358E+04  0.13767057089E+04  0.12508920065E+03 0.  0.
         24    2    1    2    0    0  0.20073881608E+03 -0.56469674874E+02 -0.12279235135E+03  0.25453444142E+03  0.78898186650E+02 0.  0.
        -24    2    1    2    0    0  0.24113013039E+03  0.16786791798E+03  0.70987521097E+03  0.77282579822E+03  0.83746770531E+02 0.  0.
        -11    1    4    4    0    0  0.19982508805E+03 -0.36898472475E+02 -0.10917591549E+03  0.23067497396E+03  0.00000000000E+00 0.  1.
         12    1    4    4    0    0  0.91372803065E+00 -0.19571202399E+02 -0.13616435853E+02  0.23859467463E+02  0.00000000000E+00 0. -1.
         11    1    5    5    0    0  0.20994361425E+03  0.10780526187E+03  0.51409073328E+03  0.56567444497E+03  0.00000000000E+00 0. -1.
        -12    1    5    5    0    0  0.31186516147E+02  0.60062656108E+02  0.19578447769E+03  0.20715135325E+03  0.00000000000E+00 0.  1.
          5    1    3    3  501    0 -0.28528162100E+03 -0.84989306488E+02 -0.66032348293E+03  0.72432959349E+03  0.41800000000E+01 0.  1.
         -5    1    3    3    0  501 -0.15658732547E+03 -0.26408936620E+02 -0.63274015289E+03  0.65237611538E+03  0.41800000000E+01 0.  1.
</event>
<event>
11    1  0.1704459E-009  0.2067149E+03  0.7561462E-02  0.1049874E+00
         22   -1    0    0    0    0  0.00000000000E+00  0.00000000000E+00  0.12521947773E+03  0.12521947773E+03  0.00000000000E+00 0. -1.
         22   -1    0    0    0    0 -0.00000000000E+00 -0.00000000000E+00 -0.86904949945E+03  0.86904949945E+03  0.00000000000E+00 0. -1.
         25    2    1    2    0    0 -0.15517713564E+03  0.53276830860E+02 -0.52109103720E+03  0.56044927922E+03  0.12509660822E+03 0.  0.
        -24    2    1    2    0    0  0.15858490094E+03 -0.46781454949E+02 -0.28136847694E+03  0.33543690656E+03  0.77537237098E+02 0.  0.
         24    2    1    2    0    0 -0.34077653004E+01 -0.64953759111E+01  0.58629492426E+02  0.98382791398E+02  0.78663546122E+02 0.  0.
        -13    1    5    5    0    0  0.71783267531E+01 -0.18157730339E+02  0.73905526183E+02  0.76441208431E+02  0.00000000000E+00 0.  1.
         14    1    5    5    0    0 -0.10586092053E+02  0.11662354428E+02 -0.15276033757E+02  0.21941582967E+02  0.00000000000E+00 0. -1.
         13    1    4    4    0    0  0.52805613350E+02  0.21043370917E+02 -0.82106999958E+02  0.99863986016E+02  0.00000000000E+00 0. -1.
        -14    1    4    4    0    0  0.10577928759E+03 -0.67824825866E+02 -0.19926147698E+03  0.23557292055E+03  0.00000000000E+00 0.  1.
          5    1    3    3  501    0 -0.31873696674E+02  0.47066162769E+02 -0.58608244425E+02  0.81753011762E+02  0.41800000000E+01 0.  1.
         -5    1    3    3    0  501 -0.12330343896E+03  0.62106680909E+01 -0.46248279278E+03  0.47869626745E+03  0.41800000000E+01 0.  1.
</event>
<event>
11    1  0.1704459E-009  0.1416996E+03  0.7561462E-02  0.1105675E+00
         22   -1    0    0    0    0  0.00000000000E+00  0.00000000000E+00  0.49831985229E+03  0.49831985229E+03  0.00000000000E+00 0. -1.
         22   -1    0    0    0    0 -0.00000000000E+00 -0.00000000000E+00 -0.26823179174E+03  0.26823179174E+03  0.00000000000E+00 0. -1.
         25    2    1    2    0    0  0.35959740219E+01  0.66154778404E+02 -0.20459757768E+03  0.24879073909E+03  0.12508907757E+03 0.  0.
        -24    2    1    2    0    0  0.10452294065E+03 -0.69676508860E+01  0.16010626297E+03  0.20678264704E+03  0.78431208034E+02 0.  0.
         24    2    1    2    0    0 -0.10811891467E+03 -0.59187127518E+02  0.27457937526E+03  0.31097825789E+03  0.78235719400E+02 0.  0.
        -11    1    5    5    0    0  0.11985833169E+02 -0.11062525293E+02  0.37402384349E+02  0.40804142163E+02  0.00000000000E+00 0.  1.
         12    1    5    5    0    0 -0.12010474784E+03 -0.48124602225E+02  0.23717699091E+03  0.27017411573E+03  0.00000000000E+00 0. -1.
         13    1    4    4    0    0  0.52967779667E+02  0.12267830922E+02  0.22978534357E+02  0.59026251783E+02  0.00000000000E+00 0. -1.
        -14    1    4    4    0    0  0.51555160980E+02 -0.19235481808E+02  0.13712772862E+03  0.14775639526E+03  0.00000000000E+00 0.  1.
          5    1    3    3  501    0  0.32111070774E+02  0.62752578741E+02 -0.20791721307E+03  0.21958152677E+03  0.41800000000E+01 0. -1.
         -5    1    3    3    0  501 -0.28515096753E+02  0.34021996636E+01  0.33196353894E+01  0.29209212322E+02  0.41800000000E+01 0. -1.
</event>
<event>
11    1  0.1704459E-009  0.2265809E+03  0.7561462E-02  0.1037172E+00
         22   -1    0    0    0    0  0.00000000000E+00  0.00000000000E+00  0.17366138277E+03  0.17366138277E+03  0.00000000000E+00 0. -1.
         22   -1    0    0    0    0 -0.00000000000E+00 -0.00000000000E+00 -0.73287208971E+03  0.73287208971E+03  0.00000000000E+00 0. -1.
         25    2    1    2    0    0 -0.11146346223E+03  0.25072931884E+02 -0.36197382868E+03  0.39965791302E+03  0.12509452211E+03 0.  0.
         24    2    1    2    0    0 -0.15131029886E+03  0.14954626830E+02 -0.14092652448E+03  0.22331379440E+03  0.83007939750E+02 0.  0.
        -24    2    1    2    0    0  0.26277376109E+03 -0.40027558714E+02 -0.56310353777E+02  0.28356176507E+03  0.81142859780E+02 0.  0.
        -11    1    4    4    0    0 -0.13659512884E+03 -0.17388148981E+02 -0.11198909938E+03  0.17748840899E+03  0.00000000000E+00 0.  1.
         12    1    4    4    0    0 -0.14715170022E+02  0.32342775811E+02 -0.28937425097E+02  0.45825385401E+02  0.00000000000E+00 0. -1.
         11    1    5    5    0    0  0.26555372204E+03 -0.38169428625E+02 -0.45332384951E+02  0.27208584986E+03  0.00000000000E+00 0. -1.
        -12    1    5    5    0    0 -0.27799609492E+01 -0.18581300890E+01 -0.10977968825E+02  0.11475915207E+02  0.00000000000E+00 0.  1.
          5    1    3    3  501    0 -0.13464531404E+02 -0.43427117800E+02 -0.64481169106E+02  0.79009504085E+02  0.41800000000E+01 0.  1.
         -5    1    3    3    0  501 -0.97998930823E+02  0.68500049685E+02 -0.29749265958E+03  0.32064840893E+03  0.41800000000E+01 0.  1.
</event>
<event>
11    1  0.1704459E-009  0.1662338E+03  0.7561462E-02  0.1081356E+00
         22   -1    0    0    0    0  0.00000000000E+00  0.00000000000E+00  0.82250137273E+03  0.82250137273E+03  0.00000000000E+00 0. -1.
         22   -1    0    0    0    0 -0.00000000000E+00 -0.00000000000E+00 -0.36334315421E+03  0.36334315421E+03  0.00000000000E+00 0.  1.
         25    2    1    2    0    0  0.78032830369E+02 -0.76935705623E+02 -0.32577318950E+03  0.36576390603E+03  0.12508732367E+03 0.  0.
        -24    2    1    2    0    0 -0.11079115010E+03  0.39533868818E+02  0.48002129187E+03  0.50099824537E+03  0.82104783604E+02 0.  0.
         24    2    1    2    0    0  0.32758319732E+02  0.37401836805E+02  0.30491011615E+03  0.31908237553E+03  0.79820915410E+02 0.  0.
        -11    1    5    5    0    0  0.16383726798E+02  0.11470530453E+01  0.59212226198E+01  0.17458611393E+02  0.00000000000E+00 0.  1.
         12    1    5    5    0    0  0.16374592934E+02  0.36254783759E+02  0.29898889353E+03  0.30162376414E+03  0.00000000000E+00 0. -1.
         13    1    4    4    0    0 -0.10103595182E+03  0.60948660170E+02  0.42671902948E+03  0.44273257488E+03  0.00000000000E+00 0. -1.
        -14    1    4    4    0    0 -0.97551982827E+01 -0.21414791352E+02  0.53302262392E+02  0.58265670496E+02  0.00000000000E+00 0.  1.
          5    1    3    3  501    0 -0.14381874303E+02 -0.70797261867E+02 -0.16506003007E+03  0.18022590414E+03  0.41800000000E+01 0.  1.
         -5    1    3    3    0  501  0.92414704672E+02 -0.61384437557E+01 -0.16071315944E+03  0.18553800190E+03  0.41800000000E+01 0.  1.
</event>
<event>
11    1  0.1704459E-009  0.1959431E+03  0.7561462E-02  0.1057430E+00
         22   -1    0    0    0    0  0.00000000000E+00  0.00000000000E+00  0.24197917561E+03  0.24197917561E+03  0.00000000000E+00 0.  1.
         22   -1    0    0    0    0 -0.00000000000E+00 -0.00000000000E+00 -0.32456808069E+03  0.32456808069E+03  0.00000000000E+00 0. -1.
         25    2    1    2    0    0  0.44392335227E+02 -0.27483443244E+02 -0.80895198501E+02  0.15785660911E+03  0.12509459149E+03 0.  0.
         24    2    1    2    0    0  0.66733374576E+02 -0.14952299368E+03  0.30984854323E+02  0.18353016648E+03  0.76894680506E+02 0.  0.
        -24    2    1    2    0    0 -0.11112570980E+03  0.17700643692E+03 -0.32678560909E+02  0.22516048071E+03  0.77130743805E+02 0.  0.
        -11    1    4    4    0    0  0.46502978967E+02 -0.25977758313E+02 -0.43618185858E+01  0.53445265844E+02  0.00000000000E+00 0.  1.
         12    1    4    4    0    0  0.20230395609E+02 -0.12354523536E+03  0.35346672909E+02  0.13008490064E+03  0.00000000000E+00 0. -1.
         11    1    5    5    0    0 -0.31706640708E+02  0.46283477017E+02 -0.44698739290E+02  0.71731782384E+02  0.00000000000E+00 0. -1.
        -12    1    5    5    0    0 -0.79419069095E+02  0.13072295990E+03  0.12020178381E+02  0.15342869833E+03  0.00000000000E+00 0.  1.
          5    1    3    3  501    0  0.20660658416E+02 -0.10997171697E+02  0.32778468845E+02  0.40493221795E+02  0.41800000000E+01 0.  1.
         -5    1    3    3    0  501  0.23731676812E+02 -0.16486271547E+02 -0.11367366735E+03  0.11736338731E+03  0.41800000000E+01 0.  1.
</event>
<event>
11    1  0.1704459E-009  0.1539157E+03  0.7561462E-02  0.1092944E+00
         22   -1    0    0    0    0  0.00000000000E+00  0.00000000000E+00  0.46881275297E+03  0.46881275297E+03  0.00000000000E+00 0.  1.
         22   -1    0    0    0    0 -0.00000000000E+00 -0.00000000000E+00 -0.90993854661E+02  0.90993854661E+02  0.00000000000E+00 0. -1.
         25    2    1    2    0    0  0.23813057960E+02  0.52969126720E+02  0.13450856757E+03  0.19264683448E+03  0.12508979962E+03 0.  0.
        -24    2    1    2    0    0 -0.10643463535E+03 -0.60755442642E+02  0.92446473676E+02  0.17799588373E+03  0.90092334409E+02 0.  0.
         24    2    1    2    0    0  0.82621577387E+02  0.77863159220E+01  0.15086385706E+03  0.18916388942E+03  0.78333402370E+02 0.  0.
        -13    1    5    5    0    0  0.93184842784E+01  0.17952466205E+02  0.93134542776E+02  0.95305656968E+02  0.00000000000E+00 0.  1.
         14    1    5    5    0    0  0.73303093108E+02 -0.10166150283E+02  0.57729314287E+02  0.93858232451E+02  0.00000000000E+00 0. -1.
         13    1    4    4    0    0 -0.20854823328E+02 -0.13535764376E+02 -0.17861949636E+02  0.30613556116E+02  0.00000000000E+00 0. -1.
        -14    1    4    4    0    0 -0.85579812018E+02 -0.47219678266E+02  0.11030842331E+03  0.14738232762E+03  0.00000000000E+00 0.  1.
          5    1    3    3  501    0 -0.31408916861E+02 -0.40189069123E+01  0.10183697486E+03  0.10672822270E+03  0.41800000000E+01 0.  1.
         -5    1    3    3    0  501  0.55221974820E+02  0.56988033633E+02  0.32671592711E+02  0.85918611782E+02  0.41800000000E+01 0.  1.
</event>
<event>
11    1  0.1704459E-009  0.1829956E+03  0.7561462E-02  0.1067245E+00
         22   -1    0    0    0    0  0.00000000000E+00  0.00000000000E+00  0.40012789131E+03  0.40012789131E+03  0.00000000000E+00 0.  1.
         22   -1    0    0    0    0 -0.00000000000E+00 -0.00000000000E+00 -0.16427623666E+03  0.16427623666E+03  0.00000000000E+00 0. -1.
         25    2    1    2    0    0 -0.60409660878E+02 -0.11988125675E+03  0.56841134683E+02  0.19209287959E+03  0.12509163422E+03 0.  0.
        -24    2    1    2    0    0 -0.58459778500E+02  0.15066104982E+03  0.11095969955E+03  0.21178328314E+03  0.80148652254E+02 0.  0.
         24    2    1    2    0    0  0.11886943938E+03 -0.30779793071E+02  0.68050820426E+02  0.16052796523E+03  0.77852258682E+02 0.  0.
        -11    1    5    5    0    0  0.13479632705E+02  0.20613013416E+02 -0.63693775775E+00  0.24637420921E+02  0.00000000000E+00 0.  1.
         12    1    5    5    0    0  0.10538980667E+03 -0.51392806487E+02  0.68687758183E+02  0.13589054431E+03  0.00000000000E+00 0. -1.
         13    1    4    4    0    0 -0.72051680478E+02  0.80429309239E+02  0.76814225593E+02  0.13251695627E+03  0.00000000000E+00 0. -1.
        -14    1    4    4    0    0  0.13591901978E+02  0.70231740582E+02  0.34145473955E+02  0.79266326875E+02  0.00000000000E+00 0.  1.
          5    1    3    3  501    0 -0.43085825007E+02 -0.13853944353E+03  0.72153309448E+02  0.16208990775E+03  0.41800000000E+01 0. -1.
         -5    1    3    3    0  501 -0.17323835871E+02  0.18658186783E+02 -0.15312174766E+02  0.30002971842E+02  0.41800000000E+01 0. -1.
</event>
<event>
11    1  0.1704459E-009  0.1457083E+03  0.7561462E-02  0.1101346E+00
         22   -1    0    0    0    0  0.00000000000E+00  0.00000000000E+00  0.74297476702E+03  0.74297476702E+03  0.00000000000E+00 0.  1.
         22   -1    0    0    0    0 -0.00000000000E+00 -0.00000000000E+00 -0.98408866324E+02  0.98408866324E+02  0.00000000000E+00 0. -1.
         25    2    1    2    0    0 -0.47000571899E+02  0.47155852544E+02 -0.10506184189E+02  0.14208565285E+03  0.12508087245E+03 0.  0.
        -24    2    1    2    0    0  0.55161775300E+02 -0.88484623125E+02  0.20571136219E+03  0.24115742880E+03  0.70479720119E+02 0.  0.
         24    2    1    2    0    0 -0.81612034009E+01  0.41328770581E+02  0.44936072269E+03  0.45814055169E+03  0.78695828865E+02 0.  0.
        -13    1    5    5    0    0  0.28506898320E+02  0.35527841891E+02  0.33030441188E+03  0.33343046548E+03  0.00000000000E+00 0.  1.
         14    1    5    5    0    0 -0.36668101721E+02  0.58009286894E+01  0.11905631081E+03  0.12471008621E+03  0.00000000000E+00 0. -1.
         13    1    4    4    0    0 -0.12518982551E+02 -0.85520548069E+01  0.73639873903E+01  0.16854995575E+02  0.00000000000E+00 0. -1.
        -14    1    4    4    0    0  0.67680757851E+02 -0.79932568318E+02  0.19834737480E+03  0.22430243322E+03  0.00000000000E+00 0.  1.
          5    1    3    3  501    0  0.16533781059E+02  0.54208037765E+02 -0.42036665055E+02  0.70685436148E+02  0.41800000000E+01 0.  1.
         -5    1    3    3    0  501 -0.63534352958E+02 -0.70521852205E+01  0.31530480865E+02  0.71400216707E+02  0.41800000000E+01 0.  1.
</event>
<event>
11    1  0.1704459E-009  0.1508962E+03  0.7561462E-02  0.1095967E+00
         22   -1    0    0    0    0  0.00000000000E+00  0.00000000000E+00  0.35502467517E+03  0.35502467517E+03  0.00000000000E+00 0. -1.
         22   -1    0    0    0    0 -0.00000000000E+00 -0.00000000000E+00 -0.31423796175E+03  0.31423796175E+03  0.00000000000E+00 0. -1.
         25    2    1    2    0    0 -0.47500237761E+02 -0.98081129339E+00 -0.17435635850E+03  0.21978406664E+03  0.12509061363E+03 0.  0.
        -24    2    1    2    0    0 -0.38884692962E+02 -0.29610103614E+01 -0.87704906373E+02  0.12437983831E+03  0.79103771379E+02 0.  0.
         24    2    1    2    0    0  0.86384930723E+02  0.39418216547E+01  0.30284797830E+03  0.32509873197E+03  0.80587799057E+02 0.  0.
        -11    1    5    5    0    0  0.11876603903E+02  0.12928400892E+02  0.54565016543E+01  0.18383978900E+02  0.00000000000E+00 0.  1.
         12    1    5    5    0    0  0.74508326820E+02 -0.89865792375E+01  0.29739147664E+03  0.30671475307E+03  0.00000000000E+00 0. -1.
         13    1    4    4    0    0  0.18568530931E+02  0.17653557309E+02 -0.37122019865E+02  0.45105241219E+02  0.00000000000E+00 0. -1.
        -14    1    4    4    0    0 -0.57453223893E+02 -0.20614567671E+02 -0.50582886508E+02  0.79274597087E+02  0.00000000000E+00 0.  1.
          5    1    3    3  501    0  0.17661195251E+02  0.43065678110E+01 -0.14800149098E+03  0.14917231002E+03  0.41800000000E+01 0. -1.
         -5    1    3    3    0  501 -0.65161433012E+02 -0.52873791044E+01 -0.26354867522E+02  0.70611756614E+02  0.41800000000E+01 0. -1.
</event>
<event>
11    1  0.1704459E-009  0.2389323E+03  0.7561462E-02  0.1029966E+00
         22   -1    0    0    0    0  0.00000000000E+00  0.00000000000E+00  0.14868370545E+04  0.14868370545E+04  0.00000000000E+00 0. -1.
         22   -1    0    0    0    0 -0.00000000000E+00 -0.00000000000E+00 -0.16079020033E+03  0.16079020033E+03  0.00000000000E+00 0. -1.
         25    2    1    2    0    0  0.64074636612E+02  0.67676946006E+02 -0.45833830671E+02  0.16258684488E+03  0.12509202219E+03 0.  0.
         24    2    1    2    0    0  0.13548539703E+03  0.76929370851E+02  0.13494647062E+03  0.22117884285E+03  0.80219135408E+02 0.  0.
        -24    2    1    2    0    0 -0.19956003364E+03 -0.14460631686E+03  0.12369342142E+04  0.12638615671E+04  0.81268792253E+02 0.  0.
        -11    1    4    4    0    0  0.74129889000E+02  0.20872068533E+01  0.34820920436E+02  0.81927366463E+02  0.00000000000E+00 0.  1.
         12    1    4    4    0    0  0.61355508030E+02  0.74842163998E+02  0.10012555018E+03  0.13925147639E+03  0.00000000000E+00 0. -1.
         13    1    5    5    0    0 -0.89958604124E+02 -0.10004062741E+03  0.51433097399E+03  0.53163618048E+03  0.00000000000E+00 0. -1.
        -14    1    5    5    0    0 -0.10960142952E+03 -0.44565689447E+02  0.72260324025E+03  0.73222538664E+03  0.00000000000E+00 0.  1.
          5    1    3    3  501    0  0.10192145641E+03  0.43555685416E+02 -0.32253721306E+02  0.11551128060E+03  0.41800000000E+01 0.  1.
         -5    1    3    3    0  501 -0.37846819798E+02  0.24121260591E+02 -0.13580109365E+02  0.47075564274E+02  0.41800000000E+01 0.  1.
</event>
<event>
11    1  0.1704459E-009  0.1933680E+03  0.7561462E-02  0.1059315E+00
         22   -1    0    0    0    0  0.00000000000E+00  0.00000000000E+00  0.41399737601E+03  0.41399737601E+03  0.00000000000E+00 0.  1.
         22   -1    0    0    0    0 -0.00000000000E+00 -0.00000000000E+00 -0.19904146518E+03  0.19904146518E+03  0.00000000000E+00 0.  1.
         25    2    1    2    0    0 -0.13303739864E+03 -0.17859688343E+02 -0.35322759051E+02  0.18685093502E+03  0.12509059399E+03 0.  0.
         24    2    1    2    0    0  0.17900694851E+03 -0.68862344163E+02  0.10673010042E+03  0.23387445929E+03  0.80749231047E+02 0.  0.
        -24    2    1    2    0    0 -0.45969549871E+02  0.86722032506E+02  0.14354856946E+03  0.19231344688E+03  0.82124050181E+02 0.  0.
        -13    1    4    4    0    0  0.17862126305E+03 -0.80180900285E+02  0.10570220299E+03  0.22250278224E+03  0.00000000000E+00 0.  1.
         14    1    4    4    0    0  0.38568546125E+00  0.11318556123E+02  0.10278974242E+01  0.11371677057E+02  0.00000000000E+00 0. -1.
         13    1    5    5    0    0  0.14301760800E+02 -0.14366362336E+01  0.44112674021E+02  0.46395390880E+02  0.00000000000E+00 0. -1.
        -14    1    5    5    0    0 -0.60271310671E+02  0.88158668739E+02  0.99435895438E+02  0.14591805600E+03  0.00000000000E+00 0.  1.
          5    1    3    3  501    0 -0.13548228102E+03  0.25496923277E+02 -0.15044058134E+02  0.13874198230E+03  0.41800000000E+01 0. -1.
         -5    1    3    3    0  501  0.24448823772E+01 -0.43356611620E+02 -0.20278700916E+02  0.48108952720E+02  0.41800000000E+01 0. -1.
</event>
<event>
11    1  0.1704459E-009  0.2300379E+03  0.7561462E-02  0.1035106E+00
         22   -1    0    0    0    0  0.00000000000E+00  0.00000000000E+00  0.12243365040E+04  0.12243365040E+04  0.00000000000E+00 0.  1.
         22   -1    0    0    0    0 -0.00000000000E+00 -0.00000000000E+00 -0.40389497030E+03  0.40389497030E+03  0.00000000000E+00 0. -1.
         25    2    1    2    0    0 -0.28040284904E+02 -0.18888584239E+03 -0.10190063749E+03  0.24998896386E+03  0.12508646249E+03 0.  0.
        -24    2    1    2    0    0 -0.31448632000E+02  0.19578274792E+03 -0.17350178359E+03  0.27771348578E+03  0.87761098643E+02 0.  0.
         24    2    1    2    0    0  0.59488916904E+02 -0.68969055308E+01  0.10958439548E+04  0.11005290247E+04  0.81875896140E+02 0.  0.
        -11    1    5    5    0    0  0.77956479246E+02 -0.89978699520E+01  0.98652738159E+03  0.98964359693E+03  0.00000000000E+00 0.  1.
         12    1    5    5    0    0 -0.18467562342E+02  0.21009644212E+01  0.10931657318E+03  0.11088542773E+03  0.00000000000E+00 0. -1.
         13    1    4    4    0    0 -0.56555364725E+02  0.98668757821E+02 -0.11429170898E+03  0.16123469785E+03  0.00000000000E+00 0. -1.
        -14    1    4    4    0    0  0.25106732726E+02  0.97113990103E+02 -0.59210074606E+02  0.11647878793E+03  0.00000000000E+00 0.  1.
          5    1    3    3  501    0 -0.23968697042E+02 -0.19877904760E+03 -0.11628953811E+03  0.23157792917E+03  0.41800000000E+01 0.  1.
         -5    1    3    3    0  501 -0.40715878629E+01  0.98932052109E+01  0.14388900627E+02  0.18411034689E+02  0.41800000000E+01 0.  1.
</event>
<event>
11    1  0.1704459E-009  0.1960150E+03  0.7561462E-02  0.1057378E+00
         22   -1    0    0    0    0  0.00000000000E+00  0.00000000000E+00  0.85443585470E+02  0.85443585470E+02  0.00000000000E+00 0.  1.
         22   -1    0    0    0    0 -0.00000000000E+00 -0.00000000000E+00 -0.10523932936E+04  0.10523932936E+04  0.00000000000E+00 0. -1.
         25    2    1    2    0    0 -0.91137264179E+02 -0.71267620778E+02 -0.41614465643E+03  0.44967676530E+03  0.12509094084E+03 0.  0.
         24    2    1    2    0    0  0.17424384211E+03  0.86564570360E+02 -0.53532744556E+03  0.57531427974E+03  0.80973484270E+02 0.  0.
        -24    2    1    2    0    0 -0.83106577929E+02 -0.15296949582E+02 -0.15477606139E+02  0.11284583403E+03  0.73170526879E+02 0.  0.
        -11    1    4    4    0    0  0.18156077039E+03  0.86684653837E+02 -0.49494903046E+03  0.53427809735E+03  0.00000000000E+00 0.  1.
         12    1    4    4    0    0 -0.73169282827E+01 -0.12008347692E+00 -0.40378415094E+02  0.41036182388E+02  0.00000000000E+00 0. -1.
         11    1    5    5    0    0 -0.35732226626E+02 -0.25443299131E+02 -0.39265620527E+02  0.58872255313E+02  0.00000000000E+00 0. -1.
        -12    1    5    5    0    0 -0.47374351303E+02  0.10146349549E+02  0.23788014388E+02  0.53973578713E+02  0.00000000000E+00 0.  1.
          5    1    3    3  501    0 -0.59725964278E+02 -0.10615589816E+03 -0.32429954097E+03  0.34644470005E+03  0.41800000000E+01 0. -1.
         -5    1    3    3    0  501 -0.31411299900E+02  0.34888277384E+02 -0.91845115469E+02  0.10323206525E+03  0.41800000000E+01 0. -1.
</event>
<event>
11    1  0.1704459E-009  0.1369203E+03  0.7561462E-02  0.1111047E+00
         22   -1    0    0    0    0  0.00000000000E+00  0.00000000000E+00  0.19489572183E+03  0.19489572183E+03  0.00000000000E+00 0. -1.
         22   -1    0    0    0    0 -0.00000000000E+00 -0.00000000000E+00 -0.46796887266E+03  0.46796887266E+03  0.00000000000E+00 0. -1.
         25    2    1    2    0    0  0.59041362088E+02  0.40592102566E+02 -0.24772679827E+03  0.28661728285E+03  0.12508916428E+03 0.  0.
        -24    2    1    2    0    0 -0.36341228169E+01 -0.45942485946E+02 -0.17406948755E+03  0.19746779945E+03  0.81051998504E+02 0.  0.
         24    2    1    2    0    0 -0.55407239271E+02  0.53503833800E+01  0.14872313499E+03  0.17877951219E+03  0.82127670923E+02 0.  0.
        -13    1    5    5    0    0 -0.64787746288E+01 -0.33455417478E+02  0.33867169335E+02  0.48043986493E+02  0.00000000000E+00 0.  1.
         14    1    5    5    0    0 -0.48928464642E+02  0.38805800858E+02  0.11485596565E+03  0.13073552570E+03  0.00000000000E+00 0. -1.
         13    1    4    4    0    0  0.25436282384E+02 -0.56725278401E+02 -0.11262462435E+03  0.12864317970E+03  0.00000000000E+00 0. -1.
        -14    1    4    4    0    0 -0.29070405201E+02  0.10782792455E+02 -0.61444863193E+02  0.68824619755E+02  0.00000000000E+00 0.  1.
          5    1    3    3  501    0  0.67541395063E+02 -0.81662260030E+01 -0.21872658857E+03  0.22910111358E+03  0.41800000000E+01 0.  1.
         -5    1    3    3    0  501 -0.85000329754E+01  0.48758328569E+02 -0.29000209700E+02  0.57516169275E+02  0.41800000000E+01 0.  1.
</event>
<event>
11    1  0.1704459E-009  0.2363371E+03  0.7561462E-02  0.1031440E+00
         22   -1    0    0    0    0  0.00000000000E+00  0.00000000000E+00  0.37029558032E+03  0.37029558032E+03  0.00000000000E+00 0. -1.
         22   -1    0    0    0    0 -0.00000000000E+00 -0.00000000000E+00 -0.86111333798E+03  0.86111333798E+03  0.00000000000E+00 0. -1.
         25    2    1    2    0    0 -0.45701376396E+02 -0.16479321932E+03 -0.34700515161E+03  0.40658307518E+03  0.12510715743E+03 0.  0.
        -24    2    1    2    0    0  0.22085919277E+03  0.16304378061E+03 -0.40727559186E+03  0.49781561561E+03  0.81147532282E+02 0.  0.
         24    2    1    2    0    0 -0.17515781637E+03  0.17494387105E+01  0.26346298581E+03  0.32701022750E+03  0.82702012224E+02 0.  0.
        -11    1    5    5    0    0 -0.51570303454E+02 -0.14305295361E+02  0.14699217041E+03  0.15643156918E+03  0.00000000000E+00 0.  1.
         12    1    5    5    0    0 -0.12358751292E+03  0.16054734071E+02  0.11647081540E+03  0.17057865832E+03  0.00000000000E+00 0. -1.
         11    1    4    4    0    0  0.21616994053E+03  0.13230665669E+03 -0.37804594080E+03  0.45514088802E+03  0.00000000000E+00 0. -1.
        -12    1    4    4    0    0  0.46892522318E+01  0.30737123925E+02 -0.29229651061E+02  0.42674727589E+02  0.00000000000E+00 0.  1.
          5    1    3    3  501    0 -0.61043218477E+02 -0.73732570884E+02 -0.82661983497E+02  0.12654344095E+03  0.41800000000E+01 0. -1.
         -5    1    3    3    0  501  0.15341842081E+02 -0.91060648440E+02 -0.26434316812E+03  0.28003963424E+03  0.41800000000E+01 0. -1.
</event>
<event>
11    1  0.1704459E-009  0.1409903E+03  0.7561462E-02  0.1106458E+00
         22   -1    0    0    0    0  0.00000000000E+00  0.00000000000E+00  0.40339066114E+03  0.40339066114E+03  0.00000000000E+00 0. -1.
         22   -1    0    0    0    0 -0.00000000000E+00 -0.00000000000E+00 -0.20274294259E+03  0.20274294259E+03  0.00000000000E+00 0.  1.
         25    2    1    2    0    0 -0.14722559818E+01  0.65717006254E+02 -0.60416715806E+02  0.15368335903E+03  0.12508997900E+03 0.  0.
        -24    2    1    2    0    0  0.10493308251E+02 -0.63962418293E+02 -0.54730096934E+02  0.12177534940E+03  0.87364476411E+02 0.  0.
         24    2    1    2    0    0 -0.90210522696E+01 -0.17545879604E+01  0.31579453129E+03  0.33067489529E+03  0.97648565903E+02 0.  0.
        -13    1    5    5    0    0 -0.30673537575E+01  0.26413065704E+02  0.19473848136E+02  0.32958905628E+02  0.00000000000E+00 0.  1.
         14    1    5    5    0    0 -0.59536985121E+01 -0.28167653664E+02  0.29632068315E+03  0.29771598967E+03  0.00000000000E+00 0. -1.
         13    1    4    4    0    0 -0.32789718265E+01 -0.38645397554E+02  0.18578889672E+02  0.43004575917E+02  0.00000000000E+00 0. -1.
        -14    1    4    4    0    0  0.13772280078E+02 -0.25317020739E+02 -0.73308986606E+02  0.78770773481E+02  0.00000000000E+00 0.  1.
          5    1    3    3  501    0  0.12317559262E+02  0.51302165650E+02 -0.97744559264E+02  0.11115352326E+03  0.41800000000E+01 0. -1.
         -5    1    3    3    0  501 -0.13789815244E+02  0.14414840603E+02  0.37327843458E+02  0.42529835778E+02  0.41800000000E+01 0. -1.
</event>
<event>
11    1  0.1704459E-009  0.1613831E+03  0.7561462E-02  0.1085784E+00
         22   -1    0    0    0    0  0.00000000000E+00  0.00000000000E+00  0.59324571073E+03  0.59324571073E+03  0.00000000000E+00 0. -1.
         22   -1    0    0    0    0 -0.00000000000E+00 -0.00000000000E+00 -0.60303801777E+03  0.60303801777E+03  0.00000000000E+00 0.  1.
         25    2    1    2    0    0 -0.87664288405E+02  0.51223265671E+02 -0.56639375634E+03  0.58887237678E+03  0.12513967601E+03 0.  0.
        -24    2    1    2    0    0  0.80025883533E+02 -0.91296691335E+02  0.39306082880E+03  0.41899413101E+03  0.79498671669E+02 0.  0.
         24    2    1    2    0    0  0.76384048716E+01  0.40073425664E+02  0.16354062050E+03  0.18841722071E+03  0.84209796555E+02 0.  0.
        -11    1    5    5    0    0 -0.36973313946E+02  0.29910469947E+02  0.90348087988E+02  0.10210014280E+03  0.00000000000E+00 0.  1.
         12    1    5    5    0    0  0.44611718817E+02  0.10162955717E+02  0.73192532508E+02  0.86317077914E+02  0.00000000000E+00 0. -1.
         13    1    4    4    0    0  0.80463257303E+02 -0.44595859356E+02  0.31369993185E+03  0.32691095682E+03  0.00000000000E+00 0. -1.
        -14    1    4    4    0    0 -0.43737376943E+00 -0.46700831978E+02  0.79360896952E+02  0.92083174187E+02  0.00000000000E+00 0.  1.
          5    1    3    3  501    0 -0.85398521733E+02 -0.15189265560E+02 -0.22772692886E+03  0.24372248117E+03  0.41800000000E+01 0.  1.
         -5    1    3    3    0  501 -0.22657666718E+01  0.66412531231E+02 -0.33866682748E+03  0.34514989561E+03  0.41800000000E+01 0.  1.
</event>
<event>
11    1  0.1704459E-009  0.6203710E+03  0.7561462E-02  0.9158650E-01
         22   -1    0    0    0    0  0.00000000000E+00  0.00000000000E+00  0.55929049765E+03  0.55929049765E+03  0.00000000000E+00 0. -1.
         22   -1    0    0    0    0 -0.00000000000E+00 -0.00000000000E+00 -0.14035295244E+04  0.14035295244E+04  0.00000000000E+00 0.  1.
         25    2    1    2    0    0  0.26047181050E+03  0.58708349058E+03 -0.25077886051E+03  0.70074991057E+03  0.12509121198E+03 0.  0.
         24    2    1    2    0    0 -0.27431623482E+03 -0.52573615461E+03 -0.81938220808E+03  0.10143347056E+04  0.76418526573E+02 0.  0.
        -24    2    1    2    0    0  0.13844424316E+02 -0.61347335965E+02  0.22592204182E+03  0.24773540584E+03  0.79855485794E+02 0.  0.
        -13    1    4    4    0    0 -0.16994743012E+03 -0.39907899207E+03 -0.59866883813E+03  0.73929057120E+03  0.00000000000E+00 0.  1.
         14    1    4    4    0    0 -0.10436880470E+03 -0.12665716255E+03 -0.22071336995E+03  0.27504413445E+03  0.00000000000E+00 0. -1.
         13    1    5    5    0    0  0.67811202906E+01 -0.70866314212E+02  0.22483032442E+03  0.23583191654E+03  0.00000000000E+00 0. -1.
        -14    1    5    5    0    0  0.70633040250E+01  0.95189782472E+01  0.10917174063E+01  0.11903489300E+02  0.00000000000E+00 0.  1.
          5    1    3    3  501    0  0.22833242120E+03  0.56411088601E+03 -0.25684564930E+03  0.66056335521E+03  0.41800000000E+01 0. -1.
         -5    1    3    3    0  501  0.32139389305E+02  0.22972604567E+02  0.60667887901E+01  0.40186555360E+02  0.41800000000E+01 0. -1.
</event>
<event>
11    1  0.1704459E-009  0.5141656E+03  0.7561462E-02  0.9362413E-01
         22   -1    0    0    0    0  0.00000000000E+00  0.00000000000E+00  0.18611515732E+04  0.18611515732E+04  0.00000000000E+00 0.  1.
         22   -1    0    0    0    0 -0.00000000000E+00 -0.00000000000E+00 -0.78457996813E+03  0.78457996813E+03  0.00000000000E+00 0.  1.
         25    2    1    2    0    0 -0.26516326287E+03  0.43250695288E+03 -0.57886682666E+03  0.77981276395E+03  0.12508926231E+03 0.  0.
        -24    2    1    2    0    0 -0.14917201010E+03 -0.24974099303E+03  0.26844394070E+03  0.40435927920E+03  0.82591919536E+02 0.  0.
         24    2    1    2    0    0  0.41433527297E+03 -0.18276595985E+03  0.13869944910E+04  0.14615594982E+04  0.85588165666E+02 0.  0.
        -13    1    5    5    0    0  0.24754378694E+03 -0.70592733728E+02  0.70315467734E+03  0.74879086585E+03  0.00000000000E+00 0.  1.
         14    1    5    5    0    0  0.16679148603E+03 -0.11217322612E+03  0.68383981368E+03  0.71276863234E+03  0.00000000000E+00 0. -1.
         11    1    4    4    0    0 -0.21240442579E+02 -0.11139719252E+02  0.13094217187E+01  0.24020081831E+02  0.00000000000E+00 0. -1.
        -12    1    4    4    0    0 -0.12793156752E+03 -0.23860127378E+03  0.26713451899E+03  0.38033919737E+03  0.00000000000E+00 0.  1.
          5    1    3    3  501    0 -0.82874865811E+02  0.96216835046E+02 -0.76255407179E+02  0.14818327252E+03  0.41800000000E+01 0. -1.
         -5    1    3    3    0  501 -0.18228839706E+03  0.33629011784E+03 -0.50261141948E+03  0.63162949143E+03  0.41800000000E+01 0. -1.
</event>
<event>
11    1  0.1704459E-009  0.1384933E+03  0.7561462E-02  0.1109253E+00
         22   -1    0    0    0    0  0.00000000000E+00  0.00000000000E+00  0.55063154980E+02  0.55063154980E+02  0.00000000000E+00 0. -1.
         22   -1    0    0    0    0 -0.00000000000E+00 -0.00000000000E+00 -0.51268056009E+03  0.51268056009E+03  0.00000000000E+00 0. -1.
         25    2    1    2    0    0 -0.69808457793E+02  0.55207106447E+01 -0.25584220131E+03  0.29326438767E+03  0.12508025456E+03 0.  0.
         24    2    1    2    0    0  0.27331292600E+02  0.28032745902E+02 -0.95148172895E+02  0.13030798372E+03  0.79963500534E+02 0.  0.
        -24    2    1    2    0    0  0.42477165193E+02 -0.33553456547E+02 -0.10662703091E+03  0.14417134368E+03  0.80535138974E+02 0.  0.
        -13    1    4    4    0    0 -0.16911543984E+02  0.34386326540E+02 -0.20912179549E+02  0.43654770946E+02  0.00000000000E+00 0.  1.
         14    1    4    4    0    0  0.44242836584E+02 -0.63535806379E+01 -0.74235993346E+02  0.86653212773E+02  0.00000000000E+00 0. -1.
         11    1    5    5    0    0  0.23978391897E+02 -0.57165361821E+02 -0.91646182392E+02  0.11064296009E+03  0.00000000000E+00 0. -1.
        -12    1    5    5    0    0  0.18498773296E+02  0.23611905274E+02 -0.14980848517E+02  0.33528383594E+02  0.00000000000E+00 0.  1.
          5    1    3    3  501    0 -0.28069116962E+02 -0.50234039337E+02 -0.18517998951E+03  0.19395987974E+03  0.41800000000E+01 0. -1.
         -5    1    3    3    0  501 -0.41739340832E+02  0.55754749982E+02 -0.70662211800E+02  0.99304507929E+02  0.41800000000E+01 0. -1.
</event>
<event>
11    1  0.1704459E-009  0.1425631E+04  0.7561462E-02  0.8354548E-01
         22   -1    0    0    0    0  0.00000000000E+00  0.00000000000E+00  0.88609339672E+03  0.88609339672E+03  0.00000000000E+00 0.  1.
         22   -1    0    0    0    0 -0.00000000000E+00 -0.00000000000E+00 -0.57342270986E+03  0.57342270986E+03  0.00000000000E+00 0.  1.
         25    2    1    2    0    0  0.26577465163E+03 -0.23907631919E+03 -0.45553948430E+03  0.59241564248E+03  0.12508565007E+03 0.  0.
         24    2    1    2    0    0 -0.21408577854E+03  0.17001370396E+03  0.55370714725E+03  0.62261395443E+03  0.79493089218E+02 0.  0.
        -24    2    1    2    0    0 -0.51688873094E+02  0.69062615228E+02  0.21450302392E+03  0.24448650967E+03  0.79502966708E+02 0.  0.
        -13    1    4    4    0    0 -0.29565965474E+02  0.66806252142E+02  0.15324379087E+03  0.16976713781E+03  0.00000000000E+00 0.  1.
         14    1    4    4    0    0 -0.18451981307E+03  0.10320745182E+03  0.40046335637E+03  0.45284681662E+03  0.00000000000E+00 0. -1.
         11    1    5    5    0    0 -0.69235623221E+02  0.58389876404E+02  0.13642123899E+03  0.16374890423E+03  0.00000000000E+00 0. -1.
        -12    1    5    5    0    0  0.17546750127E+02  0.10672738824E+02  0.78081784928E+02  0.80737605436E+02  0.00000000000E+00 0.  1.
          5    1    3    3  501    0  0.24764847430E+03 -0.24526990678E+03 -0.38568958173E+03  0.51986634806E+03  0.41800000000E+01 0.  1.
         -5    1    3    3    0  501  0.18126177336E+02  0.61935875865E+01 -0.69849902570E+02  0.72549294422E+02  0.41800000000E+01 0.  1.
</event>
<event>
11    1  0.1704459E-009  0.1888423E+03  0.7561462E-02  0.1062707E+00
         22   -1    0    0    0    0  0.00000000000E+00  0.00000000000E+00  0.14283963631E+04  0.14283963631E+04  0.00000000000E+00 0. -1.
         22   -1    0    0    0    0 -0.00000000000E+00 -0.00000000000E+00 -0.11128174270E+04  0.11128174270E+04  0.00000000000E+00 0. -1.
         25    2    1    2    0    0 -0.43414249071E+02 -0.71647316987E+02 -0.92575049057E+03  0.93791238271E+03  0.12509009473E+03 0.  0.
         24    2    1    2    0    0 -0.80298129141E+02  0.23133689529E+01 -0.15801588866E+03  0.19454212469E+03  0.80152828971E+02 0.  0.
        -24    2    1    2    0    0  0.12371237821E+03  0.69333948035E+02  0.13993453154E+04  0.14087592826E+04  0.79520160566E+02 0.  0.
        -13    1    4    4    0    0 -0.94735292303E+02  0.12385507646E+02 -0.13853687671E+03  0.16828738104E+03  0.00000000000E+00 0.  1.
         14    1    4    4    0    0  0.14437163162E+02 -0.10072138693E+02 -0.19479011947E+02  0.26254743656E+02  0.00000000000E+00 0. -1.
         13    1    5    5    0    0  0.13270180398E+03  0.65267724492E+02  0.13660926021E+04  0.13740737397E+04  0.00000000000E+00 0. -1.
        -14    1    5    5    0    0 -0.89894257643E+01  0.40662235423E+01  0.33252713224E+02  0.34685542900E+02  0.00000000000E+00 0.  1.
          5    1    3    3  501    0 -0.24165668382E+02 -0.74113874603E+02 -0.90779519692E+03  0.91114567326E+03  0.41800000000E+01 0. -1.
         -5    1    3    3    0  501 -0.19248580689E+02  0.24665576154E+01 -0.17955293641E+02  0.26766709449E+02  0.41800000000E+01 0. -1.
</event>
<event>
11    1  0.1704459E-009  0.4523467E+03  0.7561462E-02  0.9506800E-01
         22   -1    0    0    0    0  0.00000000000E+00  0.00000000000E+00  0.14758884592E+04  0.14758884592E+04  0.00000000000E+00 0.  1.
         22   -1    0    0    0    0 -0.00000000000E+00 -0.00000000000E+00 -0.38791287597E+03  0.38791287597E+03  0.00000000000E+00 0.  1.
         25    2    1    2    0    0  0.39153761984E+03  0.22321161934E+03 -0.39895991625E+02  0.46943015687E+03  0.12509135572E+03 0.  0.
         24    2    1    2    0    0 -0.46443882617E+03  0.96814949014E+02  0.62293517144E+03  0.78718114726E+03  0.80804536866E+02 0.  0.
        -24    2    1    2    0    0  0.72901206329E+02 -0.32002656835E+03  0.50493640338E+03  0.60719003101E+03  0.77378110365E+02 0.  0.
        -11    1    4    4    0    0 -0.33467268810E+03  0.75826550646E+02  0.38804602574E+03  0.51801080301E+03  0.00000000000E+00 0.  1.
         12    1    4    4    0    0 -0.12976613807E+03  0.20988398368E+02  0.23488914571E+03  0.26917034425E+03  0.00000000000E+00 0. -1.
         11    1    5    5    0    0  0.15039961749E+02 -0.21579163353E+03  0.29572994833E+03  0.36639927932E+03  0.00000000000E+00 0. -1.
        -12    1    5    5    0    0  0.57861244580E+02 -0.10423493482E+03  0.20920645505E+03  0.24079075168E+03  0.00000000000E+00 0.  1.
          5    1    3    3  501    0  0.27352690969E+03  0.12423533859E+03 -0.78611251598E+02  0.31056173453E+03  0.41800000000E+01 0. -1.
         -5    1    3    3    0  501  0.11801071015E+03  0.98976280751E+02  0.38715259973E+02  0.15886842234E+03  0.41800000000E+01 0. -1.
</event>
<event>
11    1  0.2616871E-009  0.7839583E+03  0.7561462E-02  0.8916974E-01
         22   -1    0    0    0    0  0.00000000000E+00  0.00000000000E+00  0.47228457255E+03  0.47228457255E+03  0.00000000000E+00 0.  1.
         22   -1    0    0    0    0 -0.00000000000E+00 -0.00000000000E+00 -0.24157777606E+04  0.24157777606E+04  0.00000000000E+00 0.  1.
         25    2    1    2    0    0 -0.72109150857E+03  0.28326428784E+03 -0.18318617282E+04  0.19928815555E+04  0.12509149746E+03 0.  0.
        -24    2    1    2    0    0  0.70004451991E+03 -0.32372277464E+03 -0.41807882527E+02  0.77652175106E+03  0.79870934349E+02 0.  0.
         24    2    1    2    0    0  0.21046988654E+02  0.40458486798E+02 -0.69823577345E+02  0.11865902655E+03  0.84408339296E+02 0.  0.
        -11    1    5    5    0    0 -0.32362392806E+02  0.10639229355E+02 -0.18236889898E+02  0.38640675752E+02  0.00000000000E+00 0.  1.
         12    1    5    5    0    0  0.53409381460E+02  0.29819257443E+02 -0.51586687447E+02  0.80018350796E+02  0.00000000000E+00 0. -1.
         11    1    4    4    0    0  0.44213510866E+02 -0.44074620610E+02 -0.38960108261E+01  0.62550664468E+02  0.00000000000E+00 0. -1.
        -12    1    4    4    0    0  0.65583100905E+03 -0.27964815403E+03 -0.37911871700E+02  0.71397108660E+03  0.00000000000E+00 0.  1.
          5    1    3    3  501    0 -0.52582224772E+03  0.14593649640E+03 -0.12490106905E+04  0.13630229912E+04  0.41800000000E+01 0.  1.
         -5    1    3    3    0  501 -0.19526926084E+03  0.13732779144E+03 -0.58285103768E+03  0.62985856433E+03  0.41800000000E+01 0.  1.
</event>
<event>
11    1  0.1704459E-009  0.5701786E+03  0.7561462E-02  0.9249075E-01
         22   -1    0    0    0    0  0.00000000000E+00  0.00000000000E+00  0.40271497802E+04  0.40271497802E+04  0.00000000000E+00 0.  1.
         22   -1    0    0    0    0 -0.00000000000E+00 -0.00000000000E+00 -0.35727850040E+03  0.35727850040E+03  0.00000000000E+00 0.  1.
         25    2    1    2    0    0 -0.52793574228E+03 -0.92394022007E+02  0.16469227023E+02  0.55060980162E+03  0.12508842842E+03 0.  0.
         24    2    1    2    0    0  0.66305431495E+03  0.42684632531E+03  0.24340676586E+04  0.25598740515E+04  0.80193407035E+02 0.  0.
        -24    2    1    2    0    0 -0.13511857267E+03 -0.33445230330E+03  0.12193343942E+04  0.12739444275E+04  0.77734598484E+02 0.  0.
        -11    1    4    4    0    0  0.39881856263E+03  0.22878070593E+03  0.13125588876E+04  0.13907579555E+04  0.00000000000E+00 0.  1.
         12    1    4    4    0    0  0.26423575232E+03  0.19806561938E+03  0.11215087710E+04  0.11691160960E+04  0.00000000000E+00 0. -1.
         11    1    5    5    0    0 -0.93827520341E+02 -0.17007808247E+03  0.54294312983E+03  0.57664321720E+03  0.00000000000E+00 0. -1.
        -12    1    5    5    0    0 -0.41291052328E+02 -0.16437422083E+03  0.67639126432E+03  0.69730121032E+03  0.00000000000E+00 0.  1.
          5    1    3    3  501    0 -0.14777414145E+03 -0.75617686511E+01  0.57753552450E+02  0.15889406046E+03  0.41800000000E+01 0.  1.
         -5    1    3    3    0  501 -0.38016160082E+03 -0.84832253356E+02 -0.41284325427E+02  0.39171574117E+03  0.41800000000E+01 0.  1.
</event>
<event>
11    1  0.1704459E-009  0.3949710E+03  0.7561462E-02  0.9664714E-01
         22   -1    0    0    0    0  0.00000000000E+00  0.00000000000E+00  0.12856530689E+04  0.12856530689E+04  0.00000000000E+00 0. -1.
         22   -1    0    0    0    0 -0.00000000000E+00 -0.00000000000E+00 -0.31894590004E+03  0.31894590004E+03  0.00000000000E+00 0. -1.
         25    2    1    2    0    0 -0.24941931407E+03 -0.32104142934E+03 -0.85631142665E+02  0.43388550545E+03  0.12508535353E+03 0.  0.
        -24    2    1    2    0    0  0.19543866296E+03  0.21816567918E+03  0.39758478654E+03  0.50079506248E+03  0.83243603774E+02 0.  0.
         24    2    1    2    0    0  0.53980651111E+02  0.10287575016E+03  0.65475352496E+03  0.66991840098E+03  0.81185927777E+02 0.  0.
        -11    1    5    5    0    0  0.49654651054E+02  0.71296672092E+02  0.26534115269E+03  0.27920373768E+03  0.00000000000E+00 0.  1.
         12    1    5    5    0    0  0.43260000565E+01  0.31579078068E+02  0.38941237226E+03  0.39071466330E+03  0.00000000000E+00 0. -1.
         13    1    4    4    0    0  0.17903309539E+03  0.15790849202E+03  0.28249336076E+03  0.36985191627E+03  0.00000000000E+00 0. -1.
        -14    1    4    4    0    0  0.16405567567E+02  0.60257187154E+02  0.11509142578E+03  0.13094314621E+03  0.00000000000E+00 0.  1.
          5    1    3    3  501    0 -0.16194197692E+03 -0.12545144258E+03 -0.78654140582E+02  0.21947030452E+03  0.41800000000E+01 0. -1.
         -5    1    3    3    0  501 -0.87477337147E+02 -0.19558998676E+03 -0.69770020831E+01  0.21441520094E+03  0.41800000000E+01 0. -1.
</event>
<event>
11    1  0.1704459E-009  0.3988793E+03  0.7561462E-02  0.9653070E-01
         22   -1    0    0    0    0  0.00000000000E+00  0.00000000000E+00  0.59397864932E+03  0.59397864932E+03  0.00000000000E+00 0.  1.
         22   -1    0    0    0    0 -0.00000000000E+00 -0.00000000000E+00 -0.61650030549E+03  0.61650030549E+03  0.00000000000E+00 0.  1.
         25    2    1    2    0    0 -0.34078172741E+02  0.23815485797E+03 -0.32291028915E+03  0.42166071409E+03  0.12509054616E+03 0.  0.
        -24    2    1    2    0    0 -0.21362093529E+03  0.11006358519E+03 -0.10474636848E+02  0.25362537037E+03  0.80425205632E+02 0.  0.
         24    2    1    2    0    0  0.24769910803E+03 -0.34821844315E+03  0.31086326982E+03  0.53519287035E+03  0.84761451611E+02 0.  0.
        -13    1    5    5    0    0  0.12646449996E+03 -0.11235263580E+03  0.14136029957E+03  0.22045207827E+03  0.00000000000E+00 0.  1.
         14    1    5    5    0    0  0.12123460808E+03 -0.23586580735E+03  0.16950297024E+03  0.31474079207E+03  0.00000000000E+00 0. -1.
         13    1    4    4    0    0 -0.20477057908E+02  0.36631377372E+02 -0.20591128850E+02  0.46745719548E+02  0.00000000000E+00 0. -1.
        -14    1    4    4    0    0 -0.19314387738E+03  0.73432207814E+02  0.10116492002E+02  0.20687965083E+03  0.00000000000E+00 0.  1.
          5    1    3    3  501    0  0.29519777054E+02  0.18719170977E+03 -0.22641911520E+03  0.29528840406E+03  0.41800000000E+01 0.  1.
         -5    1    3    3    0  501 -0.63597949795E+02  0.50963148197E+02 -0.96491173950E+02  0.12637231003E+03  0.41800000000E+01 0.  1.
</event>
<event>
11    1  0.1704459E-009  0.2850235E+03  0.7561462E-02  0.1006737E+00
         22   -1    0    0    0    0  0.00000000000E+00  0.00000000000E+00  0.24997840565E+03  0.24997840565E+03  0.00000000000E+00 0.  1.
         22   -1    0    0    0    0 -0.00000000000E+00 -0.00000000000E+00 -0.27762396807E+04  0.27762396807E+04  0.00000000000E+00 0.  1.
         25    2    1    2    0    0  0.36835571457E+03  0.20399393757E+02 -0.23051189041E+04  0.23378028755E+04  0.12508818876E+03 0.  0.
         24    2    1    2    0    0 -0.15683521039E+03  0.11963045959E+03 -0.33650413409E+03  0.39836934011E+03  0.80959056312E+02 0.  0.
        -24    2    1    2    0    0 -0.21152050418E+03 -0.14002985334E+03  0.11536176314E+03  0.29004587074E+03  0.80430014416E+02 0.  0.
        -11    1    4    4    0    0 -0.70682708332E+02  0.66231433425E+01 -0.10570072813E+03  0.12732853259E+03  0.00000000000E+00 0.  1.
         12    1    4    4    0    0 -0.86152502055E+02  0.11300731624E+03 -0.23080340596E+03  0.27104080751E+03  0.00000000000E+00 0. -1.
         13    1    5    5    0    0 -0.85397544715E+02 -0.11770192103E+02  0.35335675081E+02  0.93165916509E+02  0.00000000000E+00 0. -1.
        -14    1    5    5    0    0 -0.12612295947E+03 -0.12825966124E+03  0.80026088055E+02  0.19687995423E+03  0.00000000000E+00 0.  1.
          5    1    3    3  501    0  0.16881287430E+03  0.65373283511E+02 -0.91937753083E+03  0.93704000412E+03  0.41800000000E+01 0. -1.
         -5    1    3    3    0  501  0.19954284027E+03 -0.44973889755E+02 -0.13857413733E+04  0.14007628714E+04  0.41800000000E+01 0. -1.
</event>
<event>
11    1  0.1704459E-009  0.2985982E+03  0.7561462E-02  0.1000786E+00
         22   -1    0    0    0    0  0.00000000000E+00  0.00000000000E+00  0.83111036448E+03  0.83111036448E+03  0.00000000000E+00 0. -1.
         22   -1    0    0    0    0 -0.00000000000E+00 -0.00000000000E+00 -0.70227797338E+03  0.70227797338E+03  0.00000000000E+00 0.  1.
         25    2    1    2    0    0  0.19686958973E+03  0.20187384188E+03 -0.58972236183E+03  0.66552946601E+03  0.12508526169E+03 0.  0.
         24    2    1    2    0    0 -0.16027081121E+03 -0.14603336258E+03  0.12098503544E+03  0.26109976285E+03  0.80766524327E+02 0.  0.
        -24    2    1    2    0    0 -0.36598778528E+02 -0.55840479307E+02  0.59756971749E+03  0.60675910900E+03  0.81298335639E+02 0.  0.
        -11    1    4    4    0    0 -0.13261383703E+03 -0.14736521310E+03  0.85021306014E+02  0.21571174813E+03  0.00000000000E+00 0.  1.
         12    1    4    4    0    0 -0.27656974171E+02  0.13318505256E+01  0.35963729428E+02  0.45388014723E+02  0.00000000000E+00 0. -1.
         11    1    5    5    0    0 -0.14983377262E+02 -0.43871663132E+02  0.55922533435E+03  0.56114365273E+03  0.00000000000E+00 0. -1.
        -12    1    5    5    0    0 -0.21615401266E+02 -0.11968816174E+02  0.38344383134E+02  0.45615456267E+02  0.00000000000E+00 0.  1.
          5    1    3    3  501    0  0.14623837003E+03  0.20090283649E+03 -0.53995707859E+03  0.59440619925E+03  0.41800000000E+01 0.  1.
         -5    1    3    3    0  501  0.50631219699E+02  0.97100539030E+00 -0.49765283235E+02  0.71123266764E+02  0.41800000000E+01 0.  1.
</event>
<event>
11    1  0.1704459E-009  0.3728463E+03  0.7561462E-02  0.9733458E-01
         22   -1    0    0    0    0  0.00000000000E+00  0.00000000000E+00  0.13442349408E+04  0.13442349408E+04  0.00000000000E+00 0.  1.
         22   -1    0    0    0    0 -0.00000000000E+00 -0.00000000000E+00 -0.31890271005E+03  0.31890271005E+03  0.00000000000E+00 0.  1.
         25    2    1    2    0    0  0.12730443752E+03 -0.33311000666E+03 -0.99441517057E+02  0.39077538830E+03  0.12509233566E+03 0.  0.
         24    2    1    2    0    0  0.61355875895E+02  0.35656313442E+03  0.86571798293E+03  0.94173579901E+03  0.80603206181E+02 0.  0.
        -24    2    1    2    0    0 -0.18866031341E+03 -0.23453127758E+02  0.25905576485E+03  0.33062646352E+03  0.77853747602E+02 0.  0.
        -13    1    4    4    0    0  0.47843481910E+02  0.32383139769E+03  0.70684798299E+03  0.77896716487E+03  0.00000000000E+00 0.  1.
         14    1    4    4    0    0  0.13512393985E+02  0.32731736730E+02  0.15886999994E+03  0.16276863414E+03  0.00000000000E+00 0. -1.
         13    1    5    5    0    0 -0.67885836490E+02 -0.46531406458E+02  0.11058549679E+03  0.13785068256E+03  0.00000000000E+00 0. -1.
        -14    1    5    5    0    0 -0.12077447692E+03  0.23078278700E+02  0.14847026807E+03  0.19277578096E+03  0.00000000000E+00 0.  1.
          5    1    3    3  501    0  0.10041795801E+03 -0.33306387597E+03 -0.10416884617E+03  0.36315827497E+03  0.41800000000E+01 0. -1.
         -5    1    3    3    0  501  0.26886479501E+02 -0.46130688790E-01  0.47273291171E+01  0.27617113328E+02  0.41800000000E+01 0. -1.
</event>
<event>
11    1  0.1704459E-009  0.2249463E+03  0.7561462E-02  0.1038162E+00
         22   -1    0    0    0    0  0.00000000000E+00  0.00000000000E+00  0.14420752687E+04  0.14420752687E+04  0.00000000000E+00 0.  1.
         22   -1    0    0    0    0 -0.00000000000E+00 -0.00000000000E+00 -0.61250614653E+02  0.61250614653E+02  0.00000000000E+00 0.  1.
         25    2    1    2    0    0  0.41758574165E+01 -0.23452265837E+02  0.22323383065E+03  0.25699834374E+03  0.12508940393E+03 0.  0.
        -24    2    1    2    0    0 -0.20493918752E+03 -0.42472117413E+02  0.43443967066E+03  0.48882873604E+03  0.80073431281E+02 0.  0.
         24    2    1    2    0    0  0.20076333010E+03  0.65924383250E+02  0.72315115278E+03  0.75749880363E+03  0.78771242889E+02 0.  0.
        -11    1    5    5    0    0  0.15960943758E+03  0.20195486214E+02  0.46239663671E+03  0.48958521206E+03  0.00000000000E+00 0.  1.
         12    1    5    5    0    0  0.41153892520E+02  0.45728897036E+02  0.26075451608E+03  0.26791359157E+03  0.00000000000E+00 0. -1.
         11    1    4    4    0    0  0.27292759925E+01  0.51023142829E+01  0.10177405380E+01  0.58752322752E+01  0.00000000000E+00 0. -1.
        -12    1    4    4    0    0 -0.20766846351E+03 -0.47574431696E+02  0.43342193012E+03  0.48295350376E+03  0.00000000000E+00 0.  1.
          5    1    3    3  501    0  0.48078801195E+02 -0.50119033992E+02  0.16593745448E+03  0.17993387645E+03  0.41800000000E+01 0. -1.
         -5    1    3    3    0  501 -0.43902943779E+02  0.26666768155E+02  0.57296376172E+02  0.77064467290E+02  0.41800000000E+01 0. -1.
</event>
<event>
11    1  0.1704459E-009  0.2384980E+03  0.7561462E-02  0.1030211E+00
         22   -1    0    0    0    0  0.00000000000E+00  0.00000000000E+00  0.34426912274E+03  0.34426912274E+03  0.00000000000E+00 0. -1.
         22   -1    0    0    0    0 -0.00000000000E+00 -0.00000000000E+00 -0.13879528461E+04  0.13879528461E+04  0.00000000000E+00 0. -1.
         25    2    1    2    0    0 -0.70554810657E+01 -0.17562413257E+03 -0.10782079071E+04  0.10995789302E+04  0.12509163503E+03 0.  0.
        -24    2    1    2    0    0 -0.34917797064E+02 -0.24076508943E+02 -0.25433236173E+03  0.27010207012E+03  0.80444062724E+02 0.  0.
         24    2    1    2    0    0  0.41973278129E+02  0.19970064151E+03  0.28885654546E+03  0.36254096846E+03  0.79722943123E+02 0.  0.
        -13    1    5    5    0    0 -0.24211823417E+01  0.61392610633E+02  0.14780998419E+03  0.16007094112E+03  0.00000000000E+00 0.  1.
         14    1    5    5    0    0  0.44394460471E+02  0.13830803088E+03  0.14104656128E+03  0.20247002735E+03  0.00000000000E+00 0. -1.
         13    1    4    4    0    0  0.19991938923E+02  0.13712250002E+02 -0.71495987552E+02  0.75494235926E+02  0.00000000000E+00 0. -1.
        -14    1    4    4    0    0 -0.54909735986E+02 -0.37788758946E+02 -0.18283637417E+03  0.19460783419E+03  0.00000000000E+00 0.  1.
          5    1    3    3  501    0  0.58682007117E+02 -0.87323746839E+02 -0.55492649809E+03  0.56482732353E+03  0.41800000000E+01 0.  1.
         -5    1    3    3    0  501 -0.65737488183E+02 -0.88300385729E+02 -0.52328140899E+03  0.53475160670E+03  0.41800000000E+01 0.  1.
</event>
<event>
11    1  0.1704459E-009  0.1714480E+03  0.7561462E-02  0.1076778E+00
         22   -1    0    0    0    0  0.00000000000E+00  0.00000000000E+00  0.17333084641E+03  0.17333084641E+03  0.00000000000E+00 0.  1.
         22   -1    0    0    0    0 -0.00000000000E+00 -0.00000000000E+00 -0.40398018513E+03  0.40398018513E+03  0.00000000000E+00 0. -1.
         25    2    1    2    0    0  0.13883815095E+02 -0.38042267219E+02 -0.23090734155E+03  0.26571737776E+03  0.12509016764E+03 0.  0.
        -24    2    1    2    0    0  0.80127597186E+02 -0.58193198113E+02 -0.61712684738E+02  0.14247315606E+03  0.81751236088E+02 0.  0.
         24    2    1    2    0    0 -0.94011412281E+02  0.96235465332E+02  0.61970687567E+02  0.16912049773E+03  0.81620868708E+02 0.  0.
        -13    1    5    5    0    0 -0.10168020907E+03  0.63744721472E+02  0.63359574925E+02  0.13570810649E+03  0.00000000000E+00 0.  1.
         14    1    5    5    0    0  0.76687967842E+01  0.32490743860E+02 -0.13888873579E+01  0.33412391246E+02  0.00000000000E+00 0. -1.
         13    1    4    4    0    0 -0.60188075719E+01  0.13744334536E+02 -0.13992805825E+02  0.20516612569E+02  0.00000000000E+00 0. -1.
        -14    1    4    4    0    0  0.86146404758E+02 -0.71937532649E+02 -0.47719878912E+02  0.12195654349E+03  0.00000000000E+00 0.  1.
          5    1    3    3  501    0  0.40520756417E+02  0.20630413155E+02 -0.29868624900E+02  0.54563291698E+02  0.41800000000E+01 0.  1.
         -5    1    3    3    0  501 -0.26636941322E+02 -0.58672680374E+02 -0.20103871665E+03  0.21115408606E+03  0.41800000000E+01 0.  1.
</event>
<event>
11    1  0.1704459E-009  0.1923269E+03  0.7561462E-02  0.1060086E+00
         22   -1    0    0    0    0  0.00000000000E+00  0.00000000000E+00  0.24205711720E+04  0.24205711720E+04  0.00000000000E+00 0. -1.
         22   -1    0    0    0    0 -0.00000000000E+00 -0.00000000000E+00 -0.25407706736E+03  0.25407706736E+03  0.00000000000E+00 0. -1.
         25    2    1    2    0    0  0.63075660509E+02 -0.10674874979E+03 -0.89870914089E+02  0.19773315027E+03  0.12509109876E+03 0.  0.
        -24    2    1    2    0    0 -0.92432880101E+01  0.19879994195E+03 -0.97137008503E+01  0.20696094872E+03  0.55960906148E+02 0.  0.
         24    2    1    2    0    0 -0.53832372499E+02 -0.92051192164E+02  0.22660787196E+04  0.22699541404E+04  0.78788893325E+02 0.  0.
        -11    1    5    5    0    0  0.54415528343E+01  0.11800384246E+02  0.21222988681E+03  0.21262733695E+03  0.00000000000E+00 0.  1.
         12    1    5    5    0    0 -0.59273925333E+02 -0.10385157641E+03  0.20538488328E+04  0.20573268034E+04  0.00000000000E+00 0. -1.
         13    1    4    4    0    0  0.11625665422E+02  0.63793296318E+02 -0.25004179339E+02  0.69497839794E+02  0.00000000000E+00 0. -1.
        -14    1    4    4    0    0 -0.20868953433E+02  0.13500664563E+03  0.15290478489E+02  0.13746310892E+03  0.00000000000E+00 0.  1.
          5    1    3    3  501    0  0.15253853738E+02 -0.77173676081E+02  0.13556255080E+02  0.79935603992E+02  0.41800000000E+01 0.  1.
         -5    1    3    3    0  501  0.47821806771E+02 -0.29575073705E+02 -0.10342716917E+03  0.11779754628E+03  0.41800000000E+01 0.  1.
</event>
<event>
11    1  0.1704459E-009  0.2068320E+03  0.7561462E-02  0.1049795E+00
         22   -1    0    0    0    0  0.00000000000E+00  0.00000000000E+00  0.13799135250E+03  0.13799135250E+03  0.00000000000E+00 0.  1.
         22   -1    0    0    0    0 -0.00000000000E+00 -0.00000000000E+00 -0.43186595264E+03  0.43186595264E+03  0.00000000000E+00 0.  1.
         25    2    1    2    0    0  0.82549614484E+02 -0.13827109651E+03 -0.18619977132E+03  0.27613697631E+03  0.12509172581E+03 0.  0.
        -24    2    1    2    0    0 -0.85330818501E+02  0.14632223360E+03 -0.97368095917E+02  0.21141970098E+03  0.80784894805E+02 0.  0.
         24    2    1    2    0    0  0.27812040177E+01 -0.80511370937E+01 -0.10306732904E+02  0.82300627846E+02  0.81207196087E+02 0.  0.
        -13    1    5    5    0    0  0.10095686239E+02  0.31308153147E+02 -0.23187193863E+02  0.40246357516E+02  0.00000000000E+00 0.  1.
         14    1    5    5    0    0 -0.73144822217E+01 -0.39359290241E+02  0.12880460959E+02  0.42054270329E+02  0.00000000000E+00 0. -1.
         13    1    4    4    0    0 -0.39756182511E+02  0.10517431069E+03 -0.99268890736E+02  0.14998834070E+03  0.00000000000E+00 0. -1.
        -14    1    4    4    0    0 -0.45574635991E+02  0.41147922911E+02  0.19007948193E+01  0.61431360285E+02  0.00000000000E+00 0.  1.
          5    1    3    3  501    0  0.11609355629E+02 -0.12730232380E+03 -0.91625126451E+02  0.15733179901E+03  0.41800000000E+01 0. -1.
         -5    1    3    3    0  501  0.70940258855E+02 -0.10968772704E+02 -0.94574644869E+02  0.11880517730E+03  0.41800000000E+01 0. -1.
</event>
<event>
11    1  0.1704459E-009  0.7893378E+03  0.7561462E-02  0.8910107E-01
         22   -1    0    0    0    0  0.00000000000E+00  0.00000000000E+00  0.24759963968E+04  0.24759963968E+04  0.00000000000E+00 0. -1.
         22   -1    0    0    0    0 -0.00000000000E+00 -0.00000000000E+00 -0.62909441004E+02  0.62909441004E+02  0.00000000000E+00 0. -1.
         25    2    1    2    0    0  0.67484493356E+02 -0.25456556816E+03  0.36322153788E+03  0.46576279087E+03  0.12508919395E+03 0.  0.
        -24    2    1    2    0    0 -0.35894858647E+02  0.12394410394E+03  0.11458065436E+04  0.11557753796E+04  0.79331652111E+02 0.  0.
         24    2    1    2    0    0 -0.31589634709E+02  0.13062146422E+03  0.90405887433E+03  0.91736766732E+03  0.78620079183E+02 0.  0.
        -11    1    5    5    0    0  0.44065008480E+01  0.12117950985E+02  0.32295808291E+03  0.32321538531E+03  0.00000000000E+00 0.  1.
         12    1    5    5    0    0 -0.35996135557E+02  0.11850351323E+03  0.58110079142E+03  0.59415228201E+03  0.00000000000E+00 0. -1.
         13    1    4    4    0    0  0.19150440486E+02  0.12583164451E+02  0.98646373769E+02  0.10127281203E+03  0.00000000000E+00 0. -1.
        -14    1    4    4    0    0 -0.55045299133E+02  0.11136093949E+03  0.10471601698E+04  0.10545025676E+04  0.00000000000E+00 0.  1.
          5    1    3    3  501    0  0.56535644380E+02 -0.24795885306E+03  0.26759419940E+03  0.36919371588E+03  0.41800000000E+01 0. -1.
         -5    1    3    3    0  501  0.10948848976E+02 -0.66067150997E+01  0.95627338484E+02  0.96569074987E+02  0.41800000000E+01 0. -1.
</event>
<event>
11    1  0.1704459E-009  0.3470575E+03  0.7561462E-02  0.9820336E-01
         22   -1    0    0    0    0  0.00000000000E+00  0.00000000000E+00  0.87935141653E+03  0.87935141653E+03  0.00000000000E+00 0.  1.
         22   -1    0    0    0    0 -0.00000000000E+00 -0.00000000000E+00 -0.59719780140E+03  0.59719780140E+03  0.00000000000E+00 0.  1.
         25    2    1    2    0    0  0.22849847116E+03 -0.27895090177E+03 -0.41226707305E+03  0.56181555485E+03  0.12508965279E+03 0.  0.
        -24    2    1    2    0    0  0.23808575142E+02  0.79599534264E+02 -0.28440988624E+02  0.11924767305E+03  0.80673313987E+02 0.  0.
         24    2    1    2    0    0 -0.25230704631E+03  0.19935136750E+03  0.72286167680E+03  0.79548599003E+03  0.82880294397E+02 0.  0.
        -13    1    5    5    0    0 -0.11039753231E+03  0.87810697573E+02  0.22130167721E+03  0.26243621336E+03  0.00000000000E+00 0.  1.
         14    1    5    5    0    0 -0.14190951400E+03  0.11154066993E+03  0.50155999960E+03  0.53304977667E+03  0.00000000000E+00 0. -1.
         11    1    4    4    0    0 -0.11464062449E+02  0.73785443412E+02 -0.18496243608E+01  0.74693624210E+02  0.00000000000E+00 0. -1.
        -12    1    4    4    0    0  0.35272637592E+02  0.58140908524E+01 -0.26591364263E+02  0.44554048845E+02  0.00000000000E+00 0.  1.
          5    1    3    3  501    0  0.28046567183E+02 -0.13328180345E+02 -0.10242878271E+03  0.10711385648E+03  0.41800000000E+01 0.  1.
         -5    1    3    3    0  501  0.20045190398E+03 -0.26562272142E+03 -0.30983829033E+03  0.45470169837E+03  0.41800000000E+01 0.  1.
</event>
<event>
11    1  0.1704459E-009  0.1509979E+03  0.7561462E-02  0.1095863E+00
         22   -1    0    0    0    0  0.00000000000E+00  0.00000000000E+00  0.50396602098E+02  0.50396602098E+02  0.00000000000E+00 0.  1.
         22   -1    0    0    0    0 -0.00000000000E+00 -0.00000000000E+00 -0.12125404421E+04  0.12125404421E+04  0.00000000000E+00 0.  1.
         25    2    1    2    0    0  0.53559139247E+02  0.87239215653E+02 -0.87561372561E+03  0.89040795492E+03  0.12509063739E+03 0.  0.
         24    2    1    2    0    0 -0.22788693126E+02 -0.10338714317E+02 -0.22845045294E+03  0.24365665417E+03  0.80949009418E+02 0.  0.
        -24    2    1    2    0    0 -0.30770446121E+02 -0.76900501335E+02 -0.58079661401E+02  0.12887243505E+03  0.79839526479E+02 0.  0.
        -11    1    4    4    0    0 -0.33200857148E+02 -0.40608389879E+02 -0.15104383753E+03  0.15989239851E+03  0.00000000000E+00 0.  1.
         12    1    4    4    0    0  0.10412164022E+02  0.30269675562E+02 -0.77406615406E+02  0.83764255663E+02  0.00000000000E+00 0. -1.
         11    1    5    5    0    0 -0.15443128280E+01  0.12096777243E+02 -0.27914377505E+02  0.30461933512E+02  0.00000000000E+00 0. -1.
        -12    1    5    5    0    0 -0.29226133293E+02 -0.88997278578E+02 -0.30165283896E+02  0.98410501543E+02  0.00000000000E+00 0.  1.
          5    1    3    3  501    0  0.14254017794E+02  0.54908456841E+02 -0.11717353310E+03  0.13025062347E+03  0.41800000000E+01 0. -1.
         -5    1    3    3    0  501  0.39305121453E+02  0.32330758812E+02 -0.75844019252E+03  0.76015733145E+03  0.41800000000E+01 0. -1.
</event>
<event>
11    1  0.1704459E-009  0.1546353E+03  0.7561462E-02  0.1092234E+00
         22   -1    0    0    0    0  0.00000000000E+00  0.00000000000E+00  0.86835581998E+03  0.86835581998E+03  0.00000000000E+00 0.  1.
         22   -1    0    0    0    0 -0.00000000000E+00 -0.00000000000E+00 -0.97231344240E+02  0.97231344240E+02  0.00000000000E+00 0.  1.
         25    2    1    2    0    0 -0.55605424646E+02 -0.70722568834E+02  0.95000851940E+02  0.18101494386E+03  0.12509037948E+03 0.  0.
         24    2    1    2    0    0  0.36600242455E+02  0.84952593483E+02  0.23958153081E+02  0.12654837694E+03  0.82969739788E+02 0.  0.
        -24    2    1    2    0    0  0.19005182191E+02 -0.14230024649E+02  0.65216547072E+03  0.65802384342E+03  0.84332003157E+02 0.  0.
        -13    1    4    4    0    0  0.61395117188E+02  0.76302929513E+02  0.17235404452E+02  0.99441222003E+02  0.00000000000E+00 0.  1.
         14    1    4    4    0    0 -0.24794874733E+02  0.86496639693E+01  0.67227486287E+01  0.27107154940E+02  0.00000000000E+00 0. -1.
         11    1    5    5    0    0 -0.32097152444E+02 -0.13235194484E+02  0.20149682397E+03  0.20446605497E+03  0.00000000000E+00 0. -1.
        -12    1    5    5    0    0  0.51102334635E+02 -0.99483016520E+00  0.45066864675E+03  0.45355778844E+03  0.00000000000E+00 0.  1.
          5    1    3    3  501    0 -0.86911012715E+02 -0.33773309364E+02  0.26509264506E+02  0.97027697392E+02  0.41800000000E+01 0. -1.
         -5    1    3    3    0  501  0.31305588069E+02 -0.36949259470E+02  0.68491587435E+02  0.83987246467E+02  0.41800000000E+01 0. -1.
</event>
<event>
11    1  0.1704459E-009  0.1437769E+03  0.7561462E-02  0.1103413E+00
         22   -1    0    0    0    0  0.00000000000E+00  0.00000000000E+00  0.34162552253E+03  0.34162552253E+03  0.00000000000E+00 0. -1.
         22   -1    0    0    0    0 -0.00000000000E+00 -0.00000000000E+00 -0.15811993555E+03  0.15811993555E+03  0.00000000000E+00 0. -1.
         25    2    1    2    0    0 -0.59387462813E+02 -0.54206856294E+02 -0.61788840369E+02  0.16103130460E+03  0.12509183131E+03 0.  0.
         24    2    1    2    0    0  0.34068413350E+02  0.49157592293E+02  0.22186049174E+02  0.10302079975E+03  0.80894614994E+02 0.  0.
        -24    2    1    2    0    0  0.25319049463E+02  0.50492640013E+01  0.22310837818E+03  0.23569335373E+03  0.71466490361E+02 0.  0.
        -13    1    4    4    0    0 -0.25276446459E+02  0.44201053731E+01  0.10778221896E+02  0.27831747058E+02  0.00000000000E+00 0.  1.
         14    1    4    4    0    0  0.59344859808E+02  0.44737486920E+02  0.11407827278E+02  0.75189052692E+02  0.00000000000E+00 0. -1.
         13    1    5    5    0    0  0.44518505565E+02 -0.16104665446E+02  0.13393620960E+03  0.14205691052E+03  0.00000000000E+00 0. -1.
        -14    1    5    5    0    0 -0.19199456102E+02  0.21153929448E+02  0.89172168583E+02  0.93636443201E+02  0.00000000000E+00 0.  1.
          5    1    3    3  501    0 -0.48272569068E+02 -0.35826053796E+02 -0.10014196604E+03  0.11687443184E+03  0.41800000000E+01 0. -1.
         -5    1    3    3    0  501 -0.11114893745E+02 -0.18380802498E+02  0.38353125673E+02  0.44156872765E+02  0.41800000000E+01 0. -1.
</event>
<event>
11    1  0.1704459E-009  0.6749795E+03  0.7561462E-02  0.9070011E-01
         22   -1    0    0    0    0  0.00000000000E+00  0.00000000000E+00  0.93283999773E+02  0.93283999773E+02  0.00000000000E+00 0. -1.
         22   -1    0    0    0    0 -0.00000000000E+00 -0.00000000000E+00 -0.12209953473E+04  0.12209953473E+04  0.00000000000E+00 0. -1.
         25    2    1    2    0    0  0.21355886496E+03  0.17542318331E+03 -0.74706239087E+03  0.80630669187E+03  0.12509030119E+03 0.  0.
         24    2    1    2    0    0 -0.14442147354E+03 -0.85180091072E+02 -0.18610567909E+03  0.26130743121E+03  0.74384406191E+02 0.  0.
        -24    2    1    2    0    0 -0.69137391426E+02 -0.90243092234E+02 -0.19454327757E+03  0.24666522400E+03  0.10036359546E+03 0.  0.
        -11    1    4    4    0    0 -0.29535729912E+02  0.81575480949E-01 -0.73590892473E+02  0.79296818669E+02  0.00000000000E+00 0.  1.
         12    1    4    4    0    0 -0.11488574362E+03 -0.85261666553E+02 -0.11251478662E+03  0.18201061255E+03  0.00000000000E+00 0. -1.
         11    1    5    5    0    0 -0.18830072188E+02 -0.83804739578E+02 -0.65517891296E+02  0.10802962591E+03  0.00000000000E+00 0. -1.
        -12    1    5    5    0    0 -0.50307319238E+02 -0.64383526555E+01 -0.12902538628E+03  0.13863559809E+03  0.00000000000E+00 0.  1.
          5    1    3    3  501    0  0.58567120141E+02  0.77606373095E+02 -0.12875651293E+03  0.16139568993E+03  0.41800000000E+01 0.  1.
         -5    1    3    3    0  501  0.15499174482E+03  0.97816810211E+02 -0.61830587794E+03  0.64491100194E+03  0.41800000000E+01 0.  1.
</event>
<event>
11    1  0.1704459E-009  0.3640416E+03  0.7561462E-02  0.9762250E-01
         22   -1    0    0    0    0  0.00000000000E+00  0.00000000000E+00  0.14922285014E+04  0.14922285014E+04  0.00000000000E+00 0.  1.
         22   -1    0    0    0    0 -0.00000000000E+00 -0.00000000000E+00 -0.17546689317E+03  0.17546689317E+03  0.00000000000E+00 0.  1.
         25    2    1    2    0    0 -0.18364456167E+03  0.25674437137E+03  0.21998843357E+03  0.40457890685E+03  0.12508470610E+03 0.  0.
        -24    2    1    2    0    0  0.28438801702E+03 -0.26627439357E+03  0.44009907896E+03  0.59315581015E+03  0.79799867863E+02 0.  0.
         24    2    1    2    0    0 -0.10074345535E+03  0.95300222053E+01  0.65667409566E+03  0.66996067754E+03  0.85944030777E+02 0.  0.
        -13    1    5    5    0    0  0.64084522187E+01 -0.20283298821E+02  0.12206682558E+03  0.12390637747E+03  0.00000000000E+00 0.  1.
         14    1    5    5    0    0 -0.10715190757E+03  0.29813321027E+02  0.53460727008E+03  0.54605430007E+03  0.00000000000E+00 0. -1.
         13    1    4    4    0    0  0.14067948571E+03 -0.95424652447E+02  0.23467164174E+03  0.28977122257E+03  0.00000000000E+00 0. -1.
        -14    1    4    4    0    0  0.14370853131E+03 -0.17084974113E+03  0.20542743722E+03  0.30338458757E+03  0.00000000000E+00 0.  1.
          5    1    3    3  501    0 -0.35595482423E+02  0.74047315843E+02 -0.40091539543E+00  0.82265888956E+02  0.41800000000E+01 0.  1.
         -5    1    3    3    0  501 -0.14804907925E+03  0.18269705553E+03  0.22038934897E+03  0.32231301789E+03  0.41800000000E+01 0.  1.
</event>
<event>
11    1  0.1820269E-009  0.2017336E+03  0.7561462E-02  0.1053304E+00
         22   -1    0    0    0    0  0.00000000000E+00  0.00000000000E+00  0.53082562686E+03  0.53082562686E+03  0.00000000000E+00 0. -1.
         22   -1    0    0    0    0 -0.00000000000E+00 -0.00000000000E+00 -0.80862787980E+03  0.80862787980E+03  0.00000000000E+00 0.  1.
         25    2    1    2    0    0 -0.16986357696E+03 -0.46999077059E+02 -0.68886858905E+03  0.72197747635E+03  0.12509594458E+03 0.  0.
         24    2    1    2    0    0  0.12372297617E+02  0.35219129133E+02 -0.64493000641E+02  0.11002437575E+03  0.80947855572E+02 0.  0.
        -24    2    1    2    0    0  0.15749127935E+03  0.11779947927E+02  0.47555933676E+03  0.50745165457E+03  0.80051412855E+02 0.  0.
        -13    1    4    4    0    0  0.29504416767E+02  0.54926403122E+02 -0.51443868124E+02  0.80832493072E+02  0.00000000000E+00 0.  1.
         14    1    4    4    0    0 -0.17132119150E+02 -0.19707273989E+02 -0.13049132517E+02  0.29191882675E+02  0.00000000000E+00 0. -1.
         11    1    5    5    0    0  0.30522058482E+02 -0.43015875642E+01  0.21455218069E+03  0.21675501827E+03  0.00000000000E+00 0. -1.
        -12    1    5    5    0    0  0.12696922086E+03  0.16081535491E+02  0.26100715607E+03  0.29069663629E+03  0.00000000000E+00 0.  1.
          5    1    3    3  501    0 -0.14564708470E+03 -0.57961324803E+02 -0.67236889216E+03  0.69041291124E+03  0.41800000000E+01 0.  1.
         -5    1    3    3    0  501 -0.24216492264E+02  0.10962247744E+02 -0.16499696887E+02  0.31564565109E+02  0.41800000000E+01 0.  1.
</event>
<event>
11    1  0.1704459E-009  0.2195314E+03  0.7561462E-02  0.1041511E+00
         22   -1    0    0    0    0  0.00000000000E+00  0.00000000000E+00  0.19091473384E+03  0.19091473384E+03  0.00000000000E+00 0.  1.
         22   -1    0    0    0    0 -0.00000000000E+00 -0.00000000000E+00 -0.56366143725E+03  0.56366143725E+03  0.00000000000E+00 0.  1.
         25    2    1    2    0    0 -0.18874081129E+03 -0.71941183948E+01 -0.41462796976E+03  0.47248187350E+03  0.12509163957E+03 0.  0.
        -24    2    1    2    0    0  0.14793000338E+03  0.56917829868E+02  0.17770165811E+02  0.17859477822E+03  0.80357891693E+02 0.  0.
         24    2    1    2    0    0  0.40810807913E+02 -0.49723711473E+02  0.24111100540E+02  0.10349951937E+03  0.77413408502E+02 0.  0.
        -11    1    5    5    0    0  0.28703116125E+02 -0.42769057918E+02  0.51449440856E+02  0.72801827964E+02  0.00000000000E+00 0.  1.
         12    1    5    5    0    0  0.12107691788E+02 -0.69546535549E+01 -0.27338340317E+02  0.30697691408E+02  0.00000000000E+00 0. -1.
         13    1    4    4    0    0  0.31506200090E+02  0.29789469782E+02  0.37632748015E+02  0.57413211695E+02  0.00000000000E+00 0. -1.
        -14    1    4    4    0    0  0.11642380329E+03  0.27128360086E+02 -0.19862582203E+02  0.12118156652E+03  0.00000000000E+00 0.  1.
          5    1    3    3  501    0 -0.18672470442E+02 -0.13494704865E+02 -0.18583162773E+03  0.18730091958E+03  0.41800000000E+01 0. -1.
         -5    1    3    3    0  501 -0.17006834085E+03  0.63005864701E+01 -0.22879634203E+03  0.28518095392E+03  0.41800000000E+01 0. -1.
</event>
<event>
11    1  0.1704459E-009  0.2738996E+03  0.7561462E-02  0.1011885E+00
         22   -1    0    0    0    0  0.00000000000E+00  0.00000000000E+00  0.26025119608E+04  0.26025119608E+04  0.00000000000E+00 0. -1.
         22   -1    0    0    0    0 -0.00000000000E+00 -0.00000000000E+00 -0.11681950093E+03  0.11681950093E+03  0.00000000000E+00 0. -1.
         25    2    1    2    0    0 -0.19223000199E+03 -0.20185741898E+02  0.62159322110E+02  0.23850368460E+03  0.12514147356E+03 0.  0.
         24    2    1    2    0    0 -0.14033162298E+02 -0.12121802278E+03  0.23951264966E+03  0.28109290329E+03  0.82195938102E+02 0.  0.
        -24    2    1    2    0    0  0.20626316428E+03  0.14140376468E+03  0.21840204881E+04  0.21997348738E+04  0.79677506870E+02 0.  0.
        -11    1    4    4    0    0 -0.25385023017E+02 -0.92746028892E+01  0.90010798034E+02  0.93980643832E+02  0.00000000000E+00 0.  1.
         12    1    4    4    0    0  0.11351860719E+02 -0.11194341989E+03  0.14950185162E+03  0.18711225946E+03  0.00000000000E+00 0. -1.
         11    1    5    5    0    0  0.80001506113E+02  0.97224627474E+02  0.12195107961E+04  0.12259932508E+04  0.00000000000E+00 0. -1.
        -12    1    5    5    0    0  0.12626165817E+03  0.44179137206E+02  0.96450969197E+03  0.97374162301E+03  0.00000000000E+00 0.  1.
          5    1    3    3  501    0  0.10821094198E+02  0.18780284489E+02 -0.15104331875E+01  0.22125753627E+02  0.41800000000E+01 0. -1.
         -5    1    3    3    0  501 -0.20305109618E+03 -0.38966026387E+02  0.63669755297E+02  0.21637793098E+03  0.41800000000E+01 0. -1.
</event>
<event>
11    1  0.1704459E-009  0.1431554E+03  0.7561462E-02  0.1104085E+00
         22   -1    0    0    0    0  0.00000000000E+00  0.00000000000E+00  0.83569914628E+03  0.83569914628E+03  0.00000000000E+00 0. -1.
         22   -1    0    0    0    0 -0.00000000000E+00 -0.00000000000E+00 -0.17215279042E+03  0.17215279042E+03  0.00000000000E+00 0.  1.
         25    2    1    2    0    0  0.64136186438E+01 -0.22212136805E+02 -0.76456579419E+02  0.14841570513E+03  0.12508836664E+03 0.  0.
         24    2    1    2    0    0  0.47392218313E+02 -0.24352126587E+02 -0.16683849491E+02  0.95846140982E+02  0.77904322610E+02 0.  0.
        -24    2    1    2    0    0 -0.53805836957E+02  0.46564263392E+02  0.75668678477E+03  0.76359009059E+03  0.73699643691E+02 0.  0.
        -11    1    4    4    0    0  0.58757366238E+02 -0.18427008674E+02 -0.36988923859E+02  0.71834276109E+02  0.00000000000E+00 0.  1.
         12    1    4    4    0    0 -0.11365147925E+02 -0.59251179129E+01  0.20305074367E+02  0.24011864873E+02  0.00000000000E+00 0. -1.
         13    1    5    5    0    0 -0.97631032703E+01  0.34382397863E+02  0.57964925256E+03  0.58075013858E+03  0.00000000000E+00 0. -1.
        -14    1    5    5    0    0 -0.44042733687E+02  0.12181865529E+02  0.17703753221E+03  0.18283995201E+03  0.00000000000E+00 0.  1.
          5    1    3    3  501    0  0.30589701390E+01 -0.23078707652E+02 -0.11097768090E+03  0.11347026968E+03  0.41800000000E+01 0. -1.
         -5    1    3    3    0  501  0.33546485048E+01  0.86657084707E+00  0.34521101476E+02  0.34945435449E+02  0.41800000000E+01 0. -1.
</event>
<event>
11    1  0.1704459E-009  0.1315085E+03  0.7561462E-02  0.1117429E+00
         22   -1    0    0    0    0  0.00000000000E+00  0.00000000000E+00  0.26291168293E+03  0.26291168293E+03  0.00000000000E+00 0. -1.
         22   -1    0    0    0    0 -0.00000000000E+00 -0.00000000000E+00 -0.11477720363E+04  0.11477720363E+04  0.00000000000E+00 0.  1.
         25    2    1    2    0    0  0.35209176813E+02 -0.23857382138E+02 -0.66766191481E+03  0.68060874501E+03  0.12508785104E+03 0.  0.
        -24    2    1    2    0    0 -0.41612766046E+02  0.25668007707E+01 -0.46100810783E+03  0.47118143605E+03  0.88007155545E+02 0.  0.
         24    2    1    2    0    0  0.64035892332E+01  0.21290581367E+02  0.24380966930E+03  0.25889353815E+03  0.84192722041E+02 0.  0.
        -11    1    5    5    0    0  0.10088369914E+01 -0.12750873609E+02  0.13297227715E+00  0.12791411630E+02  0.00000000000E+00 0.  1.
         12    1    5    5    0    0  0.53947522418E+01  0.34041454976E+02  0.24367669702E+03  0.24610212652E+03  0.00000000000E+00 0. -1.
         11    1    4    4    0    0  0.72937943594E+01  0.21877562608E+02 -0.34834767919E+02  0.41776647039E+02  0.00000000000E+00 0. -1.
        -12    1    4    4    0    0 -0.48906560405E+02 -0.19310761837E+02 -0.42617333991E+03  0.42940478901E+03  0.00000000000E+00 0.  1.
          5    1    3    3  501    0 -0.33604294172E+02  0.25947715817E+02 -0.14772389899E+03  0.15376070784E+03  0.41800000000E+01 0.  1.
         -5    1    3    3    0  501  0.68813470984E+02 -0.49805097955E+02 -0.51993801582E+03  0.52684803717E+03  0.41800000000E+01 0.  1.
</event>
<event>
11    1  0.1704459E-009  0.5821036E+03  0.7561462E-02  0.9226723E-01
         22   -1    0    0    0    0  0.00000000000E+00  0.00000000000E+00  0.12522746868E+04  0.12522746868E+04  0.00000000000E+00 0. -1.
         22   -1    0    0    0    0 -0.00000000000E+00 -0.00000000000E+00 -0.56704307010E+03  0.56704307010E+03  0.00000000000E+00 0. -1.
         25    2    1    2    0    0  0.34264373745E+03  0.43908392734E+03 -0.55214414320E+02  0.57349006877E+03  0.12507118522E+03 0.  0.
         24    2    1    2    0    0 -0.29114946054E+03 -0.51063449855E+03  0.10793728837E+03  0.60240421590E+03  0.75662286724E+02 0.  0.
        -24    2    1    2    0    0 -0.51494276910E+02  0.71550571208E+02  0.63250874265E+03  0.64342347223E+03  0.78455785605E+02 0.  0.
        -11    1    4    4    0    0 -0.14868134660E+03 -0.20888451755E+03  0.74728133459E+02  0.26706399688E+03  0.00000000000E+00 0.  1.
         12    1    4    4    0    0 -0.14246811394E+03 -0.30174998100E+03  0.33209154908E+02  0.33534021902E+03  0.00000000000E+00 0. -1.
         13    1    5    5    0    0 -0.54139496194E+02  0.58640962078E+02  0.29347986921E+03  0.30413858866E+03  0.00000000000E+00 0. -1.
        -14    1    5    5    0    0  0.26452192832E+01  0.12909609130E+02  0.33902887344E+03  0.33928488357E+03  0.00000000000E+00 0.  1.
          5    1    3    3  501    0  0.11705172391E+03  0.14574234525E+03 -0.78264853824E+02  0.20269385046E+03  0.41800000000E+01 0. -1.
         -5    1    3    3    0  501  0.22559201354E+03  0.29334158209E+03  0.23050439505E+02  0.37079621831E+03  0.41800000000E+01 0. -1.
</event>
<event>
11    1  0.1704459E-009  0.1385990E+03  0.7561462E-02  0.1109133E+00
         22   -1    0    0    0    0  0.00000000000E+00  0.00000000000E+00  0.32790840946E+03  0.32790840946E+03  0.00000000000E+00 0.  1.
         22   -1    0    0    0    0 -0.00000000000E+00 -0.00000000000E+00 -0.14735863047E+03  0.14735863047E+03  0.00000000000E+00 0.  1.
         25    2    1    2    0    0  0.56986453209E+01  0.52550947117E+02 -0.56551489974E+02  0.14710922569E+03  0.12509586989E+03 0.  0.
        -24    2    1    2    0    0  0.60497796091E+02  0.15782719284E+02  0.11575492982E+03  0.15427525889E+03  0.80576511263E+02 0.  0.
         24    2    1    2    0    0 -0.66196441412E+02 -0.68333666401E+02  0.12134633915E+03  0.17388255536E+03  0.80366350011E+02 0.  0.
        -11    1    5    5    0    0 -0.79410039259E+02 -0.71584642685E+02  0.90149900746E+02  0.13984748839E+03  0.00000000000E+00 0.  1.
         12    1    5    5    0    0  0.13213597847E+02  0.32509762839E+01  0.31196438400E+02  0.34035066971E+02  0.00000000000E+00 0. -1.
         13    1    4    4    0    0  0.21791817843E+02 -0.25983655070E+02  0.12094898490E+02  0.36004447298E+02  0.00000000000E+00 0. -1.
        -14    1    4    4    0    0  0.38705978248E+02  0.41766374354E+02  0.10366003133E+03  0.11827081159E+03  0.00000000000E+00 0.  1.
          5    1    3    3  501    0  0.30303021409E+01 -0.23747014880E+02  0.25314507856E+02  0.35091311671E+02  0.41800000000E+01 0. -1.
         -5    1    3    3    0  501  0.26683431800E+01  0.76297961997E+02 -0.81865997831E+02  0.11201791402E+03  0.41800000000E+01 0. -1.
</event>
<event>
11    1  0.1704459E-009  0.1473536E+03  0.7561462E-02  0.1099614E+00
         22   -1    0    0    0    0  0.00000000000E+00  0.00000000000E+00  0.81758480295E+03  0.81758480295E+03  0.00000000000E+00 0. -1.
         22   -1    0    0    0    0 -0.00000000000E+00 -0.00000000000E+00 -0.46237241655E+03  0.46237241655E+03  0.00000000000E+00 0. -1.
         25    2    1    2    0    0  0.88175205597E+02 -0.24447352345E+02 -0.20914309703E+03  0.26030927381E+03  0.12509013980E+03 0.  0.
         24    2    1    2    0    0 -0.70223883942E+02  0.11919821873E+02 -0.21263790116E+03  0.23817970262E+03  0.80257197178E+02 0.  0.
        -24    2    1    2    0    0 -0.17951321655E+02  0.12527530472E+02  0.77699338460E+03  0.78146824307E+03  0.80589740322E+02 0.  0.
        -13    1    4    4    0    0 -0.41989753164E+02  0.16831292530E+01 -0.26602973917E+02  0.49736209306E+02  0.00000000000E+00 0.  1.
         14    1    4    4    0    0 -0.28234130778E+02  0.10236692620E+02 -0.18603492724E+03  0.18844349331E+03  0.00000000000E+00 0. -1.
         11    1    5    5    0    0 -0.26197442570E+02  0.34269147204E+02  0.69224745111E+03  0.69359009077E+03  0.00000000000E+00 0. -1.
        -12    1    5    5    0    0  0.82461209152E+01 -0.21741616732E+02  0.84745933485E+02  0.87878152293E+02  0.00000000000E+00 0.  1.
          5    1    3    3  501    0 -0.21295455620E+02 -0.10453189764E+02 -0.10766300275E+03  0.11032479398E+03  0.41800000000E+01 0.  1.
         -5    1    3    3    0  501  0.10947066122E+03 -0.13994162581E+02 -0.10148009429E+03  0.14998447983E+03  0.41800000000E+01 0.  1.
</event>
<event>
11    1  0.1704459E-009  0.2286163E+03  0.7561462E-02  0.1035950E+00
         22   -1    0    0    0    0  0.00000000000E+00  0.00000000000E+00  0.16226490960E+03  0.16226490960E+03  0.00000000000E+00 0.  1.
         22   -1    0    0    0    0 -0.00000000000E+00 -0.00000000000E+00 -0.78995291698E+03  0.78995291698E+03  0.00000000000E+00 0. -1.
         25    2    1    2    0    0  0.75408514384E+02  0.84299440497E+02 -0.45341669161E+03  0.48376290797E+03  0.12508802976E+03 0.  0.
        -24    2    1    2    0    0  0.11801305690E+03 -0.10926005876E+01 -0.19558431517E+03  0.24198941472E+03  0.79858481838E+02 0.  0.
         24    2    1    2    0    0 -0.19342157129E+03 -0.83206839909E+02  0.21312999396E+02  0.22646550389E+03  0.80604578413E+02 0.  0.
        -13    1    5    5    0    0 -0.17715637395E+03 -0.81343227222E+02  0.42671357906E+02  0.19955436911E+03  0.00000000000E+00 0.  1.
         14    1    5    5    0    0 -0.16265197334E+02 -0.18636126869E+01 -0.21358358510E+02  0.26911134774E+02  0.00000000000E+00 0. -1.
         11    1    4    4    0    0  0.12675711586E+03  0.10112259413E+02 -0.16544007760E+03  0.20866251098E+03  0.00000000000E+00 0. -1.
        -12    1    4    4    0    0 -0.87440589535E+01 -0.11204860001E+02 -0.30144237571E+02  0.33326903747E+02  0.00000000000E+00 0.  1.
          5    1    3    3  501    0 -0.55770085660E+00 -0.10910542258E+02  0.23944964641E+01  0.11939722607E+02  0.41800000000E+01 0. -1.
         -5    1    3    3    0  501  0.75966215240E+02  0.95209982755E+02 -0.45581118807E+03  0.47182318536E+03  0.41800000000E+01 0. -1.
</event>
<event>
11    1  0.1704459E-009  0.1585727E+03  0.7561462E-02  0.1088427E+00
         22   -1    0    0    0    0  0.00000000000E+00  0.00000000000E+00  0.10307213900E+04  0.10307213900E+04  0.00000000000E+00 0. -1.
         22   -1    0    0    0    0 -0.00000000000E+00 -0.00000000000E+00 -0.10819144330E+03  0.10819144330E+03  0.00000000000E+00 0. -1.
         25    2    1    2    0    0 -0.13234780678E+03 -0.21262878675E+02  0.48057183244E+02  0.18953912413E+03  0.12509010650E+03 0.  0.
        -24    2    1    2    0    0  0.71156641947E+02  0.75754575287E+01  0.50018940867E+02  0.11852980821E+03  0.80167111323E+02 0.  0.
         24    2    1    2    0    0  0.61191164834E+02  0.13687421146E+02  0.82445382264E+03  0.83084390101E+03  0.81521641546E+02 0.  0.
        -11    1    5    5    0    0  0.15359349999E+02  0.85462982649E+01  0.28025560498E+02  0.33081428138E+02  0.00000000000E+00 0.  1.
         12    1    5    5    0    0  0.45831814835E+02  0.51411228811E+01  0.79642826214E+03  0.79776247288E+03  0.00000000000E+00 0. -1.
         11    1    4    4    0    0  0.98094775340E+01 -0.29489206417E+02  0.32036319358E+02  0.44633674536E+02  0.00000000000E+00 0. -1.
        -12    1    4    4    0    0  0.61347164413E+02  0.37064663946E+02  0.17982621509E+02  0.73896133669E+02  0.00000000000E+00 0.  1.
          5    1    3    3  501    0 -0.83348826968E+02 -0.13841510482E+02 -0.35948707009E+02  0.91915158189E+02  0.41800000000E+01 0. -1.
         -5    1    3    3    0  501 -0.48998979813E+02 -0.74213681930E+01  0.84005890253E+02  0.97623965939E+02  0.41800000000E+01 0. -1.
</event>
<event>
11    1  0.1704459E-009  0.2984898E+03  0.7561462E-02  0.1000832E+00
         22   -1    0    0    0    0  0.00000000000E+00  0.00000000000E+00  0.57565305690E+03  0.57565305690E+03  0.00000000000E+00 0. -1.
         22   -1    0    0    0    0 -0.00000000000E+00 -0.00000000000E+00 -0.73599980992E+03  0.73599980992E+03  0.00000000000E+00 0.  1.
         25    2    1    2    0    0 -0.12447084563E+03 -0.20545648863E+03 -0.33191933551E+03  0.42839648537E+03  0.12509093997E+03 0.  0.
         24    2    1    2    0    0  0.17517540128E+03  0.26944440150E+03 -0.26969712254E+03  0.42722106642E+03  0.80589049947E+02 0.  0.
        -24    2    1    2    0    0 -0.50704555649E+02 -0.63987912872E+02  0.44126970503E+03  0.45603531502E+03  0.81140933059E+02 0.  0.
        -13    1    4    4    0    0  0.16320564639E+03  0.19119855262E+03 -0.21740351706E+03  0.33235110767E+03  0.00000000000E+00 0.  1.
         14    1    4    4    0    0  0.11969754889E+02  0.78245848879E+02 -0.52293605479E+02  0.94869958748E+02  0.00000000000E+00 0. -1.
         11    1    5    5    0    0 -0.43320884110E+02 -0.19918485025E+02  0.36126619734E+03  0.36439910865E+03  0.00000000000E+00 0. -1.
        -12    1    5    5    0    0 -0.73836715387E+01 -0.44069427847E+02  0.80003507686E+02  0.91636206371E+02  0.00000000000E+00 0.  1.
          5    1    3    3  501    0 -0.58022541724E+01  0.16418234679E+02 -0.12903865759E+02  0.22072760022E+02  0.41800000000E+01 0. -1.
         -5    1    3    3    0  501 -0.11866859146E+03 -0.22187472331E+03 -0.31901546975E+03  0.40632372535E+03  0.41800000000E+01 0. -1.
</event>
<event>
11    1  0.1704459E-009  0.5057452E+03  0.7561462E-02  0.9380774E-01
         22   -1    0    0    0    0  0.00000000000E+00  0.00000000000E+00  0.19184557245E+04  0.19184557245E+04  0.00000000000E+00 0.  1.
         22   -1    0    0    0    0 -0.00000000000E+00 -0.00000000000E+00 -0.11410355503E+04  0.11410355503E+04  0.00000000000E+00 0.  1.
         25    2    1    2    0    0  0.25570418233E+01  0.48410901515E+03 -0.91108744821E+03  0.10392765377E+04  0.12508919437E+03 0.  0.
        -24    2    1    2    0    0 -0.18407722239E+03  0.16116511319E+03  0.70762438169E+02  0.26727627448E+03  0.81059649225E+02 0.  0.
         24    2    1    2    0    0  0.18152018056E+03 -0.64527412834E+03  0.16177451842E+04  0.17529384626E+04  0.79784059691E+02 0.  0.
        -13    1    5    5    0    0  0.14968311417E+03 -0.47444113376E+03  0.11132752918E+04  0.12193774228E+04  0.00000000000E+00 0.  1.
         14    1    5    5    0    0  0.31837066392E+02 -0.17083299458E+03  0.50446989240E+03  0.53356103978E+03  0.00000000000E+00 0. -1.
         13    1    4    4    0    0 -0.17283636914E+03  0.14855286635E+03  0.86903008553E+02  0.24391083923E+03  0.00000000000E+00 0. -1.
        -14    1    4    4    0    0 -0.11240853251E+02  0.12612246836E+02 -0.16140570384E+02  0.23365435249E+02  0.00000000000E+00 0.  1.
          5    1    3    3  501    0  0.39529252846E+02  0.49071724021E+02 -0.10477422347E+03  0.12233440331E+03  0.41800000000E+01 0.  1.
         -5    1    3    3    0  501 -0.36972211023E+02  0.43503729113E+03 -0.80631322474E+03  0.91694213441E+03  0.41800000000E+01 0.  1.
</event>
<event>
11    1  0.1704459E-009  0.9958968E+03  0.7561462E-02  0.8682927E-01
         22   -1    0    0    0    0  0.00000000000E+00  0.00000000000E+00  0.15156907191E+04  0.15156907191E+04  0.00000000000E+00 0. -1.
         22   -1    0    0    0    0 -0.00000000000E+00 -0.00000000000E+00 -0.16359049729E+03  0.16359049729E+03  0.00000000000E+00 0. -1.
         25    2    1    2    0    0  0.51046866707E+02 -0.34091869243E+03  0.12082690555E+03  0.38610640987E+03  0.12509069187E+03 0.  0.
        -24    2    1    2    0    0 -0.61933346121E+02  0.21794992741E+03  0.65000613657E+03  0.69307931385E+03  0.80703454040E+02 0.  0.
         24    2    1    2    0    0  0.10886479414E+02  0.12296876502E+03  0.58126717972E+03  0.60009549270E+03  0.83685324465E+02 0.  0.
        -13    1    5    5    0    0 -0.13426551747E+02  0.77805055840E+01  0.14525263783E+02  0.21255395713E+02  0.00000000000E+00 0.  1.
         14    1    5    5    0    0  0.24313031161E+02  0.11518825943E+03  0.56674191594E+03  0.57884009698E+03  0.00000000000E+00 0. -1.
         13    1    4    4    0    0 -0.74950285538E+02  0.13675894000E+03  0.37771042793E+03  0.40863886298E+03  0.00000000000E+00 0. -1.
        -14    1    4    4    0    0  0.13016939417E+02  0.81190987408E+02  0.27229570864E+03  0.28444045087E+03  0.00000000000E+00 0.  1.
          5    1    3    3  501    0  0.73826028891E+02 -0.16242473349E+03  0.19426416141E+02  0.17951861919E+03  0.41800000000E+01 0. -1.
         -5    1    3    3    0  501 -0.22779162184E+02 -0.17849395894E+03  0.10140048941E+03  0.20658779069E+03  0.41800000000E+01 0. -1.
</event>
<event>
11    1  0.1704459E-009  0.2261451E+03  0.7561462E-02  0.1037435E+00
         22   -1    0    0    0    0  0.00000000000E+00  0.00000000000E+00  0.11218700590E+04  0.11218700590E+04  0.00000000000E+00 0.  1.
         22   -1    0    0    0    0 -0.00000000000E+00 -0.00000000000E+00 -0.84678004901E+02  0.84678004901E+02  0.00000000000E+00 0.  1.
         25    2    1    2    0    0 -0.69317792325E+02  0.16466788848E+03  0.17145570260E+03  0.27742531004E+03  0.12508906773E+03 0.  0.
        -24    2    1    2    0    0  0.31778185748E+01 -0.19421044002E+03  0.69717802708E+03  0.72818442294E+03  0.80421134195E+02 0.  0.
         24    2    1    2    0    0  0.66139973750E+02  0.29542551541E+02  0.16855832442E+03  0.20093833092E+03  0.81957584292E+02 0.  0.
        -13    1    5    5    0    0  0.75116620538E+02  0.39133222784E+01  0.87156450740E+02  0.11512631184E+03  0.00000000000E+00 0.  1.
         14    1    5    5    0    0 -0.89766467878E+01  0.25629229263E+02  0.81401873682E+02  0.85812019083E+02  0.00000000000E+00 0. -1.
         13    1    4    4    0    0  0.28339964279E+02 -0.30446189934E+02  0.96679752406E+02  0.10524779609E+03  0.00000000000E+00 0. -1.
        -14    1    4    4    0    0 -0.25162145704E+02 -0.16376425009E+03  0.60049827467E+03  0.62293662685E+03  0.00000000000E+00 0.  1.
          5    1    3    3  501    0 -0.42824953816E+02  0.17563938527E+03  0.11595969288E+03  0.21481921027E+03  0.41800000000E+01 0.  1.
         -5    1    3    3    0  501 -0.26492838509E+02 -0.10971496786E+02  0.55496009715E+02  0.62606099769E+02  0.41800000000E+01 0.  1.
</event>
<event>
11    1  0.1704459E-009  0.1527031E+03  0.7561462E-02  0.1094148E+00
         22   -1    0    0    0    0  0.00000000000E+00  0.00000000000E+00  0.22268682619E+03  0.22268682619E+03  0.00000000000E+00 0. -1.
         22   -1    0    0    0    0 -0.00000000000E+00 -0.00000000000E+00 -0.59117785166E+03  0.59117785166E+03  0.00000000000E+00 0. -1.
         25    2    1    2    0    0 -0.72225060852E+02  0.12571092235E+02 -0.29029097375E+03  0.32448502038E+03  0.12508871744E+03 0.  0.
         24    2    1    2    0    0  0.76497347402E+02 -0.79637815730E+02 -0.25251755858E+03  0.28639559446E+03  0.77867151498E+02 0.  0.
        -24    2    1    2    0    0 -0.42722865497E+01  0.67066723494E+02  0.17431750686E+03  0.20298406301E+03  0.79370893950E+02 0.  0.
        -13    1    4    4    0    0  0.33470692970E+01 -0.53011050690E+02 -0.13851506236E+03  0.14835025065E+03  0.00000000000E+00 0.  1.
         14    1    4    4    0    0  0.73150278104E+02 -0.26626765040E+02 -0.11400249623E+03  0.13804534382E+03  0.00000000000E+00 0. -1.
         13    1    5    5    0    0  0.31182269948E+02  0.11213604057E+02  0.32114505976E+02  0.46145643013E+02  0.00000000000E+00 0. -1.
        -14    1    5    5    0    0 -0.35454556497E+02  0.55853119438E+02  0.14220300088E+03  0.15683842000E+03  0.00000000000E+00 0.  1.
          5    1    3    3  501    0 -0.22325778019E+02  0.66857301204E+02 -0.12812793989E+03  0.14629620798E+03  0.41800000000E+01 0. -1.
         -5    1    3    3    0  501 -0.49899282832E+02 -0.54286208969E+02 -0.16216303387E+03  0.17818881240E+03  0.41800000000E+01 0. -1.
</event>
<event>
11    1  0.1704459E-009  0.1915636E+03  0.7561462E-02  0.1060655E+00
         22   -1    0    0    0    0  0.00000000000E+00  0.00000000000E+00  0.23623539161E+03  0.23623539161E+03  0.00000000000E+00 0.  1.
         22   -1    0    0    0    0 -0.00000000000E+00 -0.00000000000E+00 -0.58675765141E+03  0.58675765141E+03  0.00000000000E+00 0.  1.
         25    2    1    2    0    0  0.46266596075E+02  0.15008963361E+03 -0.48774151506E+03  0.52745518725E+03  0.12509873306E+03 0.  0.
         24    2    1    2    0    0  0.49247138548E+01 -0.10529908736E+03  0.15742471509E+02  0.13330286490E+03  0.80060463252E+02 0.  0.
        -24    2    1    2    0    0 -0.51191309930E+02 -0.44790546255E+02  0.12147678376E+03  0.16223499087E+03  0.83287694321E+02 0.  0.
        -13    1    4    4    0    0 -0.27615164451E+02 -0.16771050807E+02  0.21499488043E+02  0.38808419691E+02  0.00000000000E+00 0.  1.
         14    1    4    4    0    0  0.32539878306E+02 -0.88528036550E+02 -0.57570165338E+01  0.94494445207E+02  0.00000000000E+00 0. -1.
         13    1    5    5    0    0 -0.28984212654E+02  0.49987108692E+01  0.36027534692E+00  0.29414307604E+02  0.00000000000E+00 0. -1.
        -14    1    5    5    0    0 -0.22207097276E+02 -0.49789257125E+02  0.12111650841E+03  0.13282068327E+03  0.00000000000E+00 0.  1.
          5    1    3    3  501    0  0.76408095177E+02  0.14432549753E+03 -0.44938867911E+03  0.47815865940E+03  0.41800000000E+01 0.  1.
         -5    1    3    3    0  501 -0.30141499102E+02  0.57641360817E+01 -0.38352835954E+02  0.49296527856E+02  0.41800000000E+01 0.  1.
</event>
<event>
11    1  0.1704459E-009  0.4954512E+03  0.7561462E-02  0.9403744E-01
         22   -1    0    0    0    0  0.00000000000E+00  0.00000000000E+00  0.36624159595E+04  0.36624159595E+04  0.00000000000E+00 0. -1.
         22   -1    0    0    0    0 -0.00000000000E+00 -0.00000000000E+00 -0.38234037604E+03  0.38234037604E+03  0.00000000000E+00 0. -1.
         25    2    1    2    0    0 -0.46003980064E+03  0.12358903898E+03 -0.18109359322E+03  0.52473856575E+03  0.12507919151E+03 0.  0.
         24    2    1    2    0    0  0.51587713854E+03 -0.13608891918E+03  0.30236629473E+04  0.30714009668E+04  0.79478702373E+02 0.  0.
        -24    2    1    2    0    0 -0.55837337904E+02  0.12499880196E+02  0.43750622941E+03  0.44861680299E+03  0.81063430976E+02 0.  0.
        -11    1    4    4    0    0  0.57296412653E+02 -0.36068719470E+02  0.29546568107E+03  0.30312340741E+03  0.00000000000E+00 0.  1.
         12    1    4    4    0    0  0.45858072589E+03 -0.10002019971E+03  0.27281972662E+04  0.27682775594E+04  0.00000000000E+00 0. -1.
         13    1    5    5    0    0 -0.37470521877E+02 -0.11178469080E+02  0.39313118451E+03  0.39507103971E+03  0.00000000000E+00 0. -1.
        -14    1    5    5    0    0 -0.18366816027E+02  0.23678349276E+02  0.44375044895E+02  0.53545763276E+02  0.00000000000E+00 0.  1.
          5    1    3    3  501    0 -0.16605790784E+03  0.10490082576E+03 -0.52952540158E+02  0.20347200277E+03  0.41800000000E+01 0. -1.
         -5    1    3    3    0  501 -0.29398189280E+03  0.18688213214E+02 -0.12814105307E+03  0.32126656298E+03  0.41800000000E+01 0. -1.
</event>
<event>
11    1  0.1704459E-009  0.1682775E+03  0.7561462E-02  0.1079540E+00
         22   -1    0    0    0    0  0.00000000000E+00  0.00000000000E+00  0.13568103001E+04  0.13568103001E+04  0.00000000000E+00 0. -1.
         22   -1    0    0    0    0 -0.00000000000E+00 -0.00000000000E+00 -0.13054160150E+03  0.13054160150E+03  0.00000000000E+00 0. -1.
         25    2    1    2    0    0  0.97995504441E+02  0.27753747997E+02 -0.81043389923E+01  0.16151437831E+03  0.12509126537E+03 0.  0.
         24    2    1    2    0    0 -0.19241324158E+02 -0.15881468933E+03  0.16106795967E+03  0.23962162006E+03  0.76702666622E+02 0.  0.
        -24    2    1    2    0    0 -0.78754180283E+02  0.13106094134E+03  0.10733050779E+04  0.10862159032E+04  0.67096996068E+02 0.  0.
        -13    1    4    4    0    0 -0.46373558058E+02 -0.11183009948E+03  0.93500569483E+02  0.15296677590E+03  0.00000000000E+00 0.  1.
         14    1    4    4    0    0  0.27132233900E+02 -0.46984589857E+02  0.67567390184E+02  0.86654844162E+02  0.00000000000E+00 0. -1.
         11    1    5    5    0    0 -0.82380630254E+02  0.10162655775E+03  0.72978423740E+03  0.74141726352E+03  0.00000000000E+00 0. -1.
        -12    1    5    5    0    0  0.36264499709E+01  0.29434383591E+02  0.34352084052E+03  0.34479863972E+03  0.00000000000E+00 0.  1.
          5    1    3    3  501    0  0.12545283646E+03  0.66167685600E+01 -0.12588389981E+02  0.12632551509E+03  0.41800000000E+01 0. -1.
         -5    1    3    3    0  501 -0.27457332016E+02  0.21136979437E+02  0.44840509889E+01  0.35188863216E+02  0.41800000000E+01 0. -1.
</event>
<event>
11    1  0.1704459E-009  0.2643681E+03  0.7561462E-02  0.1016512E+00
         22   -1    0    0    0    0  0.00000000000E+00  0.00000000000E+00  0.96261659730E+03  0.96261659730E+03  0.00000000000E+00 0. -1.
         22   -1    0    0    0    0 -0.00000000000E+00 -0.00000000000E+00 -0.18400046888E+04  0.18400046888E+04  0.00000000000E+00 0.  1.
         25    2    1    2    0    0 -0.12441552500E+03 -0.16836277361E+03 -0.13792362649E+04  0.14006298461E+04  0.12508415103E+03 0.  0.
        -24    2    1    2    0    0 -0.89010411092E+02  0.73654633849E+02 -0.42262092031E+03  0.44505236928E+03  0.78200452379E+02 0.  0.
         24    2    1    2    0    0  0.21342593609E+03  0.94708139759E+02  0.92446909377E+03  0.95693907070E+03  0.81049477354E+02 0.  0.
        -11    1    5    5    0    0  0.46083979756E+02  0.58012245083E+02  0.22935603294E+03  0.24102560780E+03  0.00000000000E+00 0.  1.
         12    1    5    5    0    0  0.16734195634E+03  0.36695894676E+02  0.69511306083E+03  0.71591346291E+03  0.00000000000E+00 0. -1.
         13    1    4    4    0    0 -0.85137693086E+01 -0.92767656513E+01 -0.12731006599E+03  0.12793121414E+03  0.00000000000E+00 0. -1.
        -14    1    4    4    0    0 -0.80496641783E+02  0.82931399501E+02 -0.29531085431E+03  0.31712115514E+03  0.00000000000E+00 0.  1.
          5    1    3    3  501    0 -0.16786133577E+02  0.14880334316E+02 -0.28686616150E+03  0.28777224613E+03  0.41800000000E+01 0.  1.
         -5    1    3    3    0  501 -0.10762939142E+03 -0.18324310792E+03 -0.10923701034E+04  0.11128576000E+04  0.41800000000E+01 0.  1.
</event>
<event>
11    1  0.2902359E-009  0.2476153E+04  0.7561462E-02  0.7895688E-01
         22   -1    0    0    0    0  0.00000000000E+00  0.00000000000E+00  0.10761501923E+04  0.10761501923E+04  0.00000000000E+00 0.  1.
         22   -1    0    0    0    0 -0.00000000000E+00 -0.00000000000E+00 -0.14243678984E+04  0.14243678984E+04  0.00000000000E+00 0.  1.
         25    2    1    2    0    0  0.13107680978E+03 -0.56011185183E+03 -0.12661623991E+04  0.13963242590E+04  0.12509116112E+03 0.  0.
        -24    2    1    2    0    0 -0.12818052535E+03  0.43826339097E+03  0.65479878249E+03  0.80216315470E+03  0.78735216202E+02 0.  0.
         24    2    1    2    0    0 -0.28962844257E+01  0.12184846086E+03  0.26314591050E+03  0.30203067701E+03  0.84387936149E+02 0.  0.
        -11    1    5    5    0    0 -0.31352731777E+02  0.15536558856E+02  0.93301266312E+02  0.99646900335E+02  0.00000000000E+00 0.  1.
         12    1    5    5    0    0  0.28456447351E+02  0.10631190200E+03  0.16984464418E+03  0.20238377668E+03  0.00000000000E+00 0. -1.
         11    1    4    4    0    0 -0.12529970040E+03  0.32148539756E+03  0.45999532922E+03  0.57502050283E+03  0.00000000000E+00 0. -1.
        -12    1    4    4    0    0 -0.28808249559E+01  0.11677799341E+03  0.19480345326E+03  0.22714265188E+03  0.00000000000E+00 0.  1.
          5    1    3    3  501    0 -0.17611424902E+02 -0.88468117617E+02 -0.25909865461E+03  0.27438359160E+03  0.41800000000E+01 0. -1.
         -5    1    3    3    0  501  0.14868823468E+03 -0.47164373421E+03 -0.10070637445E+04  0.11219406674E+04  0.41800000000E+01 0. -1.
</event>
<event>
11    1  0.1704459E-009  0.1725203E+03  0.7561462E-02  0.1075859E+00
         22   -1    0    0    0    0  0.00000000000E+00  0.00000000000E+00  0.31493461205E+03  0.31493461205E+03  0.00000000000E+00 0.  1.
         22   -1    0    0    0    0 -0.00000000000E+00 -0.00000000000E+00 -0.31600218013E+03  0.31600218013E+03  0.00000000000E+00 0.  1.
         25    2    1    2    0    0  0.12265974473E+03  0.12826552447E+02 -0.14688755780E+03  0.22897902179E+03  0.12508199054E+03 0.  0.
        -24    2    1    2    0    0 -0.10471613807E+03  0.88298966789E+02 -0.49829853210E+02  0.16707595060E+03  0.81665059171E+02 0.  0.
         24    2    1    2    0    0 -0.17943606659E+02 -0.10112551924E+03  0.19564984293E+03  0.23488181978E+03  0.79638336022E+02 0.  0.
        -11    1    5    5    0    0 -0.46382704399E+02 -0.78377716481E+02  0.11749743517E+03  0.14866091947E+03  0.00000000000E+00 0.  1.
         12    1    5    5    0    0  0.28439097741E+02 -0.22747802755E+02  0.78152407763E+02  0.86220900306E+02  0.00000000000E+00 0. -1.
         11    1    4    4    0    0 -0.67876679577E+01  0.42061668736E+02 -0.39823180608E+02  0.58319311783E+02  0.00000000000E+00 0. -1.
        -12    1    4    4    0    0 -0.97928470117E+02  0.46237298054E+02 -0.10006672603E+02  0.10875663882E+03  0.00000000000E+00 0.  1.
          5    1    3    3  501    0  0.11875026788E+03  0.38242285121E+01 -0.16771572544E+03  0.20557793608E+03  0.41800000000E+01 0. -1.
         -5    1    3    3    0  501  0.39094768521E+01  0.90023239352E+01  0.20828167633E+02  0.23401085710E+02  0.41800000000E+01 0. -1.
</event>
<event>
11    1  0.1704459E-009  0.2911319E+03  0.7561462E-02  0.1004016E+00
         22   -1    0    0    0    0  0.00000000000E+00  0.00000000000E+00  0.17235617671E+04  0.17235617671E+04  0.00000000000E+00 0. -1.
         22   -1    0    0    0    0 -0.00000000000E+00 -0.00000000000E+00 -0.21318012945E+04  0.21318012945E+04  0.00000000000E+00 0. -1.
         25    2    1    2    0    0 -0.88187110869E+02  0.34647996820E+03 -0.19652993402E+04  0.20014680446E+04  0.12508997718E+03 0.  0.
        -24    2    1    2    0    0  0.34086682381E+02 -0.89762380342E+02 -0.10878374998E+03  0.16567628381E+03  0.79972119614E+02 0.  0.
         24    2    1    2    0    0  0.54100428489E+02 -0.25671758786E+03  0.16658435628E+04  0.16882187332E+04  0.78847567863E+02 0.  0.
        -11    1    5    5    0    0  0.38990909884E+02 -0.37806337249E+02  0.35737284904E+03  0.36147608970E+03  0.00000000000E+00 0.  1.
         12    1    5    5    0    0  0.15109518605E+02 -0.21891125061E+03  0.13084707138E+04  0.13267426435E+04  0.00000000000E+00 0. -1.
         13    1    4    4    0    0 -0.75633489135E+01 -0.82153804565E+02 -0.68443159549E+02  0.10719569926E+03  0.00000000000E+00 0. -1.
        -14    1    4    4    0    0  0.41650031294E+02 -0.76085757765E+01 -0.40340590431E+02  0.58480584543E+02  0.00000000000E+00 0.  1.
          5    1    3    3  501    0 -0.10457578794E+03  0.33852265949E+03 -0.17596214533E+04  0.17949425667E+04  0.41800000000E+01 0.  1.
         -5    1    3    3    0  501  0.16388677075E+02  0.79573087143E+01 -0.20567788683E+03  0.20652547792E+03  0.41800000000E+01 0.  1.
</event>
<event>
11    1  0.1704459E-009  0.1357026E+03  0.7561462E-02  0.1112454E+00
         22   -1    0    0    0    0  0.00000000000E+00  0.00000000000E+00  0.67837098970E+03  0.67837098970E+03  0.00000000000E+00 0. -1.
         22   -1    0    0    0    0 -0.00000000000E+00 -0.00000000000E+00 -0.46395164139E+02  0.46395164139E+02  0.00000000000E+00 0.  1.
         25    2    1    2    0    0  0.41493183653E+02 -0.19421487879E+02  0.12824937501E+03  0.18491309160E+03  0.12508425469E+03 0.  0.
        -24    2    1    2    0    0 -0.68301977530E+02 -0.59143822318E+01  0.24338354563E+03  0.26534596165E+03  0.80453645216E+02 0.  0.
         24    2    1    2    0    0  0.26808793877E+02  0.25335870111E+02  0.26034290493E+03  0.27450710060E+03  0.78835920681E+02 0.  0.
        -13    1    5    5    0    0  0.41577549756E+02  0.35945397348E+00  0.65966762114E+02  0.77977147645E+02  0.00000000000E+00 0.  1.
         14    1    5    5    0    0 -0.14768755879E+02  0.24976416138E+02  0.19437614281E+03  0.19652995295E+03  0.00000000000E+00 0. -1.
         13    1    4    4    0    0 -0.82910536930E+02 -0.19968992939E+02  0.19087806421E+03  0.20906303645E+03  0.00000000000E+00 0. -1.
        -14    1    4    4    0    0  0.14608559400E+02  0.14054610707E+02  0.52505481420E+02  0.56282925199E+02  0.00000000000E+00 0.  1.
          5    1    3    3  501    0  0.50101944379E+02  0.36685695873E+02  0.10771883422E+03  0.12440604792E+03  0.41800000000E+01 0. -1.
         -5    1    3    3    0  501 -0.86087607264E+01 -0.56107183752E+02  0.20530540788E+02  0.60507043680E+02  0.41800000000E+01 0. -1.
</event>
<event>
11    1  0.1704459E-009  0.1278797E+03  0.7561462E-02  0.1121902E+00
         22   -1    0    0    0    0  0.00000000000E+00  0.00000000000E+00  0.40804709912E+03  0.40804709912E+03  0.00000000000E+00 0.  1.
         22   -1    0    0    0    0 -0.00000000000E+00 -0.00000000000E+00 -0.78875061095E+03  0.78875061095E+03  0.00000000000E+00 0. -1.
         25    2    1    2    0    0  0.15257345427E+02  0.13047876349E+02 -0.34419641986E+03  0.36677388224E+03  0.12509544988E+03 0.  0.
        -24    2    1    2    0    0 -0.41997894543E+02 -0.18696563836E+02 -0.42225676442E+03  0.43153264053E+03  0.76198819527E+02 0.  0.
         24    2    1    2    0    0  0.26740549116E+02  0.56486874871E+01  0.38574967245E+03  0.39849118731E+03  0.96153273123E+02 0.  0.
        -13    1    5    5    0    0  0.32123465008E+01 -0.34976165601E+02  0.28710009589E+03  0.28924058565E+03  0.00000000000E+00 0.  1.
         14    1    5    5    0    0  0.23528202615E+02  0.40624853089E+02  0.98649576559E+02  0.10925060166E+03  0.00000000000E+00 0. -1.
         13    1    4    4    0    0  0.66060142123E+01  0.65591021449E+00 -0.27805848331E+03  0.27813771730E+03  0.00000000000E+00 0. -1.
        -14    1    4    4    0    0 -0.48603908756E+02 -0.19352474051E+02 -0.14419828111E+03  0.15339492323E+03  0.00000000000E+00 0.  1.
          5    1    3    3  501    0  0.54742823319E+01  0.41677193559E+02 -0.33069259322E+03  0.33337969320E+03  0.41800000000E+01 0. -1.
         -5    1    3    3    0  501  0.97830630956E+01 -0.28629317210E+02 -0.13503826643E+02  0.33394189037E+02  0.41800000000E+01 0. -1.
</event>
<event>
11    1  0.1704459E-009  0.1831676E+03  0.7561462E-02  0.1067109E+00
         22   -1    0    0    0    0  0.00000000000E+00  0.00000000000E+00  0.25604458495E+03  0.25604458495E+03  0.00000000000E+00 0.  1.
         22   -1    0    0    0    0 -0.00000000000E+00 -0.00000000000E+00 -0.27614489961E+03  0.27614489961E+03  0.00000000000E+00 0. -1.
         25    2    1    2    0    0  0.12011780934E+03  0.72653586244E+02 -0.14373027530E+03  0.23666992981E+03  0.12508969551E+03 0.  0.
        -24    2    1    2    0    0 -0.93033929511E+02 -0.95434697977E+02  0.13518916025E+03  0.20625113394E+03  0.80624609041E+02 0.  0.
         24    2    1    2    0    0 -0.27083879834E+02  0.22781111733E+02 -0.11559199604E+02  0.89268420816E+02  0.81133964903E+02 0.  0.
        -11    1    5    5    0    0 -0.46304827353E+02  0.34723783925E+02 -0.24891786765E+02  0.63003803494E+02  0.00000000000E+00 0.  1.
         12    1    5    5    0    0  0.19220947520E+02 -0.11942672193E+02  0.13332587161E+02  0.26264617322E+02  0.00000000000E+00 0. -1.
         13    1    4    4    0    0 -0.62387141036E+02 -0.77975628826E+01  0.57244586999E+02  0.85028819198E+02  0.00000000000E+00 0. -1.
        -14    1    4    4    0    0 -0.30646788475E+02 -0.87637135094E+02  0.77944573250E+02  0.12122231474E+03  0.00000000000E+00 0.  1.
          5    1    3    3  501    0  0.68215054713E+01 -0.20913924913E+02 -0.67427477956E+02  0.71048310154E+02  0.41800000000E+01 0.  1.
         -5    1    3    3    0  501  0.11329630387E+03  0.93567511158E+02 -0.76302797340E+02  0.16562161966E+03  0.41800000000E+01 0.  1.
</event>
<event>
11    1  0.1704459E-009  0.5971321E+03  0.7561462E-02  0.9199347E-01
         22   -1    0    0    0    0  0.00000000000E+00  0.00000000000E+00  0.18516969419E+03  0.18516969419E+03  0.00000000000E+00 0.  1.
         22   -1    0    0    0    0 -0.00000000000E+00 -0.00000000000E+00 -0.28333994196E+04  0.28333994196E+04  0.00000000000E+00 0.  1.
         25    2    1    2    0    0 -0.15446047130E+03 -0.51585447648E+03 -0.14158530773E+04  0.15199516742E+04  0.12509707100E+03 0.  0.
        -24    2    1    2    0    0  0.22736815632E+03  0.62378925711E+03 -0.11357643358E+04  0.13177940624E+04  0.76231545364E+02 0.  0.
         24    2    1    2    0    0 -0.72907685019E+02 -0.10793478063E+03 -0.96612312314E+02  0.18082337728E+03  0.79985670437E+02 0.  0.
        -13    1    5    5    0    0 -0.66031061507E+02 -0.10840569071E+03 -0.10856366477E+03  0.16702683667E+03  0.00000000000E+00 0.  1.
         14    1    5    5    0    0 -0.68766235119E+01  0.47091007932E+00  0.11951352452E+02  0.13796540604E+02  0.00000000000E+00 0. -1.
         11    1    4    4    0    0  0.70955101202E+02  0.11071505515E+03 -0.24239798598E+03  0.27577025480E+03  0.00000000000E+00 0. -1.
        -12    1    4    4    0    0  0.15641305511E+03  0.51307420196E+03 -0.89336634983E+03  0.10420238076E+04  0.00000000000E+00 0.  1.
          5    1    3    3  501    0 -0.66632046408E+02 -0.14606958364E+03 -0.57829593052E+03  0.60018314582E+03  0.41800000000E+01 0.  1.
         -5    1    3    3    0  501 -0.87828424889E+02 -0.36978489284E+03 -0.83755714677E+03  0.91976852833E+03  0.41800000000E+01 0.  1.
</event>
<event>
11    1  0.1704459E-009  0.1595780E+03  0.7561462E-02  0.1087475E+00
         22   -1    0    0    0    0  0.00000000000E+00  0.00000000000E+00  0.43806017107E+03  0.43806017107E+03  0.00000000000E+00 0.  1.
         22   -1    0    0    0    0 -0.00000000000E+00 -0.00000000000E+00 -0.29835108055E+03  0.29835108055E+03  0.00000000000E+00 0.  1.
         25    2    1    2    0    0  0.13224829962E+03 -0.85193104148E+01 -0.20041460484E+03  0.27090064710E+03  0.12513574774E+03 0.  0.
        -24    2    1    2    0    0 -0.34794268683E+02  0.95864702703E+01 -0.13581119120E+02  0.89531836132E+02  0.80801988460E+02 0.  0.
         24    2    1    2    0    0 -0.97454030934E+02 -0.10671598555E+01  0.35370481449E+03  0.37597876839E+03  0.82185835201E+02 0.  0.
        -11    1    5    5    0    0 -0.10710868605E+03 -0.12705759789E+02  0.26696314770E+03  0.28792886134E+03  0.00000000000E+00 0.  1.
         12    1    5    5    0    0  0.96546551211E+01  0.11638599933E+02  0.86741666791E+02  0.88049907050E+02  0.00000000000E+00 0. -1.
         11    1    4    4    0    0 -0.83798233332E+01 -0.22651147653E+02 -0.35116173486E+02  0.42619732160E+02  0.00000000000E+00 0. -1.
        -12    1    4    4    0    0 -0.26414445350E+02  0.32237617923E+02  0.21535054366E+02  0.46912103972E+02  0.00000000000E+00 0.  1.
          5    1    3    3  501    0  0.13895127637E+03  0.24674106966E+02 -0.18682455530E+03  0.23417334525E+03  0.41800000000E+01 0. -1.
         -5    1    3    3    0  501 -0.67029767558E+01 -0.33193417381E+02 -0.13590049541E+02  0.36727301852E+02  0.41800000000E+01 0. -1.
</event>
<event>
11    1  0.1704459E-009  0.5203347E+03  0.7561462E-02  0.9349197E-01
         22   -1    0    0    0    0  0.00000000000E+00  0.00000000000E+00  0.90953379447E+02  0.90953379447E+02  0.00000000000E+00 0.  1.
         22   -1    0    0    0    0 -0.00000000000E+00 -0.00000000000E+00 -0.74419485807E+03  0.74419485807E+03  0.00000000000E+00 0. -1.
         25    2    1    2    0    0  0.96567137171E+02 -0.13434312182E+03 -0.50332516122E+03  0.54438806551E+03  0.12509540996E+03 0.  0.
        -24    2    1    2    0    0 -0.93767596999E+02  0.10873821245E+03 -0.85772175699E+02  0.18454340974E+03  0.77993864245E+02 0.  0.
         24    2    1    2    0    0 -0.27995401726E+01  0.25604909369E+02 -0.64144141709E+02  0.10621676227E+03  0.80647881952E+02 0.  0.
        -13    1    5    5    0    0  0.36209743149E+02  0.27696106120E+02 -0.33793494443E+02  0.56746982826E+02  0.00000000000E+00 0.  1.
         14    1    5    5    0    0 -0.39009283322E+02 -0.20911967518E+01 -0.30350647265E+02  0.49469779447E+02  0.00000000000E+00 0. -1.
         13    1    4    4    0    0 -0.91113118977E+02  0.49624886401E+02 -0.47782319011E+02  0.11422512775E+03  0.00000000000E+00 0. -1.
        -14    1    4    4    0    0 -0.26544780216E+01  0.59113326050E+02 -0.37989856688E+02  0.70318281986E+02  0.00000000000E+00 0.  1.
          5    1    3    3  501    0  0.11197258659E+03 -0.14662491716E+03 -0.47537884866E+03  0.50994043635E+03  0.41800000000E+01 0. -1.
         -5    1    3    3    0  501 -0.15405449419E+02  0.12281795340E+02 -0.27946312562E+02  0.34447629155E+02  0.41800000000E+01 0. -1.
</event>
<event>
11    1  0.1704459E-009  0.2435631E+03  0.7561462E-02  0.1027385E+00
         22   -1    0    0    0    0  0.00000000000E+00  0.00000000000E+00  0.65960228117E+03  0.65960228117E+03  0.00000000000E+00 0.  1.
         22   -1    0    0    0    0 -0.00000000000E+00 -0.00000000000E+00 -0.13607200816E+03  0.13607200816E+03  0.00000000000E+00 0.  1.
         25    2    1    2    0    0 -0.97232813810E+02 -0.21042365862E+03  0.12644978004E+03  0.29218349142E+03  0.12509720060E+03 0.  0.
         24    2    1    2    0    0  0.43287555380E+02  0.17850808006E+03  0.21093674659E+03  0.29175071767E+03  0.82977244450E+02 0.  0.
        -24    2    1    2    0    0  0.53945258430E+02  0.31915578556E+02  0.18614374637E+03  0.21174008025E+03  0.79092807559E+02 0.  0.
        -13    1    4    4    0    0  0.14747027217E+02  0.15812260718E+03  0.19922011565E+03  0.25477222807E+03  0.00000000000E+00 0.  1.
         14    1    4    4    0    0  0.28540528163E+02  0.20385472878E+02  0.11716630943E+02  0.36978489598E+02  0.00000000000E+00 0. -1.
         11    1    5    5    0    0 -0.19064310855E+02 -0.98879471572E-01  0.21010440461E+02  0.28370694985E+02  0.00000000000E+00 0. -1.
        -12    1    5    5    0    0  0.73009569285E+02  0.32014458027E+02  0.16513330591E+03  0.18336938526E+03  0.00000000000E+00 0.  1.
          5    1    3    3  501    0 -0.10883351071E+03 -0.88358373237E+02  0.76134444704E+02  0.15958026584E+03  0.41800000000E+01 0.  1.
         -5    1    3    3    0  501  0.11600696901E+02 -0.12206528538E+03  0.50315335340E+02  0.13260322558E+03  0.41800000000E+01 0.  1.
</event>
<event>
11    1  0.1704459E-009  0.3602986E+03  0.7561462E-02  0.9774756E-01
         22   -1    0    0    0    0  0.00000000000E+00  0.00000000000E+00  0.21444969609E+04  0.21444969609E+04  0.00000000000E+00 0.  1.
         22   -1    0    0    0    0 -0.00000000000E+00 -0.00000000000E+00 -0.10603141971E+03  0.10603141971E+03  0.00000000000E+00 0.  1.
         25    2    1    2    0    0 -0.18965714726E+03  0.30925708224E+03  0.41269641465E+03  0.56353985711E+03  0.12509621683E+03 0.  0.
        -24    2    1    2    0    0  0.17656803460E+03 -0.23564540568E+03  0.84175301968E+03  0.89538294594E+03  0.80358233438E+02 0.  0.
         24    2    1    2    0    0  0.13089112657E+02 -0.73611676563E+02  0.78401610682E+03  0.79160557751E+03  0.79800568944E+02 0.  0.
        -13    1    5    5    0    0 -0.17870433957E+02  0.86711068778E+01  0.20398057808E+03  0.20494539941E+03  0.00000000000E+00 0.  1.
         14    1    5    5    0    0  0.30959546614E+02 -0.82282783441E+02  0.58003552873E+03  0.58666017810E+03  0.00000000000E+00 0. -1.
         13    1    4    4    0    0  0.21708266463E+02 -0.87872646892E+02  0.22401571598E+03  0.24161103433E+03  0.00000000000E+00 0. -1.
        -14    1    4    4    0    0  0.15485976814E+03 -0.14777275879E+03  0.61773730370E+03  0.65377191161E+03  0.00000000000E+00 0.  1.
          5    1    3    3  501    0 -0.15701130819E+03  0.29282860032E+03  0.40839768006E+03  0.52650477447E+03  0.41800000000E+01 0.  1.
         -5    1    3    3    0  501 -0.32645839068E+02  0.16428481925E+02  0.42987345839E+01  0.37035082635E+02  0.41800000000E+01 0.  1.
</event>
<event>
11    1  0.1704459E-009  0.1778213E+03  0.7561462E-02  0.1071419E+00
         22   -1    0    0    0    0  0.00000000000E+00  0.00000000000E+00  0.10391595746E+03  0.10391595746E+03  0.00000000000E+00 0. -1.
         22   -1    0    0    0    0 -0.00000000000E+00 -0.00000000000E+00 -0.65192536843E+03  0.65192536843E+03  0.00000000000E+00 0. -1.
         25    2    1    2    0    0  0.76219695904E+02  0.27001007475E+02 -0.16630736458E+03  0.22325594440E+03  0.12508629321E+03 0.  0.
        -24    2    1    2    0    0 -0.13403304735E+02 -0.17165890576E+03 -0.24049813115E+03  0.30641060394E+03  0.80010490635E+02 0.  0.
         24    2    1    2    0    0 -0.62816391169E+02  0.14465789829E+03 -0.14120391523E+03  0.22617477755E+03  0.79653485704E+02 0.  0.
        -13    1    5    5    0    0 -0.41872023956E+02  0.38258378050E+02 -0.89691550244E+02  0.10612042247E+03  0.00000000000E+00 0.  1.
         14    1    5    5    0    0 -0.20944367214E+02  0.10639952024E+03 -0.51512364988E+02  0.12005435507E+03  0.00000000000E+00 0. -1.
         11    1    4    4    0    0 -0.26774661499E+01 -0.15719215433E+03 -0.24173224871E+03  0.28835918968E+03  0.00000000000E+00 0. -1.
        -12    1    4    4    0    0 -0.10725838585E+02 -0.14466751433E+02  0.12341175599E+01  0.18051414253E+02  0.00000000000E+00 0.  1.
          5    1    3    3  501    0 -0.12152646656E+01 -0.50655754971E+01 -0.13268780958E+03  0.13285580203E+03  0.41800000000E+01 0. -1.
         -5    1    3    3    0  501  0.77434960570E+02  0.32066582972E+02 -0.33619555008E+02  0.90400142372E+02  0.41800000000E+01 0. -1.
</event>
<event>
11    1  0.1704459E-009  0.1781203E+03  0.7561462E-02  0.1071173E+00
         22   -1    0    0    0    0  0.00000000000E+00  0.00000000000E+00  0.50516535151E+02  0.50516535151E+02  0.00000000000E+00 0. -1.
         22   -1    0    0    0    0 -0.00000000000E+00 -0.00000000000E+00 -0.15837937029E+04  0.15837937029E+04  0.00000000000E+00 0.  1.
         25    2    1    2    0    0 -0.70671730839E+02 -0.19605106251E+01 -0.53821060079E+03  0.55706175384E+03  0.12509520231E+03 0.  0.
        -24    2    1    2    0    0 -0.19549388683E+02 -0.14029765260E+03 -0.75939524672E+03  0.77666331262E+03  0.80368840409E+02 0.  0.
         24    2    1    2    0    0  0.90221119522E+02  0.14225816323E+03 -0.23567132023E+03  0.30058517159E+03  0.80207473378E+02 0.  0.
        -11    1    5    5    0    0  0.56975274761E+02  0.12100126037E+03 -0.22132672444E+03  0.25859815524E+03  0.00000000000E+00 0.  1.
         12    1    5    5    0    0  0.33245844761E+02  0.21256902851E+02 -0.14344595795E+02  0.41987016341E+02  0.00000000000E+00 0. -1.
         11    1    4    4    0    0 -0.44412154918E+01  0.13487735225E+01 -0.67970937864E+00  0.46910116073E+01  0.00000000000E+00 0. -1.
        -12    1    4    4    0    0 -0.15108173191E+02 -0.14164642612E+03 -0.75871553734E+03  0.77197230101E+03  0.00000000000E+00 0.  1.
          5    1    3    3  501    0  0.91669133672E+01  0.31623293863E+02 -0.43013707278E+02  0.54329701170E+02  0.41800000000E+01 0. -1.
         -5    1    3    3    0  501 -0.79838644206E+02 -0.33583804489E+02 -0.49519689352E+03  0.50273205267E+03  0.41800000000E+01 0. -1.
</event>
<event>
11    1  0.1704459E-009  0.4008165E+03  0.7561462E-02  0.9647352E-01
         22   -1    0    0    0    0  0.00000000000E+00  0.00000000000E+00  0.92424135655E+03  0.92424135655E+03  0.00000000000E+00 0. -1.
         22   -1    0    0    0    0 -0.00000000000E+00 -0.00000000000E+00 -0.46373215775E+03  0.46373215775E+03  0.00000000000E+00 0. -1.
         25    2    1    2    0    0 -0.18838701581E+03  0.58219275756E+02 -0.13827139536E+03  0.27137419827E+03  0.12508327192E+03 0.  0.
         24    2    1    2    0    0 -0.73289086809E+02 -0.37267090678E+03  0.15132099291E+01  0.38826954758E+03  0.80598118856E+02 0.  0.
        -24    2    1    2    0    0  0.26167610262E+03  0.31445163103E+03  0.59726738424E+03  0.72832976846E+03  0.79885620780E+02 0.  0.
        -11    1    4    4    0    0  0.84626696635E+01 -0.15209628422E+03 -0.10771182553E+02  0.15271186864E+03  0.00000000000E+00 0.  1.
         12    1    4    4    0    0 -0.81751756472E+02 -0.22057462257E+03  0.12284392482E+02  0.23555767893E+03  0.00000000000E+00 0. -1.
         13    1    5    5    0    0  0.17293944794E+03  0.16722249582E+03  0.29556402361E+03  0.38108989466E+03  0.00000000000E+00 0. -1.
        -14    1    5    5    0    0  0.88736654681E+02  0.14722913521E+03  0.30170336063E+03  0.34723987380E+03  0.00000000000E+00 0.  1.
          5    1    3    3  501    0 -0.99584809205E+02  0.84860214086E+02 -0.11830886130E+03  0.17644503173E+03  0.41800000000E+01 0.  1.
         -5    1    3    3    0  501 -0.88802206606E+02 -0.26640938331E+02 -0.19962534057E+02  0.94929166536E+02  0.41800000000E+01 0.  1.
</event>
<event>
11    1  0.1704459E-009  0.2755067E+03  0.7561462E-02  0.1011125E+00
         22   -1    0    0    0    0  0.00000000000E+00  0.00000000000E+00  0.87620556208E+03  0.87620556208E+03  0.00000000000E+00 0. -1.
         22   -1    0    0    0    0 -0.00000000000E+00 -0.00000000000E+00 -0.18401811763E+03  0.18401811763E+03  0.00000000000E+00 0.  1.
         25    2    1    2    0    0  0.82980201812E+02  0.63414184104E+02  0.45087986474E+02  0.16908376598E+03  0.12509724520E+03 0.  0.
         24    2    1    2    0    0 -0.17746526242E+03  0.19050564039E+03  0.12891138171E+03  0.30135461073E+03  0.80063341724E+02 0.  0.
        -24    2    1    2    0    0  0.94485060608E+02 -0.25391982450E+03  0.51818807628E+03  0.58978530300E+03  0.76974783423E+02 0.  0.
        -11    1    4    4    0    0 -0.15303080141E+03  0.11102827946E+03  0.84508857230E+02  0.20709285833E+03  0.00000000000E+00 0.  1.
         12    1    4    4    0    0 -0.24434461008E+02  0.79477360939E+02  0.44402524476E+02  0.94261752405E+02  0.00000000000E+00 0. -1.
         11    1    5    5    0    0  0.10213650941E+03 -0.23851122963E+03  0.44981666371E+03  0.51928268233E+03  0.00000000000E+00 0. -1.
        -12    1    5    5    0    0 -0.76514488039E+01 -0.15408594866E+02  0.68371412564E+02  0.70502620664E+02  0.00000000000E+00 0.  1.
          5    1    3    3  501    0 -0.98024174665E+01 -0.69472921213E+01 -0.28542887365E+02  0.31249337196E+02  0.41800000000E+01 0.  1.
         -5    1    3    3    0  501  0.92782619279E+02  0.70361476225E+02  0.73630873839E+02  0.13783442879E+03  0.41800000000E+01 0.  1.
</event>
<event>
11    1  0.1704459E-009  0.3787633E+03  0.7561462E-02  0.9714583E-01
         22   -1    0    0    0    0  0.00000000000E+00  0.00000000000E+00  0.61037822372E+03  0.61037822372E+03  0.00000000000E+00 0. -1.
         22   -1    0    0    0    0 -0.00000000000E+00 -0.00000000000E+00 -0.55426340546E+03  0.55426340546E+03  0.00000000000E+00 0.  1.
         25    2    1    2    0    0  0.60765867588E+02 -0.36398478150E+03 -0.37360457409E+03  0.53981978396E+03  0.12509040548E+03 0.  0.
        -24    2    1    2    0    0 -0.34743272510E+02  0.29139084748E+03  0.41452050845E+03  0.51445406035E+03  0.81975650691E+02 0.  0.
         24    2    1    2    0    0 -0.26022595077E+02  0.72593934017E+02  0.15198883909E+02  0.11036778486E+03  0.77478946515E+02 0.  0.
        -11    1    5    5    0    0 -0.34904871516E+01 -0.16783008846E+02  0.22378596895E+01  0.17287593889E+02  0.00000000000E+00 0.  1.
         12    1    5    5    0    0 -0.22532107926E+02  0.89376942863E+02  0.12961024220E+02  0.93080190975E+02  0.00000000000E+00 0. -1.
         13    1    4    4    0    0 -0.38215563856E+01  0.96932500594E+02  0.20578240993E+03  0.22750145978E+03  0.00000000000E+00 0. -1.
        -14    1    4    4    0    0 -0.30921716125E+02  0.19445834689E+03  0.20873809852E+03  0.28695260057E+03  0.00000000000E+00 0.  1.
          5    1    3    3  501    0 -0.26624325387E+02 -0.21053101449E+03 -0.18710657898E+03  0.28294612042E+03  0.41800000000E+01 0.  1.
         -5    1    3    3    0  501  0.87390192975E+02 -0.15345376701E+03 -0.18649799512E+03  0.25687366354E+03  0.41800000000E+01 0.  1.
</event>
<event>
11    1  0.1704459E-009  0.1819951E+03  0.7561462E-02  0.1068040E+00
         22   -1    0    0    0    0  0.00000000000E+00  0.00000000000E+00  0.22970079272E+03  0.22970079272E+03  0.00000000000E+00 0.  1.
         22   -1    0    0    0    0 -0.00000000000E+00 -0.00000000000E+00 -0.26029505234E+03  0.26029505234E+03  0.00000000000E+00 0. -1.
         25    2    1    2    0    0 -0.11291758170E+03  0.10106614919E+02 -0.88361641337E+02  0.19054747228E+03  0.12509210851E+03 0.  0.
         24    2    1    2    0    0  0.17260156498E+03 -0.27883925581E+02  0.34653954364E+02  0.19548858725E+03  0.80287468832E+02 0.  0.
        -24    2    1    2    0    0 -0.59683983280E+02  0.17777310661E+02  0.23113427353E+02  0.10395978553E+03  0.79969968425E+02 0.  0.
        -13    1    4    4    0    0 -0.21231294655E+01 -0.88218363045E+01  0.16450509389E+02  0.18787009705E+02  0.00000000000E+00 0.  1.
         14    1    4    4    0    0  0.17472469445E+03 -0.19062089276E+02  0.18203444975E+02  0.17670157754E+03  0.00000000000E+00 0. -1.
         13    1    5    5    0    0 -0.43556687099E+02  0.20849108587E+02 -0.24103019520E+02  0.53970601905E+02  0.00000000000E+00 0. -1.
        -14    1    5    5    0    0 -0.16127296181E+02 -0.30717979257E+01  0.47216446874E+02  0.49989183630E+02  0.00000000000E+00 0.  1.
          5    1    3    3  501    0 -0.99064284385E+02 -0.11590644559E+02 -0.14827494724E+01  0.99838601893E+02  0.41800000000E+01 0.  1.
         -5    1    3    3    0  501 -0.13853297316E+02  0.21697259479E+02 -0.86878891865E+02  0.90708870388E+02  0.41800000000E+01 0.  1.
</event>
<event>
11    1  0.1704459E-009  0.1538474E+03  0.7561462E-02  0.1093011E+00
         22   -1    0    0    0    0  0.00000000000E+00  0.00000000000E+00  0.21327142891E+03  0.21327142891E+03  0.00000000000E+00 0. -1.
         22   -1    0    0    0    0 -0.00000000000E+00 -0.00000000000E+00 -0.11777375964E+04  0.11777375964E+04  0.00000000000E+00 0. -1.
         25    2    1    2    0    0 -0.37563365734E+02 -0.91430062852E+02 -0.70504368158E+03  0.72284253817E+03  0.12507709308E+03 0.  0.
         24    2    1    2    0    0  0.10624500504E+03  0.15952519698E+02 -0.43314293227E+03  0.45225400264E+03  0.73337569843E+02 0.  0.
        -24    2    1    2    0    0 -0.68681639310E+02  0.75477543154E+02  0.17372044634E+03  0.21591248451E+03  0.77623323768E+02 0.  0.
        -11    1    4    4    0    0  0.87124400613E+01  0.29431827486E+02 -0.81556919884E+02  0.87141667771E+02  0.00000000000E+00 0.  1.
         12    1    4    4    0    0  0.97532564983E+02 -0.13479307788E+02 -0.35158601239E+03  0.36511233487E+03  0.00000000000E+00 0. -1.
         13    1    5    5    0    0 -0.98497479455E+01  0.67192135871E+02  0.10527213563E+03  0.12527578855E+03  0.00000000000E+00 0. -1.
        -14    1    5    5    0    0 -0.58831891364E+02  0.82854072832E+01  0.68448310709E+02  0.90636695959E+02  0.00000000000E+00 0.  1.
          5    1    3    3  501    0  0.95662570761E+01 -0.18737889954E+02 -0.49673993293E+03  0.49720283100E+03  0.41800000000E+01 0.  1.
         -5    1    3    3    0  501 -0.47129622810E+02 -0.72692172898E+02 -0.20830374866E+03  0.22563970717E+03  0.41800000000E+01 0.  1.
</event>
<event>
11    1  0.1704459E-009  0.1772244E+03  0.7561462E-02  0.1071910E+00
         22   -1    0    0    0    0  0.00000000000E+00  0.00000000000E+00  0.93193244135E+03  0.93193244135E+03  0.00000000000E+00 0.  1.
         22   -1    0    0    0    0 -0.00000000000E+00 -0.00000000000E+00 -0.34771787281E+03  0.34771787281E+03  0.00000000000E+00 0.  1.
         25    2    1    2    0    0  0.14892828863E+02 -0.12552442868E+03 -0.30997133990E+03  0.35736622605E+03  0.12510079702E+03 0.  0.
         24    2    1    2    0    0 -0.42814459634E+02  0.10313378515E+03  0.47655263362E+03  0.49545113544E+03  0.76809891343E+02 0.  0.
        -24    2    1    2    0    0  0.27921630771E+02  0.22390643530E+02  0.41763327482E+03  0.42683295267E+03  0.80547246179E+02 0.  0.
        -11    1    4    4    0    0  0.98388632310E+01  0.74462837574E+02  0.28532452976E+03  0.29504508925E+03  0.00000000000E+00 0.  1.
         12    1    4    4    0    0 -0.52653322865E+02  0.28670947575E+02  0.19122810386E+03  0.20040604619E+03  0.00000000000E+00 0. -1.
         13    1    5    5    0    0  0.30078041780E+02  0.34873187483E+02  0.11420828319E+03  0.12314365494E+03  0.00000000000E+00 0. -1.
        -14    1    5    5    0    0 -0.21564110093E+01 -0.12482543952E+02  0.30342499162E+03  0.30368929773E+03  0.00000000000E+00 0.  1.
          5    1    3    3  501    0 -0.28714371454E+02 -0.21704709864E+01 -0.13913239826E+03  0.14214261401E+03  0.41800000000E+01 0.  1.
         -5    1    3    3    0  501  0.43607200318E+02 -0.12335395769E+03 -0.17083894164E+03  0.21522361203E+03  0.41800000000E+01 0.  1.
</event>
<event>
11    1  0.1704459E-009  0.1907141E+03  0.7561462E-02  0.1061292E+00
         22   -1    0    0    0    0  0.00000000000E+00  0.00000000000E+00  0.11791895431E+04  0.11791895431E+04  0.00000000000E+00 0. -1.
         22   -1    0    0    0    0 -0.00000000000E+00 -0.00000000000E+00 -0.80688562549E+03  0.80688562549E+03  0.00000000000E+00 0.  1.
         25    2    1    2    0    0  0.98941194506E+02 -0.10370146603E+03 -0.74823393526E+03  0.77204002933E+03  0.12509368883E+03 0.  0.
         24    2    1    2    0    0  0.13969013650E+02 -0.66478429402E+02  0.46020861894E+02  0.11749869124E+03  0.84104148502E+02 0.  0.
        -24    2    1    2    0    0 -0.11291020816E+03  0.17017989543E+03  0.10745169910E+04  0.10965364480E+04  0.78073722011E+02 0.  0.
        -11    1    4    4    0    0  0.18277940810E+02  0.10244924610E+02 -0.91868023684E+01  0.22878787955E+02  0.00000000000E+00 0.  1.
         12    1    4    4    0    0 -0.43089271600E+01 -0.76723354012E+02  0.55207664263E+02  0.94619903284E+02  0.00000000000E+00 0. -1.
         11    1    5    5    0    0 -0.79453679912E+02  0.57013553563E+02  0.40047458202E+03  0.41224182634E+03  0.00000000000E+00 0. -1.
        -12    1    5    5    0    0 -0.33456528245E+02  0.11316634187E+03  0.67404240893E+03  0.68429462167E+03  0.00000000000E+00 0.  1.
          5    1    3    3  501    0  0.73988100363E+02  0.69002425371E+01 -0.35758583740E+03  0.36524916954E+03  0.41800000000E+01 0. -1.
         -5    1    3    3    0  501  0.24953094143E+02 -0.11060170856E+03 -0.39064809786E+03  0.40679085979E+03  0.41800000000E+01 0. -1.
</event>
<event>
11    1  0.2411900E-009  0.1336447E+04  0.7561462E-02  0.8411807E-01
         22   -1    0    0    0    0  0.00000000000E+00  0.00000000000E+00  0.10584963904E+04  0.10584963904E+04  0.00000000000E+00 0. -1.
         22   -1    0    0    0    0 -0.00000000000E+00 -0.00000000000E+00 -0.42184599608E+03  0.42184599608E+03  0.00000000000E+00 0. -1.
         25    2    1    2    0    0 -0.44713614969E+03 -0.12451425997E+03 -0.19006114862E+03  0.51691932573E+03  0.12509121394E+03 0.  0.
         24    2    1    2    0    0  0.29782139465E+03  0.67183682378E+02  0.52180089697E+03  0.60976478470E+03  0.79534183175E+02 0.  0.
        -24    2    1    2    0    0  0.14931475503E+03  0.57330577589E+02  0.30491064600E+03  0.35365827607E+03  0.80758795124E+02 0.  0.
        -13    1    4    4    0    0  0.16070322909E+03  0.35105276956E+01  0.31444605023E+03  0.35314893480E+03  0.00000000000E+00 0.  1.
         14    1    4    4    0    0  0.13711816557E+03  0.63673154683E+02  0.20735484674E+03  0.25661584990E+03  0.00000000000E+00 0. -1.
         11    1    5    5    0    0  0.16001317921E+02  0.10226767949E+02  0.11680895308E+03  0.11834255564E+03  0.00000000000E+00 0. -1.
        -12    1    5    5    0    0  0.13331343711E+03  0.47103809640E+02  0.18810169292E+03  0.23531572042E+03  0.00000000000E+00 0.  1.
          5    1    3    3  501    0 -0.27025418550E+03 -0.14560719842E+02 -0.12896511393E+03  0.29983130650E+03  0.41800000000E+01 0. -1.
         -5    1    3    3    0  501 -0.17688196418E+03 -0.10995354013E+03 -0.61096034691E+02  0.21708801923E+03  0.41800000000E+01 0. -1.
</event>
<event>
11    1  0.1704459E-009  0.1342592E+03  0.7561462E-02  0.1114144E+00
         22   -1    0    0    0    0  0.00000000000E+00  0.00000000000E+00  0.25868324783E+03  0.25868324783E+03  0.00000000000E+00 0. -1.
         22   -1    0    0    0    0 -0.00000000000E+00 -0.00000000000E+00 -0.37288059800E+03  0.37288059800E+03  0.00000000000E+00 0. -1.
         25    2    1    2    0    0 -0.16048381524E+02  0.35575665497E+02 -0.25293674491E+03  0.28486424143E+03  0.12508981011E+03 0.  0.
        -24    2    1    2    0    0 -0.13349463521E+02  0.38460822820E+01 -0.76257599529E+02  0.11090585544E+03  0.79321414259E+02 0.  0.
         24    2    1    2    0    0  0.29397845044E+02 -0.39421747779E+02  0.21499699427E+03  0.23579374896E+03  0.83406696443E+02 0.  0.
        -11    1    5    5    0    0 -0.48915099517E+01  0.81677615793E+01 -0.30484676773E+01  0.99966171280E+01  0.00000000000E+00 0.  1.
         12    1    5    5    0    0  0.34289354996E+02 -0.47589509358E+02  0.21804546195E+03  0.22579713183E+03  0.00000000000E+00 0. -1.
         11    1    4    4    0    0 -0.32644447257E+02 -0.13690501675E+02 -0.77079435907E+02  0.84819391724E+02  0.00000000000E+00 0. -1.
        -12    1    4    4    0    0  0.19294983736E+02  0.17536583957E+02  0.82183637722E+00  0.26086463717E+02  0.00000000000E+00 0.  1.
          5    1    3    3  501    0  0.46199056667E+00 -0.32254305565E+02 -0.18332821911E+03  0.18619146593E+03  0.41800000000E+01 0. -1.
         -5    1    3    3    0  501 -0.16510372090E+02  0.67829971062E+02 -0.69608525802E+02  0.98672775502E+02  0.41800000000E+01 0. -1.
</event>
<event>
11    1  0.1704459E-009  0.1321923E+03  0.7561462E-02  0.1116604E+00
         22   -1    0    0    0    0  0.00000000000E+00  0.00000000000E+00  0.26644732882E+03  0.26644732882E+03  0.00000000000E+00 0. -1.
         22   -1    0    0    0    0 -0.00000000000E+00 -0.00000000000E+00 -0.10073706924E+03  0.10073706924E+03  0.00000000000E+00 0. -1.
         25    2    1    2    0    0 -0.61390480672E+02  0.73327934937E+01  0.41734374827E+02  0.14564357850E+03  0.12509089870E+03 0.  0.
         24    2    1    2    0    0  0.25410875680E+02 -0.17299748728E+02  0.25336060565E+02  0.87961545312E+02  0.78423998749E+02 0.  0.
        -24    2    1    2    0    0  0.35979604993E+02  0.99669552345E+01  0.98639824189E+02  0.13357927425E+03  0.81973992344E+02 0.  0.
        -13    1    4    4    0    0  0.41076477543E+02 -0.35106230520E+02  0.10911242338E+01  0.54045489921E+02  0.00000000000E+00 0.  1.
         14    1    4    4    0    0 -0.15665601863E+02  0.17806481792E+02  0.24244936331E+02  0.33916055391E+02  0.00000000000E+00 0. -1.
         11    1    5    5    0    0  0.18272440713E+02  0.27210402991E+02  0.92745174929E+00  0.32789453904E+02  0.00000000000E+00 0. -1.
        -12    1    5    5    0    0  0.17707164279E+02 -0.17243447757E+02  0.97712372440E+02  0.10078982034E+03  0.00000000000E+00 0.  1.
          5    1    3    3  501    0  0.20971974612E+02 -0.29601384132E+02 -0.14412796782E+02  0.39258970602E+02  0.41800000000E+01 0. -1.
         -5    1    3    3    0  501 -0.82362455284E+02  0.36934177625E+02  0.56147171609E+02  0.10638460790E+03  0.41800000000E+01 0. -1.
</event>
<event>
11    1  0.1704459E-009  0.1888857E+03  0.7561462E-02  0.1062674E+00
         22   -1    0    0    0    0  0.00000000000E+00  0.00000000000E+00  0.10224577376E+04  0.10224577376E+04  0.00000000000E+00 0.  1.
         22   -1    0    0    0    0 -0.00000000000E+00 -0.00000000000E+00 -0.52755321194E+02  0.52755321194E+02  0.00000000000E+00 0.  1.
         25    2    1    2    0    0 -0.14630799885E+03 -0.42836003529E+02  0.28509629343E+03  0.34665231142E+03  0.12508786816E+03 0.  0.
        -24    2    1    2    0    0  0.12548393142E+03  0.33854554719E+02  0.31758350367E+03  0.35214655411E+03  0.79092135184E+02 0.  0.
         24    2    1    2    0    0  0.20824067430E+02  0.89814488096E+01  0.36702261929E+03  0.37641419325E+03  0.80422220807E+02 0.  0.
        -11    1    5    5    0    0  0.12809096324E+02  0.44300360816E+02  0.17302589422E+03  0.17906578397E+03  0.00000000000E+00 0.  1.
         12    1    5    5    0    0  0.80149711061E+01 -0.35318912006E+02  0.19399672507E+03  0.19734840928E+03  0.00000000000E+00 0. -1.
         13    1    4    4    0    0 -0.10600003590E+02  0.90213348770E+00  0.38013791676E+02  0.39474324294E+02  0.00000000000E+00 0. -1.
        -14    1    4    4    0    0  0.13608393501E+03  0.32952421232E+02  0.27956971199E+03  0.31267222981E+03  0.00000000000E+00 0.  1.
          5    1    3    3  501    0 -0.10633529797E+03  0.10784988422E+02  0.88109400473E+02  0.13857940115E+03  0.41800000000E+01 0. -1.
         -5    1    3    3    0  501 -0.39972700878E+02 -0.53620991951E+02  0.19698689296E+03  0.20807291027E+03  0.41800000000E+01 0. -1.
</event>
<event>
11    1  0.1704459E-009  0.2485392E+03  0.7561462E-02  0.1024680E+00
         22   -1    0    0    0    0  0.00000000000E+00  0.00000000000E+00  0.13572263890E+03  0.13572263890E+03  0.00000000000E+00 0.  1.
         22   -1    0    0    0    0 -0.00000000000E+00 -0.00000000000E+00 -0.59199428480E+03  0.59199428480E+03  0.00000000000E+00 0.  1.
         25    2    1    2    0    0  0.59848479430E+02 -0.20343691873E+03 -0.20104850890E+03  0.31787741358E+03  0.12512844098E+03 0.  0.
        -24    2    1    2    0    0 -0.88054726946E+02  0.19938196867E+03 -0.21093362644E+03  0.31403613097E+03  0.81356575797E+02 0.  0.
         24    2    1    2    0    0  0.28206247516E+02  0.40549500582E+01 -0.44289510567E+02  0.95803379137E+02  0.80029317683E+02 0.  0.
        -11    1    5    5    0    0  0.25130715183E+02 -0.33779675962E+02 -0.71651254722E+01  0.42707825708E+02  0.00000000000E+00 0.  1.
         12    1    5    5    0    0  0.30755323327E+01  0.37834626020E+02 -0.37124385095E+02  0.53095553429E+02  0.00000000000E+00 0. -1.
         13    1    4    4    0    0 -0.25622017514E+02  0.34516429931E+01 -0.34306562429E+02  0.42957442272E+02  0.00000000000E+00 0. -1.
        -14    1    4    4    0    0 -0.62432709432E+02  0.19593032568E+03 -0.17662706401E+03  0.27107868870E+03  0.00000000000E+00 0.  1.
          5    1    3    3  501    0 -0.25158975660E+02 -0.83677286823E+02 -0.12464016590E+03  0.15227444218E+03  0.41800000000E+01 0.  1.
         -5    1    3    3    0  501  0.85007455090E+02 -0.11975963191E+03 -0.76408342993E+02  0.16560297140E+03  0.41800000000E+01 0.  1.
</event>
<event>
11    1  0.1704459E-009  0.1943461E+03  0.7561462E-02  0.1058595E+00
         22   -1    0    0    0    0  0.00000000000E+00  0.00000000000E+00  0.37711992485E+03  0.37711992485E+03  0.00000000000E+00 0. -1.
         22   -1    0    0    0    0 -0.00000000000E+00 -0.00000000000E+00 -0.38593040965E+03  0.38593040965E+03  0.00000000000E+00 0. -1.
         25    2    1    2    0    0  0.77748140830E+02  0.12897779678E+03 -0.28365221258E+03  0.34465380283E+03  0.12509044983E+03 0.  0.
        -24    2    1    2    0    0 -0.92968219946E+02 -0.10954086607E+03  0.42517733015E+02  0.17145260887E+03  0.83342355431E+02 0.  0.
         24    2    1    2    0    0  0.15220079117E+02 -0.19436930712E+02  0.23232399477E+03  0.24694392280E+03  0.79983856979E+02 0.  0.
        -11    1    5    5    0    0  0.35933270035E+02  0.98885847133E+01  0.57861094086E+02  0.68825069646E+02  0.00000000000E+00 0.  1.
         12    1    5    5    0    0 -0.20713190918E+02 -0.29325515425E+02  0.17446290069E+03  0.17811885315E+03  0.00000000000E+00 0. -1.
         11    1    4    4    0    0 -0.10385955024E+03 -0.10769363576E+03  0.50406391353E+02  0.15787821144E+03  0.00000000000E+00 0. -1.
        -12    1    4    4    0    0  0.10891330289E+02 -0.18472303131E+01 -0.78886583384E+01  0.13574397433E+02  0.00000000000E+00 0.  1.
          5    1    3    3  501    0  0.11117161808E+03  0.84405254463E+02 -0.19440598970E+03  0.23936277254E+03  0.41800000000E+01 0.  1.
         -5    1    3    3    0  501 -0.33423477252E+02  0.44572542321E+02 -0.89246222884E+02  0.10529103029E+03  0.41800000000E+01 0.  1.
</event>
<event>
11    1  0.1704459E-009  0.4068341E+03  0.7561462E-02  0.9629806E-01
         22   -1    0    0    0    0  0.00000000000E+00  0.00000000000E+00  0.95587159248E+03  0.95587159248E+03  0.00000000000E+00 0.  1.
         22   -1    0    0    0    0 -0.00000000000E+00 -0.00000000000E+00 -0.27319367676E+03  0.27319367676E+03  0.00000000000E+00 0.  1.
         25    2    1    2    0    0  0.41439534713E+01 -0.13396854283E+02  0.11769082350E+03  0.17232649368E+03  0.12509453398E+03 0.  0.
         24    2    1    2    0    0  0.37911869548E+03 -0.11691731335E+03  0.66564248508E+02  0.40998041594E+03  0.79072744053E+02 0.  0.
        -24    2    1    2    0    0 -0.38326264895E+03  0.13031416763E+03  0.49842284371E+03  0.64675835962E+03  0.77453239075E+02 0.  0.
        -11    1    4    4    0    0  0.32127505707E+03 -0.12650740347E+03  0.48808839248E+02  0.34871777731E+03  0.00000000000E+00 0.  1.
         12    1    4    4    0    0  0.57843638413E+02  0.95900901229E+01  0.17755409260E+02  0.61262638626E+02  0.00000000000E+00 0. -1.
         11    1    5    5    0    0 -0.48804749969E+02  0.41846285166E+02  0.57011572633E+02  0.85926332494E+02  0.00000000000E+00 0. -1.
        -12    1    5    5    0    0 -0.33445789898E+03  0.88467882462E+02  0.44141127108E+03  0.56083202713E+03  0.00000000000E+00 0.  1.
          5    1    3    3  501    0  0.38438162006E+02  0.38400567864E+02  0.23334966286E+02  0.59279751705E+02  0.41800000000E+01 0. -1.
         -5    1    3    3    0  501 -0.34294208534E+02 -0.51797422147E+02  0.94355857217E+02  0.11304674198E+03  0.41800000000E+01 0. -1.
</event>
<event>
11    1  0.1704459E-009  0.1417003E+03  0.7561462E-02  0.1105674E+00
         22   -1    0    0    0    0  0.00000000000E+00  0.00000000000E+00  0.43197975674E+02  0.43197975674E+02  0.00000000000E+00 0.  1.
         22   -1    0    0    0    0 -0.00000000000E+00 -0.00000000000E+00 -0.13855322096E+04  0.13855322096E+04  0.00000000000E+00 0.  1.
         25    2    1    2    0    0  0.29594602402E+02  0.52324491545E+02 -0.65903417314E+03  0.67349856715E+03  0.12514226172E+03 0.  0.
        -24    2    1    2    0    0 -0.21289324314E+02 -0.67529085005E+02 -0.66075679780E+03  0.66943015362E+03  0.80769871157E+02 0.  0.
         24    2    1    2    0    0 -0.83052780880E+01  0.15204593461E+02 -0.22543263017E+02  0.85801464544E+02  0.80953908516E+02 0.  0.
        -13    1    5    5    0    0 -0.17020026611E+02 -0.30439258786E+02 -0.18209994692E+01  0.34921996226E+02  0.00000000000E+00 0.  1.
         14    1    5    5    0    0  0.87147485235E+01  0.45643852247E+02 -0.20722263548E+02  0.50879468318E+02  0.00000000000E+00 0. -1.
         13    1    4    4    0    0 -0.15244447487E+02 -0.30440289134E+02 -0.73824640763E+02  0.81296260465E+02  0.00000000000E+00 0. -1.
        -14    1    4    4    0    0 -0.60448768266E+01 -0.37088795871E+02 -0.58693215704E+03  0.58813389315E+03  0.00000000000E+00 0.  1.
          5    1    3    3  501    0  0.66775024480E+02 -0.79508523177E+00 -0.43907122260E+03  0.44414023346E+03  0.41800000000E+01 0. -1.
         -5    1    3    3    0  501 -0.37180422078E+02  0.53119576776E+02 -0.21996295054E+03  0.22935833369E+03  0.41800000000E+01 0. -1.
</event>
<event>
11    1  0.1704459E-009  0.5649471E+03  0.7561462E-02  0.9259065E-01
         22   -1    0    0    0    0  0.00000000000E+00  0.00000000000E+00  0.36426086691E+03  0.36426086691E+03  0.00000000000E+00 0. -1.
         22   -1    0    0    0    0 -0.00000000000E+00 -0.00000000000E+00 -0.10727174580E+04  0.10727174580E+04  0.00000000000E+00 0. -1.
         25    2    1    2    0    0  0.19868769039E+03  0.50749341387E+03 -0.43159403595E+03  0.70636214570E+03  0.12509078931E+03 0.  0.
         24    2    1    2    0    0 -0.26495739548E+03 -0.49440669257E+03 -0.26401104919E+03  0.62514335904E+03  0.80386480058E+02 0.  0.
        -24    2    1    2    0    0  0.66269705085E+02 -0.13086721301E+02 -0.12851505949E+02  0.10547282019E+03  0.79977612540E+02 0.  0.
        -13    1    4    4    0    0 -0.15128977515E+03 -0.35457806728E+03 -0.16286299182E+03  0.41849558655E+03  0.00000000000E+00 0.  1.
         14    1    4    4    0    0 -0.11366762033E+03 -0.13982862529E+03 -0.10114805737E+03  0.20664777248E+03  0.00000000000E+00 0. -1.
         13    1    5    5    0    0  0.65663106635E+02  0.19793345180E+02  0.36514148773E+01  0.68678620523E+02  0.00000000000E+00 0. -1.
        -14    1    5    5    0    0  0.60659845025E+00 -0.32880066481E+02 -0.16502920827E+02  0.36794199669E+02  0.00000000000E+00 0.  1.
          5    1    3    3  501    0  0.88774631194E+02  0.26561856407E+03 -0.14446834157E+03  0.31515509013E+03  0.41800000000E+01 0. -1.
         -5    1    3    3    0  501  0.10991305920E+03  0.24187484980E+03 -0.28712569438E+03  0.39120705556E+03  0.41800000000E+01 0. -1.
</event>
<event>
11    1  0.1704459E-009  0.2414916E+03  0.7561462E-02  0.1028532E+00
         22   -1    0    0    0    0  0.00000000000E+00  0.00000000000E+00  0.21199236835E+03  0.21199236835E+03  0.00000000000E+00 0.  1.
         22   -1    0    0    0    0 -0.00000000000E+00 -0.00000000000E+00 -0.54595915459E+03  0.54595915459E+03  0.00000000000E+00 0. -1.
         25    2    1    2    0    0  0.27035344362E+02 -0.13914701572E+03 -0.26901969863E+03  0.32880413663E+03  0.12509100762E+03 0.  0.
         24    2    1    2    0    0 -0.14678058295E+03  0.18401641693E+03  0.30177853362E+02  0.25072591835E+03  0.80908603170E+02 0.  0.
        -24    2    1    2    0    0  0.11974523859E+03 -0.44869401210E+02 -0.95124940975E+02  0.17842146797E+03  0.80207733461E+02 0.  0.
        -11    1    4    4    0    0 -0.69985506551E+02  0.12427651259E+03  0.50550487341E+02  0.15132076684E+03  0.00000000000E+00 0.  1.
         12    1    4    4    0    0 -0.76795076402E+02  0.59739904342E+02 -0.20372633979E+02  0.99405151504E+02  0.00000000000E+00 0. -1.
         13    1    5    5    0    0  0.10511351448E+03 -0.11796296473E+02 -0.95125487128E+02  0.14225632442E+03  0.00000000000E+00 0. -1.
        -14    1    5    5    0    0  0.14631724107E+02 -0.33073104738E+02  0.54615290908E-03  0.36165143545E+02  0.00000000000E+00 0.  1.
          5    1    3    3  501    0 -0.37960246697E+02 -0.51651195271E+02 -0.16906474561E+03  0.18085681328E+03  0.41800000000E+01 0.  1.
         -5    1    3    3    0  501  0.64995591059E+02 -0.87495820446E+02 -0.99954953017E+02  0.14794732335E+03  0.41800000000E+01 0.  1.
</event>
<event>
11    1  0.1704459E-009  0.4104459E+03  0.7561462E-02  0.9619430E-01
         22   -1    0    0    0    0  0.00000000000E+00  0.00000000000E+00  0.19684148760E+03  0.19684148760E+03  0.00000000000E+00 0.  1.
         22   -1    0    0    0    0 -0.00000000000E+00 -0.00000000000E+00 -0.24871227655E+04  0.24871227655E+04  0.00000000000E+00 0.  1.
         25    2    1    2    0    0 -0.27722207006E+03  0.26183333839E+03 -0.19383063517E+04  0.19794159727E+04  0.12508919487E+03 0.  0.
        -24    2    1    2    0    0  0.33418330293E+03 -0.32244245582E+03 -0.19528461418E+03  0.50991739731E+03  0.78943361156E+02 0.  0.
         24    2    1    2    0    0 -0.56961232868E+02  0.60609117428E+02 -0.15669031194E+03  0.19463088302E+03  0.80070466489E+02 0.  0.
        -11    1    5    5    0    0 -0.74067976516E+02  0.63663417922E+02 -0.12677020909E+03  0.16003056533E+03  0.00000000000E+00 0.  1.
         12    1    5    5    0    0  0.17106743648E+02 -0.30543004939E+01 -0.29920102849E+02  0.34600317690E+02  0.00000000000E+00 0. -1.
         13    1    4    4    0    0  0.36801174335E+02 -0.76167014073E+02 -0.27844553096E+02  0.89056496688E+02  0.00000000000E+00 0. -1.
        -14    1    4    4    0    0  0.29738212860E+03 -0.24627544174E+03 -0.16744006108E+03  0.42086090062E+03  0.00000000000E+00 0.  1.
          5    1    3    3  501    0 -0.28212718234E+03  0.26582188181E+03 -0.19282107124E+04  0.19667920693E+04  0.41800000000E+01 0.  1.
         -5    1    3    3    0  501  0.49051122793E+01 -0.39885434210E+01 -0.10095639308E+02  0.12623903442E+02  0.41800000000E+01 0.  1.
</event>
<event>
11    1  0.1704459E-009  0.3822189E+03  0.7561462E-02  0.9703729E-01
         22   -1    0    0    0    0  0.00000000000E+00  0.00000000000E+00  0.25655006000E+04  0.25655006000E+04  0.00000000000E+00 0.  1.
         22   -1    0    0    0    0 -0.00000000000E+00 -0.00000000000E+00 -0.72009393245E+02  0.72009393245E+02  0.00000000000E+00 0. -1.
         25    2    1    2    0    0  0.87129457885E+02  0.34131915426E+03  0.10628107099E+04  0.11266339631E+04  0.12508866553E+03 0.  0.
         24    2    1    2    0    0 -0.35342856105E+02 -0.37051016592E+03  0.10556151032E+04  0.11223176510E+04  0.82138681665E+02 0.  0.
        -24    2    1    2    0    0 -0.51786601780E+02  0.29191011661E+02  0.37506539359E+03  0.38855837911E+03  0.82277562112E+02 0.  0.
        -13    1    4    4    0    0  0.18213011012E+02 -0.21576487617E+03  0.63814851567E+03  0.67388405798E+03  0.00000000000E+00 0.  1.
         14    1    4    4    0    0 -0.53555867117E+02 -0.15474528975E+03  0.41746658757E+03  0.44843359301E+03  0.00000000000E+00 0. -1.
         13    1    5    5    0    0  0.11811216980E+01 -0.31387383196E+01 -0.35545260670E+01  0.48868581179E+01  0.00000000000E+00 0. -1.
        -14    1    5    5    0    0 -0.52967723478E+02  0.32329749981E+02  0.37861991966E+03  0.38367152100E+03  0.00000000000E+00 0.  1.
          5    1    3    3  501    0  0.12039512148E+02  0.78967858399E+02  0.43158228996E+03  0.43893236144E+03  0.41800000000E+01 0. -1.
         -5    1    3    3    0  501  0.75089945736E+02  0.26235129586E+03  0.63122841996E+03  0.68770160168E+03  0.41800000000E+01 0. -1.
</event>
<event>
11    1  0.1704459E-009  0.1502656E+03  0.7561462E-02  0.1096608E+00
         22   -1    0    0    0    0  0.00000000000E+00  0.00000000000E+00  0.53421613593E+03  0.53421613593E+03  0.00000000000E+00 0.  1.
         22   -1    0    0    0    0 -0.00000000000E+00 -0.00000000000E+00 -0.10829758565E+03  0.10829758565E+03  0.00000000000E+00 0.  1.
         25    2    1    2    0    0  0.38448709170E+02  0.36355063746E+02  0.52811046334E+02  0.14572968223E+03  0.12509252484E+03 0.  0.
        -24    2    1    2    0    0 -0.73112564599E+02  0.54653435769E+02  0.21435220640E+02  0.12331389641E+03  0.80089969532E+02 0.  0.
         24    2    1    2    0    0  0.34663855428E+02 -0.91008499515E+02  0.35167228331E+03  0.37347014295E+03  0.79513665277E+02 0.  0.
        -13    1    5    5    0    0 -0.13664096208E+02 -0.49814941372E+02  0.86057567848E+02  0.10037001989E+03  0.00000000000E+00 0.  1.
         14    1    5    5    0    0  0.48327951636E+02 -0.41193558143E+02  0.26561471546E+03  0.27310012305E+03  0.00000000000E+00 0. -1.
         11    1    4    4    0    0  0.24206694175E+01  0.27269638641E+01  0.30947198308E+02  0.31161274933E+02  0.00000000000E+00 0. -1.
        -12    1    4    4    0    0 -0.75533234016E+02  0.51926471905E+02 -0.95119776674E+01  0.92152621474E+02  0.00000000000E+00 0.  1.
          5    1    3    3  501    0 -0.30976500839E+02  0.53792776605E+02  0.12453864763E+02  0.63449015490E+02  0.41800000000E+01 0.  1.
         -5    1    3    3    0  501  0.69425210010E+02 -0.17437712859E+02  0.40357181571E+02  0.82280666739E+02  0.41800000000E+01 0.  1.
</event>
<event>
11    1  0.1704459E-009  0.2069171E+03  0.7561462E-02  0.1049737E+00
         22   -1    0    0    0    0  0.00000000000E+00  0.00000000000E+00  0.64323972713E+03  0.64323972713E+03  0.00000000000E+00 0.  1.
         22   -1    0    0    0    0 -0.00000000000E+00 -0.00000000000E+00 -0.25190194130E+03  0.25190194130E+03  0.00000000000E+00 0.  1.
         25    2    1    2    0    0  0.14506213550E+03  0.76777611464E+02 -0.54351253975E+02  0.21340084872E+03  0.12509212064E+03 0.  0.
        -24    2    1    2    0    0 -0.15861647698E+03 -0.51367901296E+02 -0.36695919375E+02  0.19128257559E+03  0.86282009552E+02 0.  0.
         24    2    1    2    0    0  0.13554341482E+02 -0.25409710168E+02  0.48238495918E+03  0.49045824412E+03  0.83813285587E+02 0.  0.
        -11    1    5    5    0    0  0.41791692138E+02 -0.22757366431E+02  0.40940100532E+03  0.41215728359E+03  0.00000000000E+00 0.  1.
         12    1    5    5    0    0 -0.28237350656E+02 -0.26523437371E+01  0.72983953854E+02  0.78300960528E+02  0.00000000000E+00 0. -1.
         11    1    4    4    0    0 -0.39169503102E+02 -0.39487009525E+02  0.19240425872E+02  0.58852934355E+02  0.00000000000E+00 0. -1.
        -12    1    4    4    0    0 -0.11944697388E+03 -0.11880891771E+02 -0.55936345247E+02  0.13242964123E+03  0.00000000000E+00 0.  1.
          5    1    3    3  501    0  0.16464117810E+03  0.56177148982E+02 -0.31830092013E+02  0.17689888850E+03  0.41800000000E+01 0.  1.
         -5    1    3    3    0  501 -0.19579042603E+02  0.20600462482E+02 -0.22521161962E+02  0.36501960219E+02  0.41800000000E+01 0.  1.
</event>
<event>
11    1  0.1704459E-009  0.1631509E+03  0.7561462E-02  0.1084151E+00
         22   -1    0    0    0    0  0.00000000000E+00  0.00000000000E+00  0.16521019428E+03  0.16521019428E+03  0.00000000000E+00 0. -1.
         22   -1    0    0    0    0 -0.00000000000E+00 -0.00000000000E+00 -0.79413848272E+03  0.79413848272E+03  0.00000000000E+00 0.  1.
         25    2    1    2    0    0 -0.59449965940E+02  0.45979025808E+02 -0.17876040958E+03  0.23076103612E+03  0.12508797901E+03 0.  0.
         24    2    1    2    0    0  0.79577763565E+02 -0.82554544806E+02 -0.56521938958E+03  0.58227791117E+03  0.80166914332E+02 0.  0.
        -24    2    1    2    0    0 -0.20127797626E+02  0.36575518997E+02  0.11505151072E+03  0.14630972971E+03  0.80167263022E+02 0.  0.
        -13    1    4    4    0    0  0.60818182002E+02 -0.86068386757E+02 -0.33307380157E+03  0.34934907436E+03  0.00000000000E+00 0.  1.
         14    1    4    4    0    0  0.18759581563E+02  0.35138419512E+01 -0.23214558801E+03  0.23292883681E+03  0.00000000000E+00 0. -1.
         11    1    5    5    0    0  0.18580190657E+02  0.99810925046E+01  0.91256416455E+02  0.93662048006E+02  0.00000000000E+00 0. -1.
        -12    1    5    5    0    0 -0.38707988283E+02  0.26594426493E+02  0.23795094268E+02  0.52647681702E+02  0.00000000000E+00 0.  1.
          5    1    3    3  501    0 -0.67738418196E+02 -0.98167788375E+01 -0.36530983635E+02  0.77697153177E+02  0.41800000000E+01 0. -1.
         -5    1    3    3    0  501  0.82884522557E+01  0.55795804646E+02 -0.14222942594E+03  0.15306388294E+03  0.41800000000E+01 0. -1.
</event>
<event>
11    1  0.1704459E-009  0.3376412E+03  0.7561462E-02  0.9854097E-01
         22   -1    0    0    0    0  0.00000000000E+00  0.00000000000E+00  0.17554622712E+04  0.17554622712E+04  0.00000000000E+00 0.  1.
         22   -1    0    0    0    0 -0.00000000000E+00 -0.00000000000E+00 -0.33391921847E+03  0.33391921847E+03  0.00000000000E+00 0.  1.
         25    2    1    2    0    0  0.25518324321E+03  0.20016114341E+03 -0.15963672566E+03  0.38251429341E+03  0.12510127713E+03 0.  0.
        -24    2    1    2    0    0 -0.14309072394E+03 -0.25652859877E+03  0.33901314005E+03  0.45583954937E+03  0.81104305544E+02 0.  0.
         24    2    1    2    0    0 -0.11209251927E+03  0.56367455361E+02  0.12421666383E+04  0.12510276469E+04  0.79688098139E+02 0.  0.
        -11    1    5    5    0    0 -0.49402345774E+02  0.66539417925E+02  0.59325722068E+03  0.59901770908E+03  0.00000000000E+00 0.  1.
         12    1    5    5    0    0 -0.62690173492E+02 -0.10171962564E+02  0.64890941763E+03  0.65200993778E+03  0.00000000000E+00 0. -1.
         11    1    4    4    0    0 -0.43188864721E+02 -0.60403090947E+02  0.39376018619E+02  0.84049284792E+02  0.00000000000E+00 0. -1.
        -12    1    4    4    0    0 -0.99901859219E+02 -0.19612550782E+03  0.29963712143E+03  0.37179026458E+03  0.00000000000E+00 0.  1.
          5    1    3    3  501    0  0.14130632389E+03  0.17584987005E+03 -0.72406569138E+02  0.23696167965E+03  0.41800000000E+01 0.  1.
         -5    1    3    3    0  501  0.11387691931E+03  0.24311273356E+02 -0.87230156519E+02  0.14555261375E+03  0.41800000000E+01 0.  1.
</event>
<event>
11    1  0.1704459E-009  0.2088467E+03  0.7561462E-02  0.1048438E+00
         22   -1    0    0    0    0  0.00000000000E+00  0.00000000000E+00  0.12372329175E+03  0.12372329175E+03  0.00000000000E+00 0. -1.
         22   -1    0    0    0    0 -0.00000000000E+00 -0.00000000000E+00 -0.10579970063E+04  0.10579970063E+04  0.00000000000E+00 0. -1.
         25    2    1    2    0    0  0.18034141164E+03 -0.12946553095E+03 -0.53079621749E+03  0.58879208184E+03  0.12508853936E+03 0.  0.
        -24    2    1    2    0    0 -0.12412965884E+03  0.66189169649E+02 -0.44147896016E+03  0.47019273854E+03  0.79927221442E+02 0.  0.
         24    2    1    2    0    0 -0.56211752792E+02  0.63276361296E+02  0.38001463074E+02  0.12273547770E+03  0.80350651765E+02 0.  0.
        -11    1    5    5    0    0 -0.19042538241E+02 -0.70203682492E+00  0.44550217965E+02  0.48454442924E+02  0.00000000000E+00 0.  1.
         12    1    5    5    0    0 -0.37169214551E+02  0.63978398121E+02 -0.65487548902E+01  0.74281034774E+02  0.00000000000E+00 0. -1.
         11    1    4    4    0    0 -0.10771627252E+03  0.76214930108E+02 -0.30437564643E+03  0.33174695940E+03  0.00000000000E+00 0. -1.
        -12    1    4    4    0    0 -0.16413386327E+02 -0.10025760459E+02 -0.13710331374E+03  0.13844577914E+03  0.00000000000E+00 0.  1.
          5    1    3    3  501    0  0.42175900787E+02 -0.61069901499E+02 -0.67171443010E+02  0.10018889476E+03  0.41800000000E+01 0. -1.
         -5    1    3    3    0  501  0.13816551085E+03 -0.68395629446E+02 -0.46362477448E+03  0.48860318708E+03  0.41800000000E+01 0. -1.
</event>
<event>
11    1  0.1704459E-009  0.2569489E+03  0.7561462E-02  0.1020261E+00
         22   -1    0    0    0    0  0.00000000000E+00  0.00000000000E+00  0.34936116041E+03  0.34936116041E+03  0.00000000000E+00 0. -1.
         22   -1    0    0    0    0 -0.00000000000E+00 -0.00000000000E+00 -0.12143843719E+04  0.12143843719E+04  0.00000000000E+00 0.  1.
         25    2    1    2    0    0  0.10893419035E+03  0.27881222429E+01 -0.85759487406E+03  0.87349386210E+03  0.12509247641E+03 0.  0.
         24    2    1    2    0    0  0.11773164441E+03  0.40233036483E+02 -0.28442528496E+03  0.32038475037E+03  0.79178331809E+02 0.  0.
        -24    2    1    2    0    0 -0.22666583476E+03 -0.43021158726E+02  0.27699694751E+03  0.36986691986E+03  0.82740611128E+02 0.  0.
        -11    1    4    4    0    0  0.11140111487E+03  0.59214106521E+02 -0.25843040863E+03  0.28758093627E+03  0.00000000000E+00 0.  1.
         12    1    4    4    0    0  0.63305295448E+01 -0.18981070038E+02 -0.25994876333E+02  0.32803814102E+02  0.00000000000E+00 0. -1.
         11    1    5    5    0    0 -0.12569010394E+03  0.89715350146E+01  0.10640607356E+03  0.16492647804E+03  0.00000000000E+00 0. -1.
        -12    1    5    5    0    0 -0.10097573083E+03 -0.51992693741E+02  0.17059087395E+03  0.20494044182E+03  0.00000000000E+00 0.  1.
          5    1    3    3  501    0  0.62295992605E+02 -0.66671130337E+01 -0.13038668517E+03  0.14471835116E+03  0.41800000000E+01 0.  1.
         -5    1    3    3    0  501  0.46638197748E+02  0.94552352766E+01 -0.72720818889E+03  0.72877551094E+03  0.41800000000E+01 0.  1.
</event>
<event>
11    1  0.1704459E-009  0.1439580E+03  0.7561462E-02  0.1103217E+00
         22   -1    0    0    0    0  0.00000000000E+00  0.00000000000E+00  0.53522557096E+03  0.53522557096E+03  0.00000000000E+00 0. -1.
         22   -1    0    0    0    0 -0.00000000000E+00 -0.00000000000E+00 -0.71115827239E+02  0.71115827239E+02  0.00000000000E+00 0. -1.
         25    2    1    2    0    0  0.10872965447E+02  0.38824572199E+02  0.90418717092E+02  0.15953100645E+03  0.12509607842E+03 0.  0.
         24    2    1    2    0    0 -0.83641658691E+02 -0.27406387447E+02  0.27121769888E+03  0.29603532327E+03  0.79566546320E+02 0.  0.
        -24    2    1    2    0    0  0.72768693244E+02 -0.11418184753E+02  0.10247332775E+03  0.15077506848E+03  0.82502610356E+02 0.  0.
        -13    1    4    4    0    0 -0.26606066216E+02  0.14489715281E+02  0.16909816179E+03  0.17179063690E+03  0.00000000000E+00 0.  1.
         14    1    4    4    0    0 -0.57035592475E+02 -0.41896102728E+02  0.10211953710E+03  0.12424468636E+03  0.00000000000E+00 0. -1.
         11    1    5    5    0    0  0.69040689766E+02 -0.39432178207E+02  0.89388285446E+02  0.11963184817E+03  0.00000000000E+00 0. -1.
        -12    1    5    5    0    0  0.37280034773E+01  0.28013993454E+02  0.13085042300E+02  0.31143220308E+02  0.00000000000E+00 0.  1.
          5    1    3    3  501    0 -0.31415587048E+02  0.65776184974E+02  0.79687360707E+02  0.10807864486E+03  0.41800000000E+01 0.  1.
         -5    1    3    3    0  501  0.42288552495E+02 -0.26951612774E+02  0.10731356386E+02  0.51452361590E+02  0.41800000000E+01 0.  1.
</event>
<event>
11    1  0.1704459E-009  0.3678164E+03  0.7561462E-02  0.9749801E-01
         22   -1    0    0    0    0  0.00000000000E+00  0.00000000000E+00  0.46680866661E+03  0.46680866661E+03  0.00000000000E+00 0.  1.
         22   -1    0    0    0    0 -0.00000000000E+00 -0.00000000000E+00 -0.10736082955E+04  0.10736082955E+04  0.00000000000E+00 0. -1.
         25    2    1    2    0    0  0.32654528621E+03 -0.15350249806E+03 -0.81609246629E+03  0.90102666214E+03  0.12508913418E+03 0.  0.
         24    2    1    2    0    0 -0.25849990348E+03  0.16194624918E+03 -0.84791022729E+02  0.32682469751E+03  0.81093018476E+02 0.  0.
        -24    2    1    2    0    0 -0.68045382728E+02 -0.84437511234E+01  0.29408386009E+03  0.31256560249E+03  0.80687471456E+02 0.  0.
        -11    1    4    4    0    0 -0.13622825090E+03  0.13007244136E+03 -0.62942526340E+02  0.19859188797E+03  0.00000000000E+00 0.  1.
         12    1    4    4    0    0 -0.12227165258E+03  0.31873807826E+02 -0.21848496389E+02  0.12823280955E+03  0.00000000000E+00 0. -1.
         13    1    5    5    0    0  0.14816129159E+02  0.43879496958E+01  0.16551613507E+02  0.22643491239E+02  0.00000000000E+00 0. -1.
        -14    1    5    5    0    0 -0.82861511887E+02 -0.12831700819E+02  0.27753224659E+03  0.28992211125E+03  0.00000000000E+00 0.  1.
          5    1    3    3  501    0  0.22823185540E+03 -0.15500643049E+03 -0.67291016769E+03  0.72728422195E+03  0.41800000000E+01 0. -1.
         -5    1    3    3    0  501  0.98313430809E+02  0.15039324343E+01 -0.14318229860E+03  0.17374244019E+03  0.41800000000E+01 0. -1.
</event>
<event>
11    1  0.1704459E-009  0.5214357E+03  0.7561462E-02  0.9346858E-01
         22   -1    0    0    0    0  0.00000000000E+00  0.00000000000E+00  0.10117953974E+04  0.10117953974E+04  0.00000000000E+00 0.  1.
         22   -1    0    0    0    0 -0.00000000000E+00 -0.00000000000E+00 -0.13228687170E+04  0.13228687170E+04  0.00000000000E+00 0. -1.
         25    2    1    2    0    0  0.27099750931E+03 -0.42672824344E+03 -0.11393025571E+04  0.12526716696E+04  0.12505739292E+03 0.  0.
         24    2    1    2    0    0 -0.26941714894E+03  0.43676787618E+03  0.42981015287E+03  0.67396843365E+03  0.78389439625E+02 0.  0.
        -24    2    1    2    0    0 -0.15803603687E+01 -0.10039632735E+02  0.39841908464E+03  0.40802401106E+03  0.87421592465E+02 0.  0.
        -13    1    4    4    0    0 -0.20523017017E+03  0.28590769564E+03  0.25719286115E+03  0.43590228378E+03  0.00000000000E+00 0.  1.
         14    1    4    4    0    0 -0.64186978766E+02  0.15086018053E+03  0.17261729172E+03  0.23806614987E+03  0.00000000000E+00 0. -1.
         11    1    5    5    0    0  0.35297106480E+02 -0.28794756438E+02  0.17665061733E+03  0.18242934065E+03  0.00000000000E+00 0. -1.
        -12    1    5    5    0    0 -0.36877466849E+02  0.18755123703E+02  0.22176846731E+03  0.22559467041E+03  0.00000000000E+00 0.  1.
          5    1    3    3  501    0  0.14963466678E+03 -0.12927463221E+03 -0.48369950738E+03  0.52257549682E+03  0.41800000000E+01 0.  1.
         -5    1    3    3    0  501  0.12136284253E+03 -0.29745361123E+03 -0.65560304972E+03  0.73009617283E+03  0.41800000000E+01 0.  1.
</event>
<event>
11    1  0.1704459E-009  0.2615698E+03  0.7561462E-02  0.1017910E+00
         22   -1    0    0    0    0  0.00000000000E+00  0.00000000000E+00  0.55688490702E+03  0.55688490702E+03  0.00000000000E+00 0.  1.
         22   -1    0    0    0    0 -0.00000000000E+00 -0.00000000000E+00 -0.44258282705E+03  0.44258282705E+03  0.00000000000E+00 0. -1.
         25    2    1    2    0    0 -0.11887814180E+03 -0.13145116992E+03 -0.75404576272E+02  0.22967123907E+03  0.12510637577E+03 0.  0.
         24    2    1    2    0    0  0.19786229253E+03  0.20162474387E+03 -0.20202823073E+03  0.35691910875E+03  0.82303220082E+02 0.  0.
        -24    2    1    2    0    0 -0.78984150730E+02 -0.70173573952E+02  0.39173488697E+03  0.41287738626E+03  0.76476714518E+02 0.  0.
        -13    1    4    4    0    0  0.27662033816E+02  0.40541135093E+02 -0.76996662131E+02  0.91308585187E+02  0.00000000000E+00 0.  1.
         14    1    4    4    0    0  0.17020025872E+03  0.16108360878E+03 -0.12503156859E+03  0.26561052357E+03  0.00000000000E+00 0. -1.
         13    1    5    5    0    0 -0.58957389623E+02 -0.10035744295E+02  0.12300215733E+03  0.13677068641E+03  0.00000000000E+00 0. -1.
        -14    1    5    5    0    0 -0.20026761107E+02 -0.60137829657E+02  0.26873272964E+03  0.27610669984E+03  0.00000000000E+00 0.  1.
          5    1    3    3  501    0 -0.10046551819E+03 -0.28708590559E+02 -0.68440452149E+02  0.12497628338E+03  0.41800000000E+01 0.  1.
         -5    1    3    3    0  501 -0.18412623619E+02 -0.10274257936E+03 -0.69641241235E+01  0.10469495569E+03  0.41800000000E+01 0.  1.
</event>
<event>
11    1  0.1704459E-009  0.2801781E+03  0.7561462E-02  0.1008948E+00
         22   -1    0    0    0    0  0.00000000000E+00  0.00000000000E+00  0.54698234105E+03  0.54698234105E+03  0.00000000000E+00 0. -1.
         22   -1    0    0    0    0 -0.00000000000E+00 -0.00000000000E+00 -0.42772570409E+03  0.42772570409E+03  0.00000000000E+00 0. -1.
         25    2    1    2    0    0  0.25723805493E+03  0.76909031455E+02  0.23955911608E+02  0.29716503377E+03  0.12508699201E+03 0.  0.
         24    2    1    2    0    0 -0.70539901315E+02 -0.29764358594E+03 -0.84843694472E+02  0.32809713849E+03  0.82955999574E+02 0.  0.
        -24    2    1    2    0    0 -0.18669815362E+03  0.22073455449E+03  0.18014441982E+03  0.34944587288E+03  0.77977317036E+02 0.  0.
        -11    1    4    4    0    0 -0.11169975135E+02 -0.62071125150E+02 -0.54343353955E+02  0.83251384619E+02  0.00000000000E+00 0.  1.
         12    1    4    4    0    0 -0.59369926180E+02 -0.23557246079E+03 -0.30500340517E+02  0.24484575388E+03  0.00000000000E+00 0. -1.
         13    1    5    5    0    0 -0.74715792189E+02  0.11606621177E+03  0.12596023659E+03  0.18686839304E+03  0.00000000000E+00 0. -1.
        -14    1    5    5    0    0 -0.11198236143E+03  0.10466834272E+03  0.54184183236E+02  0.16257747984E+03  0.00000000000E+00 0.  1.
          5    1    3    3  501    0  0.24091589328E+03  0.99238572773E+02  0.41894204433E+02  0.26393438337E+03  0.41800000000E+01 0. -1.
         -5    1    3    3    0  501  0.16322161656E+02 -0.22329541317E+02 -0.17938292826E+02  0.33230650401E+02  0.41800000000E+01 0. -1.
</event>
<event>
11    1  0.1704459E-009  0.2416899E+03  0.7561462E-02  0.1028422E+00
         22   -1    0    0    0    0  0.00000000000E+00  0.00000000000E+00  0.74311513043E+03  0.74311513043E+03  0.00000000000E+00 0. -1.
         22   -1    0    0    0    0 -0.00000000000E+00 -0.00000000000E+00 -0.58225914576E+03  0.58225914576E+03  0.00000000000E+00 0.  1.
         25    2    1    2    0    0  0.12276016252E+03  0.19486564646E+03 -0.35999094897E+03  0.44527797810E+03  0.12504525890E+03 0.  0.
        -24    2    1    2    0    0 -0.21612370103E+03 -0.25951967846E+02 -0.78853298358E+02  0.24516233480E+03  0.80645948210E+02 0.  0.
         24    2    1    2    0    0  0.93363538506E+02 -0.16891367861E+03  0.59970023200E+03  0.63493396328E+03  0.79070780444E+02 0.  0.
        -11    1    5    5    0    0  0.50406234157E+00 -0.53155385644E+02  0.94918759192E+02  0.10879025668E+03  0.00000000000E+00 0.  1.
         12    1    5    5    0    0  0.92859476164E+02 -0.11575829297E+03  0.50478147281E+03  0.52614370660E+03  0.00000000000E+00 0. -1.
         13    1    4    4    0    0 -0.18252527025E+03 -0.22919986640E+02 -0.30906503999E+02  0.18653689195E+03  0.00000000000E+00 0. -1.
        -14    1    4    4    0    0 -0.33598430778E+02 -0.30319812061E+01 -0.47946794359E+02  0.58625442856E+02  0.00000000000E+00 0.  1.
          5    1    3    3  501    0  0.41443451513E+02 -0.10954940340E+01 -0.24585150353E+02  0.48380386505E+02  0.41800000000E+01 0. -1.
         -5    1    3    3    0  501  0.81316711008E+02  0.19596114049E+03 -0.33540579862E+03  0.39689759160E+03  0.41800000000E+01 0. -1.
</event>
<event>
11    1  0.1704459E-009  0.1792956E+03  0.7561462E-02  0.1070214E+00
         22   -1    0    0    0    0  0.00000000000E+00  0.00000000000E+00  0.65981596921E+03  0.65981596921E+03  0.00000000000E+00 0.  1.
         22   -1    0    0    0    0 -0.00000000000E+00 -0.00000000000E+00 -0.43514463618E+03  0.43514463618E+03  0.00000000000E+00 0.  1.
         25    2    1    2    0    0  0.48500080234E+02  0.11839140438E+03 -0.35325575505E+03  0.39598716118E+03  0.12508965156E+03 0.  0.
         24    2    1    2    0    0  0.86637982579E+02 -0.17435107898E+03  0.22186785352E+03  0.30574235916E+03  0.79678146265E+02 0.  0.
        -24    2    1    2    0    0 -0.13513806281E+03  0.55959674599E+02  0.35605923455E+03  0.39323108505E+03  0.80366202727E+02 0.  0.
        -11    1    4    4    0    0  0.50862412807E+02 -0.43222157732E+02  0.11448137968E+03  0.13251839966E+03  0.00000000000E+00 0.  1.
         12    1    4    4    0    0  0.35775569773E+02 -0.13112892125E+03  0.10738647384E+03  0.17322395950E+03  0.00000000000E+00 0. -1.
         11    1    5    5    0    0 -0.25021057445E+02 -0.20505808730E+02  0.81629387821E+02  0.87806027489E+02  0.00000000000E+00 0. -1.
        -12    1    5    5    0    0 -0.11011700537E+03  0.76465483328E+02  0.27442984673E+03  0.30542505757E+03  0.00000000000E+00 0.  1.
          5    1    3    3  501    0 -0.12451999736E+02 -0.29643917790E+01 -0.15534648202E+03  0.15592896393E+03  0.41800000000E+01 0.  1.
         -5    1    3    3    0  501  0.60952079970E+02  0.12135579616E+03 -0.19790927303E+03  0.24005819724E+03  0.41800000000E+01 0.  1.
</event>
<event>
11    1  0.1704459E-009  0.7110340E+03  0.7561462E-02  0.9016201E-01
         22   -1    0    0    0    0  0.00000000000E+00  0.00000000000E+00  0.15173539552E+04  0.15173539552E+04  0.00000000000E+00 0.  1.
         22   -1    0    0    0    0 -0.00000000000E+00 -0.00000000000E+00 -0.19994604301E+04  0.19994604301E+04  0.00000000000E+00 0. -1.
         25    2    1    2    0    0 -0.52109657848E+03  0.47110836769E+03 -0.18297344269E+04  0.19639398965E+04  0.12508839292E+03 0.  0.
        -24    2    1    2    0    0  0.52405332986E+03 -0.39554256150E+03  0.11200319351E+04  0.13006079282E+04  0.77612091380E+02 0.  0.
         24    2    1    2    0    0 -0.29567513813E+01 -0.75565806190E+02  0.22759601674E+03  0.25226656057E+03  0.78227471525E+02 0.  0.
        -11    1    5    5    0    0 -0.35873035868E+02 -0.14601696069E+02  0.96647468933E+02  0.10411924645E+03  0.00000000000E+00 0.  1.
         12    1    5    5    0    0  0.32916284487E+02 -0.60964110121E+02  0.13094854781E+03  0.14814731412E+03  0.00000000000E+00 0. -1.
         11    1    4    4    0    0  0.21661612225E+03 -0.17301884482E+03  0.40002772555E+03  0.48670344799E+03  0.00000000000E+00 0. -1.
        -12    1    4    4    0    0  0.30743720761E+03 -0.22252371669E+03  0.72000420960E+03  0.81390448024E+03  0.00000000000E+00 0.  1.
          5    1    3    3  501    0 -0.29229294956E+03  0.26244789989E+03 -0.11903963553E+04  0.12535449827E+04  0.41800000000E+01 0.  1.
         -5    1    3    3    0  501 -0.22880362892E+03  0.20866046780E+03 -0.63933807156E+03  0.71039491381E+03  0.41800000000E+01 0.  1.
</event>
<event>
11    1  0.1704459E-009  0.1827165E+03  0.7561462E-02  0.1067466E+00
         22   -1    0    0    0    0  0.00000000000E+00  0.00000000000E+00  0.85702721610E+03  0.85702721610E+03  0.00000000000E+00 0.  1.
         22   -1    0    0    0    0 -0.00000000000E+00 -0.00000000000E+00 -0.35963135971E+03  0.35963135971E+03  0.00000000000E+00 0. -1.
         25    2    1    2    0    0  0.13197931191E+03  0.11371915260E+03 -0.11429160657E+03  0.24302462213E+03  0.12509121147E+03 0.  0.
        -24    2    1    2    0    0 -0.30177235774E+00 -0.97944545696E+02 -0.15019220763E+03  0.19612308646E+03  0.79456533466E+02 0.  0.
         24    2    1    2    0    0 -0.13167753955E+03 -0.15774606904E+02  0.76187967059E+03  0.77751086723E+03  0.80465542648E+02 0.  0.
        -13    1    5    5    0    0 -0.99416321674E+02  0.25049234580E+02  0.47313585015E+03  0.48411631027E+03  0.00000000000E+00 0.  1.
         14    1    5    5    0    0 -0.32261217874E+02 -0.40823841484E+02  0.28874382044E+03  0.29339455696E+03  0.00000000000E+00 0. -1.
         11    1    4    4    0    0 -0.13842414581E+02 -0.87630545872E+02 -0.66912232259E+02  0.11112142834E+03  0.00000000000E+00 0. -1.
        -12    1    4    4    0    0  0.13540642223E+02 -0.10313999823E+02 -0.83279975370E+02  0.85001658112E+02  0.00000000000E+00 0.  1.
          5    1    3    3  501    0  0.76433038044E+02  0.13368720100E+03 -0.70543941546E+02  0.16943493472E+03  0.41800000000E+01 0.  1.
         -5    1    3    3    0  501  0.55546273861E+02 -0.19968048401E+02 -0.43747665025E+02  0.73589687402E+02  0.41800000000E+01 0.  1.
</event>
<event>
11    1  0.1704459E-009  0.2880675E+03  0.7561462E-02  0.1005372E+00
         22   -1    0    0    0    0  0.00000000000E+00  0.00000000000E+00  0.82290683729E+02  0.82290683729E+02  0.00000000000E+00 0.  1.
         22   -1    0    0    0    0 -0.00000000000E+00 -0.00000000000E+00 -0.20633879120E+04  0.20633879120E+04  0.00000000000E+00 0.  1.
         25    2    1    2    0    0 -0.21756084183E+03 -0.14310420303E+03 -0.15609977252E+04  0.15875049427E+04  0.12508601994E+03 0.  0.
         24    2    1    2    0    0  0.23260474832E+03  0.11046125030E+03 -0.25537047694E+03  0.37148300532E+03  0.80491527453E+02 0.  0.
        -24    2    1    2    0    0 -0.15043906496E+02  0.32642952731E+02 -0.16472902616E+03  0.18669064768E+03  0.80161489403E+02 0.  0.
        -13    1    4    4    0    0  0.19145357662E+03  0.77343416086E+02 -0.15544906019E+03  0.25845867431E+03  0.00000000000E+00 0.  1.
         14    1    4    4    0    0  0.41151171699E+02  0.33117834214E+02 -0.99921416745E+02  0.11302433101E+03  0.00000000000E+00 0. -1.
         11    1    5    5    0    0  0.10979513414E+02 -0.21340122442E+02 -0.25011191476E+02  0.34662807730E+02  0.00000000000E+00 0. -1.
        -12    1    5    5    0    0 -0.26023419910E+02  0.53983075173E+02 -0.13971783469E+03  0.15202783995E+03  0.00000000000E+00 0.  1.
          5    1    3    3  501    0 -0.90991664565E+02 -0.12078069902E+03 -0.64365949856E+03  0.66119776373E+03  0.41800000000E+01 0. -1.
         -5    1    3    3    0  501 -0.12656917726E+03 -0.22323504009E+02 -0.91733822661E+03  0.92630717900E+03  0.41800000000E+01 0. -1.
</event>
<event>
11    1  0.1704459E-009  0.3222396E+03  0.7561462E-02  0.9911948E-01
         22   -1    0    0    0    0  0.00000000000E+00  0.00000000000E+00  0.30579378058E+03  0.30579378058E+03  0.00000000000E+00 0.  1.
         22   -1    0    0    0    0 -0.00000000000E+00 -0.00000000000E+00 -0.61281802258E+03  0.61281802258E+03  0.00000000000E+00 0. -1.
         25    2    1    2    0    0 -0.89256629683E+02  0.22868694279E+03 -0.12425355544E+03  0.30223911137E+03  0.12508025685E+03 0.  0.
         24    2    1    2    0    0  0.27993215481E+03 -0.24232773199E+03 -0.72228130142E+02  0.38550170629E+03  0.79435016074E+02 0.  0.
        -24    2    1    2    0    0 -0.19067552513E+03  0.13640789195E+02 -0.11054255642E+03  0.23087098551E+03  0.67368599189E+02 0.  0.
        -13    1    4    4    0    0  0.21575540724E+03 -0.14450925122E+03 -0.31307275034E+02  0.26155967754E+03  0.00000000000E+00 0.  1.
         14    1    4    4    0    0  0.64176747569E+02 -0.97818480768E+02 -0.40920855108E+02  0.12394202875E+03  0.00000000000E+00 0. -1.
         13    1    5    5    0    0 -0.16581637014E+03  0.20089105298E+02 -0.11755446052E+03  0.20424909289E+03  0.00000000000E+00 0. -1.
        -14    1    5    5    0    0 -0.24859154992E+02 -0.64483161036E+01  0.70119041037E+01  0.26621892619E+02  0.00000000000E+00 0.  1.
          5    1    3    3  501    0 -0.21066239936E+02 -0.34179322809E+01 -0.40919451871E+02  0.46339428865E+02  0.41800000000E+01 0. -1.
         -5    1    3    3    0  501 -0.68190389747E+02  0.23210487508E+03 -0.83334103568E+02  0.25589968250E+03  0.41800000000E+01 0. -1.
</event>
<event>
11    1  0.1704459E-009  0.4471061E+03  0.7561462E-02  0.9520160E-01
         22   -1    0    0    0    0  0.00000000000E+00  0.00000000000E+00  0.63162688112E+03  0.63162688112E+03  0.00000000000E+00 0.  1.
         22   -1    0    0    0    0 -0.00000000000E+00 -0.00000000000E+00 -0.50721457005E+03  0.50721457005E+03  0.00000000000E+00 0.  1.
         25    2    1    2    0    0 -0.32823655247E+03 -0.29090752105E+03 -0.16555007450E+03  0.48520100400E+03  0.12508703745E+03 0.  0.
         24    2    1    2    0    0  0.22847386689E+03  0.35462666349E+03  0.15436154531E+03  0.45643684351E+03  0.80911847894E+02 0.  0.
        -24    2    1    2    0    0  0.99762685572E+02 -0.63719142443E+02  0.13560084026E+03  0.19720360366E+03  0.80554024544E+02 0.  0.
        -11    1    4    4    0    0  0.12659830885E+03  0.21662502721E+03  0.13183469672E+03  0.28343239313E+03  0.00000000000E+00 0.  1.
         12    1    4    4    0    0  0.10187555805E+03  0.13800163628E+03  0.22526848595E+02  0.17300445038E+03  0.00000000000E+00 0. -1.
         13    1    5    5    0    0  0.17431736779E+02 -0.52759557567E+02  0.30964751129E+02  0.63610157791E+02  0.00000000000E+00 0. -1.
        -14    1    5    5    0    0  0.82330948793E+02 -0.10959584876E+02  0.10463608913E+03  0.13359344587E+03  0.00000000000E+00 0.  1.
          5    1    3    3  501    0 -0.22000467199E+03 -0.25876916972E+03 -0.14936614188E+03  0.37106772378E+03  0.41800000000E+01 0.  1.
         -5    1    3    3    0  501 -0.10823188048E+03 -0.32138351330E+02 -0.16183932619E+02  0.11413328022E+03  0.41800000000E+01 0.  1.
</event>
<event>
11    1  0.1704459E-009  0.1588618E+03  0.7561462E-02  0.1088153E+00
         22   -1    0    0    0    0  0.00000000000E+00  0.00000000000E+00  0.15343930497E+03  0.15343930497E+03  0.00000000000E+00 0.  1.
         22   -1    0    0    0    0 -0.00000000000E+00 -0.00000000000E+00 -0.59962369100E+03  0.59962369100E+03  0.00000000000E+00 0.  1.
         25    2    1    2    0    0  0.32908912751E+02  0.73191885672E+02 -0.29937752206E+03  0.33423660878E+03  0.12508861367E+03 0.  0.
        -24    2    1    2    0    0  0.65505423540E+02 -0.14833776545E+03 -0.19356185828E+03  0.26460694365E+03  0.79092278239E+02 0.  0.
         24    2    1    2    0    0 -0.98414336291E+02  0.75145879781E+02  0.46754994304E+02  0.15421944354E+03  0.79153789792E+02 0.  0.
        -13    1    5    5    0    0  0.82212781096E+01  0.16866073410E+02  0.24199752519E+02  0.30621591533E+02  0.00000000000E+00 0.  1.
         14    1    5    5    0    0 -0.10663561440E+03  0.58279806371E+02  0.22555241785E+02  0.12359785201E+03  0.00000000000E+00 0. -1.
         11    1    4    4    0    0  0.59455890347E+01 -0.58658180923E+01 -0.59585372602E+02  0.60167885778E+02  0.00000000000E+00 0. -1.
        -12    1    4    4    0    0  0.59559834506E+02 -0.14247194736E+03 -0.13397648567E+03  0.20443905788E+03  0.00000000000E+00 0.  1.
          5    1    3    3  501    0  0.73643695583E+02  0.78020862859E+02 -0.21850014175E+03  0.24345519769E+03  0.41800000000E+01 0. -1.
         -5    1    3    3    0  501 -0.40734782833E+02 -0.48289771878E+01 -0.80877380310E+02  0.90781411087E+02  0.41800000000E+01 0. -1.
</event>
<event>
11    1  0.1704459E-009  0.1472080E+03  0.7561462E-02  0.1099766E+00
         22   -1    0    0    0    0  0.00000000000E+00  0.00000000000E+00  0.11569625922E+04  0.11569625922E+04  0.00000000000E+00 0. -1.
         22   -1    0    0    0    0 -0.00000000000E+00 -0.00000000000E+00 -0.56099585253E+02  0.56099585253E+02  0.00000000000E+00 0. -1.
         25    2    1    2    0    0 -0.54634626580E+02  0.18378109517E+02  0.10700553226E+03  0.17441973186E+03  0.12509740843E+03 0.  0.
        -24    2    1    2    0    0  0.99229185773E+02  0.89127175980E+02  0.47620077630E+03  0.50142518461E+03  0.82885171210E+02 0.  0.
         24    2    1    2    0    0 -0.44594559193E+02 -0.10750528550E+03  0.51765669841E+03  0.53721726100E+03  0.84189470801E+02 0.  0.
        -13    1    5    5    0    0 -0.21562578957E+02 -0.99746258546E+01  0.25480356270E+03  0.25590876018E+03  0.00000000000E+00 0.  1.
         14    1    5    5    0    0 -0.23031980236E+02 -0.97530659643E+02  0.26285313571E+03  0.28130850082E+03  0.00000000000E+00 0. -1.
         13    1    4    4    0    0  0.11106285818E+03  0.88628840702E+02  0.45937553789E+03  0.48084916001E+03  0.00000000000E+00 0. -1.
        -14    1    4    4    0    0 -0.11833672411E+02  0.49833527820E+00  0.16825238409E+02  0.20576024599E+02  0.00000000000E+00 0.  1.
          5    1    3    3  501    0 -0.10528346315E+02 -0.27170103355E+02  0.10689953350E+03  0.11087850673E+03  0.41800000000E+01 0.  1.
         -5    1    3    3    0  501 -0.44106280266E+02  0.45548212873E+02  0.10599875872E+00  0.63541225126E+02  0.41800000000E+01 0.  1.
</event>
<event>
11    1  0.1704459E-009  0.3347994E+03  0.7561462E-02  0.9864520E-01
         22   -1    0    0    0    0  0.00000000000E+00  0.00000000000E+00  0.90793531167E+03  0.90793531167E+03  0.00000000000E+00 0. -1.
         22   -1    0    0    0    0 -0.00000000000E+00 -0.00000000000E+00 -0.23911288280E+04  0.23911288280E+04  0.00000000000E+00 0. -1.
         25    2    1    2    0    0  0.90817317721E+02 -0.14101682590E+03 -0.22186363977E+04  0.22284808981E+04  0.12508444289E+03 0.  0.
        -24    2    1    2    0    0  0.94749762535E+02 -0.17731185932E+03 -0.28230028472E+02  0.21904027618E+03  0.82247766702E+02 0.  0.
         24    2    1    2    0    0 -0.18556708026E+03  0.31832868522E+03  0.76367290978E+03  0.85154296541E+03  0.78490863818E+02 0.  0.
        -11    1    5    5    0    0 -0.74213484997E+01  0.72328464994E+02  0.16120948464E+03  0.17684733868E+03  0.00000000000E+00 0.  1.
         12    1    5    5    0    0 -0.17814573176E+03  0.24600022023E+03  0.60246342514E+03  0.67469562673E+03  0.00000000000E+00 0. -1.
         13    1    4    4    0    0 -0.14094361248E+02 -0.31923659085E+02 -0.11089029737E+02  0.36616084019E+02  0.00000000000E+00 0. -1.
        -14    1    4    4    0    0  0.10884412378E+03 -0.14538820023E+03 -0.17140998735E+02  0.18242419216E+03  0.00000000000E+00 0.  1.
          5    1    3    3  501    0 -0.30164415247E+02 -0.19005676570E+02 -0.29341370855E+03  0.29560139454E+03  0.41800000000E+01 0. -1.
         -5    1    3    3    0  501  0.12098173297E+03 -0.12201114933E+03 -0.19252226891E+04  0.19328795036E+04  0.41800000000E+01 0. -1.
</event>
<event>
11    1  0.1704459E-009  0.2725780E+03  0.7561462E-02  0.1012515E+00
         22   -1    0    0    0    0  0.00000000000E+00  0.00000000000E+00  0.22953379982E+03  0.22953379982E+03  0.00000000000E+00 0.  1.
         22   -1    0    0    0    0 -0.00000000000E+00 -0.00000000000E+00 -0.84016539240E+03  0.84016539240E+03  0.00000000000E+00 0.  1.
         25    2    1    2    0    0  0.88667261771E+02 -0.24706125621E+03 -0.33688892692E+03  0.44502137398E+03  0.12509487036E+03 0.  0.
        -24    2    1    2    0    0  0.12723035129E+03  0.12043386579E+03 -0.30453865696E+03  0.36041234275E+03  0.80382740119E+02 0.  0.
         24    2    1    2    0    0 -0.21589761306E+03  0.12662739042E+03  0.30795991297E+02  0.26426547548E+03  0.79003627264E+02 0.  0.
        -11    1    5    5    0    0 -0.16222677087E+03  0.55140845294E+02  0.57798479438E+01  0.17143933227E+03  0.00000000000E+00 0.  1.
         12    1    5    5    0    0 -0.53670842194E+02  0.71486545122E+02  0.25016143354E+02  0.92826143212E+02  0.00000000000E+00 0. -1.
         11    1    4    4    0    0  0.66448811879E+02  0.12164998378E+02 -0.12561834986E+03  0.14263029695E+03  0.00000000000E+00 0. -1.
        -12    1    4    4    0    0  0.60781539413E+02  0.10826886741E+03 -0.17892030710E+03  0.21778204581E+03  0.00000000000E+00 0.  1.
          5    1    3    3  501    0  0.71341556570E+02 -0.25443104296E+03 -0.33337280050E+03  0.42541705399E+03  0.41800000000E+01 0.  1.
         -5    1    3    3    0  501  0.17325705200E+02  0.73697867494E+01 -0.35161264259E+01  0.19604319995E+02  0.41800000000E+01 0.  1.
</event>
<event>
11    1  0.1704459E-009  0.1240342E+04  0.7561462E-02  0.8478954E-01
         22   -1    0    0    0    0  0.00000000000E+00  0.00000000000E+00  0.93579310514E+03  0.93579310514E+03  0.00000000000E+00 0. -1.
         22   -1    0    0    0    0 -0.00000000000E+00 -0.00000000000E+00 -0.41100138089E+03  0.41100138089E+03  0.00000000000E+00 0. -1.
         25    2    1    2    0    0 -0.42724198577E+03  0.39738028367E+03  0.20243218806E+03  0.63013752851E+03  0.12509080632E+03 0.  0.
         24    2    1    2    0    0  0.33662661286E+03 -0.33481803992E+03  0.16654310752E+03  0.50945244608E+03  0.79903640795E+02 0.  0.
        -24    2    1    2    0    0  0.90615372907E+02 -0.62562243747E+02  0.15581642868E+03  0.20720451143E+03  0.80806992042E+02 0.  0.
        -13    1    4    4    0    0  0.66420433572E+02 -0.11317066872E+03  0.32866976014E+02  0.13527569023E+03  0.00000000000E+00 0.  1.
         14    1    4    4    0    0  0.27020617929E+03 -0.22164737121E+03  0.13367613150E+03  0.37417675585E+03  0.00000000000E+00 0. -1.
         11    1    5    5    0    0  0.39610531717E+02  0.12260322423E+02  0.26056529683E+02  0.48971955933E+02  0.00000000000E+00 0. -1.
        -12    1    5    5    0    0  0.51004841190E+02 -0.74822566170E+02  0.12975989899E+03  0.15823255550E+03  0.00000000000E+00 0.  1.
          5    1    3    3  501    0 -0.13761962225E+03  0.12232502445E+03  0.42244011122E+01  0.18422239277E+03  0.41800000000E+01 0. -1.
         -5    1    3    3    0  501 -0.28962236352E+03  0.27505525922E+03  0.19820778695E+03  0.44591513574E+03  0.41800000000E+01 0. -1.
</event>
<event>
11    1  0.1704459E-009  0.4530869E+03  0.7561462E-02  0.9504928E-01
         22   -1    0    0    0    0  0.00000000000E+00  0.00000000000E+00  0.51641925631E+03  0.51641925631E+03  0.00000000000E+00 0. -1.
         22   -1    0    0    0    0 -0.00000000000E+00 -0.00000000000E+00 -0.69896147540E+03  0.69896147540E+03  0.00000000000E+00 0. -1.
         25    2    1    2    0    0  0.42242372352E+03 -0.93513752253E+02 -0.16415038805E+03  0.47935274115E+03  0.12508827478E+03 0.  0.
         24    2    1    2    0    0 -0.41740951415E+03  0.13556950197E+03 -0.22632694354E+03  0.50049962080E+03  0.81646755518E+02 0.  0.
        -24    2    1    2    0    0 -0.50142093787E+01 -0.42055749714E+02  0.20793511251E+03  0.23552836977E+03  0.10218988977E+03 0.  0.
        -13    1    4    4    0    0 -0.32250488146E+03  0.71441862495E+02 -0.18586322293E+03  0.37902305460E+03  0.00000000000E+00 0.  1.
         14    1    4    4    0    0 -0.94904632689E+02  0.64127639472E+02 -0.40463720602E+02  0.12147656620E+03  0.00000000000E+00 0. -1.
         11    1    5    5    0    0 -0.10196632746E+02 -0.38701819629E+02  0.15382513332E+02  0.42876845481E+02  0.00000000000E+00 0. -1.
        -12    1    5    5    0    0  0.51824233677E+01 -0.33539300848E+01  0.19255259918E+03  0.19265152429E+03  0.00000000000E+00 0.  1.
          5    1    3    3  501    0  0.39472985354E+03 -0.58909608973E+02 -0.17117921896E+03  0.43428308360E+03  0.41800000000E+01 0. -1.
         -5    1    3    3    0  501  0.27693869988E+02 -0.34604143280E+02  0.70288309024E+01  0.45069657542E+02  0.41800000000E+01 0. -1.
</event>
<event>
11    1  0.1704459E-009  0.2227742E+03  0.7561462E-02  0.1039493E+00
         22   -1    0    0    0    0  0.00000000000E+00  0.00000000000E+00  0.11534437837E+03  0.11534437837E+03  0.00000000000E+00 0. -1.
         22   -1    0    0    0    0 -0.00000000000E+00 -0.00000000000E+00 -0.15310908428E+04  0.15310908428E+04  0.00000000000E+00 0. -1.
         25    2    1    2    0    0  0.73872769939E+02 -0.21037067829E+02 -0.38948624345E+03  0.41622932891E+03  0.12509027157E+03 0.  0.
        -24    2    1    2    0    0 -0.18617438858E+03 -0.14916436709E+03 -0.97155357045E+03  0.10035924181E+04  0.79815349703E+02 0.  0.
         24    2    1    2    0    0  0.11230161864E+03  0.17020143492E+03 -0.54706650558E+02  0.22661347419E+03  0.82344805964E+02 0.  0.
        -11    1    5    5    0    0 -0.12854256319E+02  0.10950141017E+02 -0.30554603951E+00  0.16888778884E+02  0.00000000000E+00 0.  1.
         12    1    5    5    0    0  0.12515587496E+03  0.15925129390E+03 -0.54401104519E+02  0.20972469530E+03  0.00000000000E+00 0. -1.
         11    1    4    4    0    0 -0.11066925116E+03 -0.73624274584E+02 -0.68509446616E+03  0.69787007711E+03  0.00000000000E+00 0. -1.
        -12    1    4    4    0    0 -0.75505137418E+02 -0.75540092508E+02 -0.28645910428E+03  0.30572234099E+03  0.00000000000E+00 0.  1.
          5    1    3    3  501    0  0.25649881261E+02  0.39519121837E+02 -0.53476919169E+02  0.71392791536E+02  0.41800000000E+01 0.  1.
         -5    1    3    3    0  501  0.48222888677E+02 -0.60556189666E+02 -0.33600932428E+03  0.34483653737E+03  0.41800000000E+01 0.  1.
</event>
<event>
11    1  0.1704459E-009  0.2408733E+03  0.7561462E-02  0.1028877E+00
         22   -1    0    0    0    0  0.00000000000E+00  0.00000000000E+00  0.21123947513E+03  0.21123947513E+03  0.00000000000E+00 0.  1.
         22   -1    0    0    0    0 -0.00000000000E+00 -0.00000000000E+00 -0.65028954040E+03  0.65028954040E+03  0.00000000000E+00 0.  1.
         25    2    1    2    0    0 -0.10269302961E+03 -0.55473556203E+02 -0.11128272573E+03  0.20409510865E+03  0.12509114502E+03 0.  0.
        -24    2    1    2    0    0  0.10407076086E+03  0.26396058672E+03 -0.31338231277E+03  0.43013813881E+03  0.79400440110E+02 0.  0.
         24    2    1    2    0    0 -0.13777312529E+01 -0.20848703052E+03 -0.14385026774E+02  0.22729576807E+03  0.89373917597E+02 0.  0.
        -11    1    5    5    0    0  0.18018853774E+01 -0.20470342844E+03 -0.33604341541E+02  0.20745118022E+03  0.00000000000E+00 0.  1.
         12    1    5    5    0    0 -0.31796166303E+01 -0.37836020846E+01  0.19219314767E+02  0.19844587846E+02  0.00000000000E+00 0. -1.
         11    1    4    4    0    0  0.34193591586E+02  0.70380316404E+02 -0.39797487727E+02  0.87786278381E+02  0.00000000000E+00 0. -1.
        -12    1    4    4    0    0  0.69877169273E+02  0.19358027032E+03 -0.27358482504E+03  0.34235186043E+03  0.00000000000E+00 0.  1.
          5    1    3    3  501    0 -0.13098139910E+03 -0.49153351084E+02 -0.10262802671E+03  0.17355737697E+03  0.41800000000E+01 0. -1.
         -5    1    3    3    0  501  0.28288369496E+02 -0.63202051193E+01 -0.86546990215E+01  0.30537731688E+02  0.41800000000E+01 0. -1.
</event>
<event>
11    1  0.1704459E-009  0.1618713E+03  0.7561462E-02  0.1085330E+00
         22   -1    0    0    0    0  0.00000000000E+00  0.00000000000E+00  0.14712325800E+03  0.14712325800E+03  0.00000000000E+00 0. -1.
         22   -1    0    0    0    0 -0.00000000000E+00 -0.00000000000E+00 -0.54393504406E+03  0.54393504406E+03  0.00000000000E+00 0.  1.
         25    2    1    2    0    0  0.45916487391E+01 -0.80253752658E+02 -0.25566205047E+03  0.29575807192E+03  0.12509198616E+03 0.  0.
        -24    2    1    2    0    0  0.38978897107E+02  0.19711619562E+03 -0.54699554468E+02  0.22368085118E+03  0.81651288615E+02 0.  0.
         24    2    1    2    0    0 -0.43570545846E+02 -0.11686244296E+03 -0.86450181117E+02  0.17161937895E+03  0.80152070312E+02 0.  0.
        -13    1    5    5    0    0 -0.53369734503E+02 -0.81060150380E+02 -0.92427498600E+02  0.13402208414E+03  0.00000000000E+00 0.  1.
         14    1    5    5    0    0  0.97991886572E+01 -0.35802292579E+02  0.59773174835E+01  0.37597294804E+02  0.00000000000E+00 0. -1.
         11    1    4    4    0    0 -0.11640890404E+01  0.13040516839E+03 -0.64002485973E+02  0.14526934038E+03  0.00000000000E+00 0. -1.
        -12    1    4    4    0    0  0.40142986147E+02  0.66711027231E+02  0.93029315047E+01  0.78411510798E+02  0.00000000000E+00 0.  1.
          5    1    3    3  501    0 -0.46763678584E+02 -0.37940895446E+02 -0.19998038412E+03  0.20889226796E+03  0.41800000000E+01 0.  1.
         -5    1    3    3    0  501  0.51355327324E+02 -0.42312857212E+02 -0.55681666354E+02  0.86865803962E+02  0.41800000000E+01 0.  1.
</event>
<event>
11    1  0.1704459E-009  0.3862165E+03  0.7561462E-02  0.9691326E-01
         22   -1    0    0    0    0  0.00000000000E+00  0.00000000000E+00  0.56234315987E+03  0.56234315987E+03  0.00000000000E+00 0.  1.
         22   -1    0    0    0    0 -0.00000000000E+00 -0.00000000000E+00 -0.13416525470E+04  0.13416525470E+04  0.00000000000E+00 0. -1.
         25    2    1    2    0    0  0.16152622567E+03  0.29727288584E+03 -0.88871336834E+03  0.95912516646E+03  0.12509094151E+03 0.  0.
         24    2    1    2    0    0 -0.16172859001E+03 -0.59100783185E+03 -0.96481997106E+01  0.61792999357E+03  0.79359908413E+02 0.  0.
        -24    2    1    2    0    0  0.20236433483E+00  0.29373494601E+03  0.11905218096E+03  0.32694054678E+03  0.80227425996E+02 0.  0.
        -11    1    4    4    0    0 -0.25916640721E+02 -0.20840964905E+03  0.19370058779E+02  0.21090626653E+03  0.00000000000E+00 0.  1.
         12    1    4    4    0    0 -0.13581194929E+03 -0.38259818280E+03 -0.29018258490E+02  0.40702372705E+03  0.00000000000E+00 0. -1.
         13    1    5    5    0    0 -0.79616535258E+01  0.85671954092E+02 -0.20428222481E+01  0.86065351725E+02  0.00000000000E+00 0. -1.
        -14    1    5    5    0    0  0.81640178606E+01  0.20806299192E+03  0.12109500320E+03  0.24087519506E+03  0.00000000000E+00 0.  1.
          5    1    3    3  501    0  0.95945198057E+02  0.27475494173E+03 -0.70502195908E+03  0.76273795908E+03  0.41800000000E+01 0. -1.
         -5    1    3    3    0  501  0.65581027615E+02  0.22517944118E+02 -0.18369140925E+03  0.19638720738E+03  0.41800000000E+01 0. -1.
</event>
<event>
11    1  0.1704459E-009  0.1347284E+03  0.7561462E-02  0.1113592E+00
         22   -1    0    0    0    0  0.00000000000E+00  0.00000000000E+00  0.10639859561E+04  0.10639859561E+04  0.00000000000E+00 0. -1.
         22   -1    0    0    0    0 -0.00000000000E+00 -0.00000000000E+00 -0.99600715052E+03  0.99600715052E+03  0.00000000000E+00 0.  1.
         25    2    1    2    0    0  0.15353452290E+02 -0.11872621164E+01 -0.48009153749E+03  0.49635884267E+03  0.12508828177E+03 0.  0.
         24    2    1    2    0    0 -0.71941796136E+02 -0.28834533035E+02 -0.49904075162E+03  0.51143593433E+03  0.80734074705E+02 0.  0.
        -24    2    1    2    0    0  0.56588343846E+02  0.30021795151E+02  0.10471110947E+04  0.10521983296E+04  0.81093350008E+02 0.  0.
        -11    1    4    4    0    0 -0.52152083033E+02  0.66091791221E+01 -0.41262733964E+03  0.41596254931E+03  0.00000000000E+00 0.  1.
         12    1    4    4    0    0 -0.19789713103E+02 -0.35443712157E+02 -0.86413411980E+02  0.95473385015E+02  0.00000000000E+00 0. -1.
         13    1    5    5    0    0  0.72252927417E+02  0.23128110891E+02  0.60243133649E+03  0.60718935285E+03  0.00000000000E+00 0. -1.
        -14    1    5    5    0    0 -0.15664583571E+02  0.68936842603E+01  0.44467975818E+03  0.44500897676E+03  0.00000000000E+00 0.  1.
          5    1    3    3  501    0 -0.70081938202E+01 -0.47335656629E+02 -0.38721845402E+03  0.39018634356E+03  0.41800000000E+01 0.  1.
         -5    1    3    3    0  501  0.22361646110E+02  0.46148394513E+02 -0.92873083476E+02  0.10617249911E+03  0.41800000000E+01 0.  1.
</event>
<event>
11    1  0.1704459E-009  0.6103927E+03  0.7561462E-02  0.9175890E-01
         22   -1    0    0    0    0  0.00000000000E+00  0.00000000000E+00  0.10376179339E+04  0.10376179339E+04  0.00000000000E+00 0.  1.
         22   -1    0    0    0    0 -0.00000000000E+00 -0.00000000000E+00 -0.45624606867E+03  0.45624606867E+03  0.00000000000E+00 0.  1.
         25    2    1    2    0    0  0.30027661036E+03  0.53475958521E+03  0.48478689598E+03  0.79170665652E+03  0.12508892341E+03 0.  0.
        -24    2    1    2    0    0 -0.25335519725E+03 -0.53281137976E+03  0.40617528457E+02  0.59688102834E+03  0.80872467484E+02 0.  0.
         24    2    1    2    0    0 -0.46921413102E+02 -0.19482054462E+01  0.55967440763E+02  0.10527631769E+03  0.75797982354E+02 0.  0.
        -13    1    5    5    0    0 -0.51415264928E+00 -0.69445088075E+01 -0.17161952919E+02  0.18520885063E+02  0.00000000000E+00 0.  1.
         14    1    5    5    0    0 -0.46407260452E+02  0.49963033612E+01  0.73129393683E+02  0.86755432627E+02  0.00000000000E+00 0. -1.
         13    1    4    4    0    0 -0.63862705053E+02 -0.11000248066E+03 -0.22822552604E+02  0.12922793721E+03  0.00000000000E+00 0. -1.
        -14    1    4    4    0    0 -0.18949249220E+03 -0.42280889910E+03  0.63440081061E+02  0.46765309113E+03  0.00000000000E+00 0.  1.
          5    1    3    3  501    0  0.10742063349E+02 -0.18459568203E+01  0.26430203062E+02  0.28893381863E+02  0.41800000000E+01 0.  1.
         -5    1    3    3    0  501  0.28953454701E+03  0.53660554203E+03  0.45835669292E+03  0.76281327466E+03  0.41800000000E+01 0.  1.
</event>
<event>
11    1  0.1704459E-009  0.6284833E+03  0.7561462E-02  0.9144886E-01
         22   -1    0    0    0    0  0.00000000000E+00  0.00000000000E+00  0.33658567960E+03  0.33658567960E+03  0.00000000000E+00 0. -1.
         22   -1    0    0    0    0 -0.00000000000E+00 -0.00000000000E+00 -0.19637574612E+04  0.19637574612E+04  0.00000000000E+00 0.  1.
         25    2    1    2    0    0 -0.22520350945E+03 -0.56317804438E+03 -0.79818463350E+03  0.10102634052E+04  0.12508920190E+03 0.  0.
        -24    2    1    2    0    0  0.21365169748E+03  0.58669501498E+03 -0.95160196452E+03  0.11402300162E+04  0.68703002391E+02 0.  0.
         24    2    1    2    0    0  0.11551811965E+02 -0.23516970594E+02  0.12261481646E+03  0.14984971934E+03  0.82061275305E+02 0.  0.
        -11    1    5    5    0    0 -0.22562991593E+02 -0.16871522566E+02  0.68695043622E+01  0.28998740551E+02  0.00000000000E+00 0.  1.
         12    1    5    5    0    0  0.34114803559E+02 -0.66454480277E+01  0.11574531210E+03  0.12085097879E+03  0.00000000000E+00 0. -1.
         13    1    4    4    0    0  0.11354471973E+03  0.37084493466E+03 -0.63708927651E+03  0.74585596142E+03  0.00000000000E+00 0. -1.
        -14    1    4    4    0    0  0.10010697775E+03  0.21585008031E+03 -0.31451268801E+03  0.39437405478E+03  0.00000000000E+00 0.  1.
          5    1    3    3  501    0 -0.19135108762E+03 -0.47177735950E+03 -0.58310149710E+03  0.77408910597E+03  0.41800000000E+01 0.  1.
         -5    1    3    3    0  501 -0.33852421826E+02 -0.91400684886E+02 -0.21508313641E+03  0.23617429925E+03  0.41800000000E+01 0.  1.
</event>
<event>
11    1  0.1704459E-009  0.1341623E+03  0.7561462E-02  0.1114258E+00
         22   -1    0    0    0    0  0.00000000000E+00  0.00000000000E+00  0.29112859323E+03  0.29112859323E+03  0.00000000000E+00 0. -1.
         22   -1    0    0    0    0 -0.00000000000E+00 -0.00000000000E+00 -0.15106718479E+04  0.15106718479E+04  0.00000000000E+00 0. -1.
         25    2    1    2    0    0  0.33610467949E+02  0.23692670905E+01 -0.85172175343E+03  0.86151774844E+03  0.12509040179E+03 0.  0.
         24    2    1    2    0    0 -0.61022954013E+02  0.14482354483E+01 -0.64324205919E+03  0.65148620744E+03  0.83354864686E+02 0.  0.
        -24    2    1    2    0    0  0.27412486063E+02 -0.38175025387E+01  0.27542055793E+03  0.28879648528E+03  0.82346271680E+02 0.  0.
        -11    1    4    4    0    0  0.12296155610E+02 -0.18387025319E+02 -0.75110202964E+02  0.78299557675E+02  0.00000000000E+00 0.  1.
         12    1    4    4    0    0 -0.73319109623E+02  0.19835260767E+02 -0.56813185623E+03  0.57318664976E+03  0.00000000000E+00 0. -1.
         13    1    5    5    0    0  0.23453705868E+02 -0.10901153747E+02  0.27880655897E+03  0.28000358712E+03  0.00000000000E+00 0. -1.
        -14    1    5    5    0    0  0.39587801953E+01  0.70836512082E+01 -0.33860010388E+01  0.87928981632E+01  0.00000000000E+00 0.  1.
          5    1    3    3  501    0  0.77309350951E+02  0.38242187517E+01 -0.38449950182E+03  0.39223551560E+03  0.41800000000E+01 0. -1.
         -5    1    3    3    0  501 -0.43698883001E+02 -0.14549516612E+01 -0.46722225161E+03  0.46928223284E+03  0.41800000000E+01 0. -1.
</event>
<event>
11    1  0.1704459E-009  0.1965093E+03  0.7561462E-02  0.1057020E+00
         22   -1    0    0    0    0  0.00000000000E+00  0.00000000000E+00  0.58195342116E+03  0.58195342116E+03  0.00000000000E+00 0.  1.
         22   -1    0    0    0    0 -0.00000000000E+00 -0.00000000000E+00 -0.14061385052E+03  0.14061385052E+03  0.00000000000E+00 0.  1.
         25    2    1    2    0    0  0.69674515278E+02 -0.16337354575E+02  0.62325708416E+01  0.14424811414E+03  0.12508887344E+03 0.  0.
        -24    2    1    2    0    0  0.10002361224E+03 -0.39789032281E+02  0.44595475738E+02  0.14104878063E+03  0.79486552102E+02 0.  0.
         24    2    1    2    0    0 -0.16969812752E+03  0.56126386856E+02  0.39051152406E+03  0.43727037690E+03  0.82210135055E+02 0.  0.
        -11    1    5    5    0    0 -0.17820061027E+03  0.58323389950E+02  0.36600754719E+03  0.41124031893E+03  0.00000000000E+00 0.  1.
         12    1    5    5    0    0  0.85024827462E+01 -0.21970030938E+01  0.24503976869E+02  0.26030057969E+02  0.00000000000E+00 0. -1.
         11    1    4    4    0    0  0.35685671740E+02 -0.45971745702E+02 -0.66346845887E+01  0.58573779202E+02  0.00000000000E+00 0. -1.
        -12    1    4    4    0    0  0.64337940504E+02  0.61827134209E+01  0.51230160327E+02  0.82475001429E+02  0.00000000000E+00 0.  1.
          5    1    3    3  501    0  0.14255578369E+02 -0.37612055518E+02 -0.48672100165E+02  0.63279806964E+02  0.41800000000E+01 0. -1.
         -5    1    3    3    0  501  0.55418936909E+02  0.21274700943E+02  0.54904671007E+02  0.80968307174E+02  0.41800000000E+01 0. -1.
</event>
