<event>
11    1  0.6625361E-009  0.1513346E+03  0.7561462E-02  0.1095523E+00
         22   -1    0    0    0    0  0.00000000000E+00  0.00000000000E+00  0.39463461582E+03  0.39463461582E+03  0.00000000000E+00 0. -1.
         22   -1    0    0    0    0 -0.00000000000E+00 -0.00000000000E+00 -0.97987022379E+03  0.97987022379E+03  0.00000000000E+00 0.  1.
         24    2    1    2    0    0 -0.23334528162E+02 -0.25739195887E+02 -0.92542280950E+03  0.92973860119E+03  0.82458982463E+02 0.  0.
         25    2    1    2    0    0  0.88535658600E+02 -0.27451248834E+02  0.12182088136E+03  0.19768546634E+03  0.12508829906E+03 0.  0.
        -24    2    1    2    0    0 -0.65201130438E+02  0.53190444721E+02  0.21836632017E+03  0.24708077208E+03  0.79275767583E+02 0.  0.
        -11    1    3    3    0    0 -0.48630805753E+02 -0.29537211493E+02 -0.78085084717E+03  0.78292109926E+03  0.00000000000E+00 0.  1.
         12    1    3    3    0    0  0.25296277591E+02  0.37980156067E+01 -0.14457196233E+03  0.14681750194E+03  0.00000000000E+00 0. -1.
         13    1    5    5    0    0 -0.10166137511E+02 -0.11739169558E+02  0.10050992010E+03  0.10170251960E+03  0.00000000000E+00 0. -1.
        -14    1    5    5    0    0 -0.55034992928E+02  0.64929614279E+02  0.11785640007E+03  0.14537825248E+03  0.00000000000E+00 0.  1.
          5    1    4    4  501    0  0.56600544320E+02  0.67041183728E+01 -0.97635467492E+01  0.57977289223E+02  0.41800000000E+01 0. -1.
         -5    1    4    4    0  501  0.31935114281E+02 -0.34155367207E+02  0.13158442811E+03  0.13970817712E+03  0.41800000000E+01 0. -1.
</event>
<event>
11    1  0.6625361E-009  0.1261415E+03  0.7561462E-02  0.1124103E+00
         22   -1    0    0    0    0  0.00000000000E+00  0.00000000000E+00  0.56006574457E+03  0.56006574457E+03  0.00000000000E+00 0.  1.
         22   -1    0    0    0    0 -0.00000000000E+00 -0.00000000000E+00 -0.99322069414E+03  0.99322069414E+03  0.00000000000E+00 0. -1.
         24    2    1    2    0    0  0.41020003265E+01  0.14525424766E+02 -0.84527813678E+03  0.84950792703E+03  0.83311314915E+02 0.  0.
         25    2    1    2    0    0  0.74887417141E+01 -0.37897930665E+02 -0.11236790358E+03  0.17251501158E+03  0.12507017655E+03 0.  0.
        -24    2    1    2    0    0 -0.11590742041E+02  0.23372505899E+02  0.52449109079E+03  0.53126350011E+03  0.80432474162E+02 0.  0.
        -11    1    3    3    0    0  0.16875674909E+02  0.44087268091E+02 -0.34787148459E+03  0.35105988863E+03  0.00000000000E+00 0.  1.
         12    1    3    3    0    0 -0.12773674583E+02 -0.29561843325E+02 -0.49740665219E+03  0.49844803840E+03  0.00000000000E+00 0. -1.
         13    1    5    5    0    0 -0.13127268649E+02 -0.28276387050E+02  0.25154356737E+03  0.25346803651E+03  0.00000000000E+00 0. -1.
        -14    1    5    5    0    0  0.15365266082E+01  0.51648892948E+02  0.27294752342E+03  0.27779546360E+03  0.00000000000E+00 0.  1.
          5    1    4    4  501    0  0.25367429140E+02 -0.80315575231E+02 -0.78520841084E+02  0.11522626858E+03  0.41800000000E+01 0. -1.
         -5    1    4    4    0  501 -0.17878687426E+02  0.42417644566E+02 -0.33847062499E+02  0.57288742999E+02  0.41800000000E+01 0. -1.
</event>
<event>
11    1  0.6625361E-009  0.1464391E+03  0.7561462E-02  0.1100574E+00
         22   -1    0    0    0    0  0.00000000000E+00  0.00000000000E+00  0.63229760702E+03  0.63229760702E+03  0.00000000000E+00 0.  1.
         22   -1    0    0    0    0 -0.00000000000E+00 -0.00000000000E+00 -0.39179579776E+03  0.39179579776E+03  0.00000000000E+00 0. -1.
        -24    2    1    2    0    0 -0.66261497482E+02  0.31637264469E+02 -0.29332642850E+03  0.31274554476E+03  0.79861627554E+02 0.  0.
         25    2    1    2    0    0  0.81310075080E+02 -0.54004941428E+02 -0.10965983702E+02  0.15904700291E+03  0.12509130397E+03 0.  0.
         24    2    1    2    0    0 -0.15048577598E+02  0.22367676959E+02  0.54479422146E+03  0.55230085711E+03  0.86652872830E+02 0.  0.
        -11    1    5    5    0    0 -0.44655601704E+02  0.36748424376E+02  0.34517841357E+03  0.34998958078E+03  0.00000000000E+00 0.  1.
         12    1    5    5    0    0  0.29607024105E+02 -0.14380747417E+02  0.19961580789E+03  0.20231127633E+03  0.00000000000E+00 0. -1.
         13    1    3    3    0    0 -0.68636984428E+02  0.11243358828E+01 -0.25283892286E+03  0.26199202406E+03  0.00000000000E+00 0. -1.
        -14    1    3    3    0    0  0.23754869468E+01  0.30512928586E+02 -0.40487505646E+02  0.50753520691E+02  0.00000000000E+00 0.  1.
          5    1    4    4  501    0  0.20929002869E+02 -0.72778836393E+02  0.32174517660E+02  0.82386007152E+02  0.41800000000E+01 0.  1.
         -5    1    4    4    0  501  0.60381072211E+02  0.18773894965E+02 -0.43140501362E+02  0.76660995762E+02  0.41800000000E+01 0.  1.
</event>
<event>
11    1  0.6625361E-009  0.2344887E+03  0.7561462E-02  0.1032503E+00
         22   -1    0    0    0    0  0.00000000000E+00  0.00000000000E+00  0.11767063117E+04  0.11767063117E+04  0.00000000000E+00 0.  1.
         22   -1    0    0    0    0 -0.00000000000E+00 -0.00000000000E+00 -0.17302354880E+04  0.17302354880E+04  0.00000000000E+00 0. -1.
         24    2    1    2    0    0 -0.10007302498E+03  0.17619923525E+03 -0.15402580525E+04  0.15559307486E+04  0.86399336174E+02 0.  0.
         25    2    1    2    0    0  0.54034021520E+02 -0.15874978446E+03 -0.11942571596E+03  0.24089817078E+03  0.12509299543E+03 0.  0.
        -24    2    1    2    0    0  0.46039003462E+02 -0.17449450791E+02  0.11061545921E+04  0.11101128803E+04  0.79677801906E+02 0.  0.
        -13    1    3    3    0    0 -0.23244859299E+02  0.11627653233E+03 -0.69080363416E+03  0.70090671021E+03  0.00000000000E+00 0.  1.
         14    1    3    3    0    0 -0.76828165683E+02  0.59922702924E+02 -0.84945441830E+03  0.85502403834E+03  0.00000000000E+00 0. -1.
         13    1    5    5    0    0  0.30262382219E+02 -0.24784296848E+01  0.12212755662E+03  0.12584551831E+03  0.00000000000E+00 0. -1.
        -14    1    5    5    0    0  0.15776621243E+02 -0.14971021106E+02  0.98402703551E+03  0.98426736199E+03  0.00000000000E+00 0.  1.
          5    1    4    4  501    0  0.50162868521E+02 -0.12493123352E+02  0.20012236549E+00  0.51864284034E+02  0.41800000000E+01 0. -1.
         -5    1    4    4    0  501  0.38711529987E+01 -0.14625666111E+03 -0.11962583833E+03  0.18903388675E+03  0.41800000000E+01 0. -1.
</event>
<event>
11    1  0.6625361E-009  0.1286447E+03  0.7561462E-02  0.1120945E+00
         22   -1    0    0    0    0  0.00000000000E+00  0.00000000000E+00  0.16817650800E+03  0.16817650800E+03  0.00000000000E+00 0.  1.
         22   -1    0    0    0    0 -0.00000000000E+00 -0.00000000000E+00 -0.17172816466E+04  0.17172816466E+04  0.00000000000E+00 0. -1.
        -24    2    1    2    0    0  0.27563959296E+02  0.24791032993E+01 -0.15897318407E+04  0.15919852933E+04  0.80024564680E+02 0.  0.
         25    2    1    2    0    0 -0.14140799392E+02  0.26019021541E+02 -0.75194322782E+02  0.14892455961E+03  0.12508951429E+03 0.  0.
         24    2    1    2    0    0 -0.13423159904E+02 -0.28498124840E+02  0.11582102493E+03  0.14454830165E+03  0.80544257094E+02 0.  0.
        -13    1    5    5    0    0  0.32468848054E+02 -0.11235724646E+02  0.29549817136E+02  0.45317317827E+02  0.00000000000E+00 0.  1.
         14    1    5    5    0    0 -0.45892007957E+02 -0.17262400194E+02  0.86271207798E+02  0.99230983820E+02  0.00000000000E+00 0. -1.
         11    1    3    3    0    0  0.37281360992E+02  0.21234113568E+02 -0.14528390509E+04  0.14534724268E+04  0.00000000000E+00 0. -1.
        -12    1    3    3    0    0 -0.97174016959E+01 -0.18755010269E+02 -0.13689278981E+03  0.13851286658E+03  0.00000000000E+00 0.  1.
          5    1    4    4  501    0 -0.29339193752E+02  0.50493825306E+02  0.95477517029E+01  0.59321552968E+02  0.41800000000E+01 0. -1.
         -5    1    4    4    0  501  0.15198394359E+02 -0.24474803765E+02 -0.84742074485E+02  0.89603006637E+02  0.41800000000E+01 0. -1.
</event>
<event>
11    1  0.6625361E-009  0.1577911E+03  0.7561462E-02  0.1089173E+00
         22   -1    0    0    0    0  0.00000000000E+00  0.00000000000E+00  0.17571050239E+04  0.17571050239E+04  0.00000000000E+00 0.  1.
         22   -1    0    0    0    0 -0.00000000000E+00 -0.00000000000E+00 -0.10019542470E+03  0.10019542470E+03  0.00000000000E+00 0. -1.
        -24    2    1    2    0    0 -0.70622978724E+02 -0.63493845278E+02 -0.40459811398E+02  0.13010774364E+03  0.79195676044E+02 0.  0.
         25    2    1    2    0    0  0.72769542694E+02  0.83743456949E+02  0.50321112548E+03  0.53026094998E+03  0.12508743077E+03 0.  0.
         24    2    1    2    0    0 -0.21465639700E+01 -0.20249611671E+02  0.11941582851E+04  0.11969317549E+04  0.78847711833E+02 0.  0.
        -11    1    5    5    0    0 -0.11851597694E+02 -0.48941875152E+02  0.66223445389E+03  0.66414624853E+03  0.00000000000E+00 0.  1.
         12    1    5    5    0    0  0.97050337243E+01  0.28692263481E+02  0.53192383118E+03  0.53278550641E+03  0.00000000000E+00 0. -1.
         13    1    3    3    0    0 -0.56575828890E+02 -0.81436271796E+02 -0.24072643377E+02  0.10204010456E+03  0.00000000000E+00 0. -1.
        -14    1    3    3    0    0 -0.14047149834E+02  0.17942426519E+02 -0.16387168021E+02  0.28067639081E+02  0.00000000000E+00 0.  1.
          5    1    4    4  501    0  0.10274295856E+03  0.86601345252E+02  0.44072390088E+03  0.46077211042E+03  0.41800000000E+01 0. -1.
         -5    1    4    4    0  501 -0.29973415871E+02 -0.28578883029E+01  0.62487224604E+02  0.69488839559E+02  0.41800000000E+01 0. -1.
</event>
<event>
11    1  0.1021950E-008  0.1915546E+03  0.7561462E-02  0.1060662E+00
         22   -1    0    0    0    0  0.00000000000E+00  0.00000000000E+00  0.12111043390E+04  0.12111043390E+04  0.00000000000E+00 0. -1.
         22   -1    0    0    0    0 -0.00000000000E+00 -0.00000000000E+00 -0.15449847309E+03  0.15449847309E+03  0.00000000000E+00 0.  1.
        -24    2    1    2    0    0  0.29160170367E+02 -0.60446710306E+01 -0.73232447030E+02  0.11330007263E+03  0.81160714494E+02 0.  0.
         25    2    1    2    0    0 -0.13276414881E+03 -0.92793079055E+02  0.13758227703E+03  0.24660382623E+03  0.12509072480E+03 0.  0.
         24    2    1    2    0    0  0.10360397844E+03  0.98837750086E+02  0.99225603595E+03  0.10056989133E+04  0.79721879465E+02 0.  0.
        -13    1    5    5    0    0 -0.46182665543E+01 -0.95771137052E+01  0.57670842694E+02  0.58642779521E+02  0.00000000000E+00 0.  1.
         14    1    5    5    0    0  0.10822224500E+03  0.10841486379E+03  0.93458519326E+03  0.94705613374E+03  0.00000000000E+00 0. -1.
         11    1    3    3    0    0 -0.27378982747E+02 -0.45482214387E+01 -0.36525048750E+02  0.45873458565E+02  0.00000000000E+00 0. -1.
        -12    1    3    3    0    0  0.56539153115E+02 -0.14964495920E+01 -0.36707398281E+02  0.67426614069E+02  0.00000000000E+00 0.  1.
          5    1    4    4  501    0 -0.14226022002E+03 -0.10931992317E+03  0.13906186407E+03  0.22703411691E+03  0.41800000000E+01 0.  1.
         -5    1    4    4    0  501  0.94960712123E+01  0.16526844119E+02 -0.14795870422E+01  0.19569709319E+02  0.41800000000E+01 0.  1.
</event>
<event>
11    1  0.6625361E-009  0.1912550E+03  0.7561462E-02  0.1060886E+00
         22   -1    0    0    0    0  0.00000000000E+00  0.00000000000E+00  0.24306765784E+03  0.24306765784E+03  0.00000000000E+00 0.  1.
         22   -1    0    0    0    0 -0.00000000000E+00 -0.00000000000E+00 -0.16409474703E+04  0.16409474703E+04  0.00000000000E+00 0.  1.
         24    2    1    2    0    0 -0.77218891033E+02  0.78256531458E+01 -0.14593360104E+04  0.14636123817E+04  0.80471203786E+02 0.  0.
         25    2    1    2    0    0  0.49776034112E+02 -0.15038540938E+03 -0.65747229741E+02  0.21228400463E+03  0.12509346696E+03 0.  0.
        -24    2    1    2    0    0  0.27442856921E+02  0.14255975623E+03  0.12720342771E+03  0.20811874179E+03  0.77822260115E+02 0.  0.
        -11    1    3    3    0    0 -0.65030518746E+02  0.31851171055E+02 -0.12999794480E+04  0.13019946354E+04  0.00000000000E+00 0.  1.
         12    1    3    3    0    0 -0.12188372287E+02 -0.24025517909E+02 -0.15935656241E+03  0.16161774628E+03  0.00000000000E+00 0. -1.
         13    1    5    5    0    0  0.11580598101E+02  0.29292908485E+02 -0.65087328898E+01  0.32164395590E+02  0.00000000000E+00 0. -1.
        -14    1    5    5    0    0  0.15862258820E+02  0.11326684775E+03  0.13371216060E+03  0.17595434620E+03  0.00000000000E+00 0.  1.
          5    1    4    4  501    0 -0.21143785885E+02 -0.11939440842E+03 -0.22066215673E+02  0.12331453571E+03  0.41800000000E+01 0. -1.
         -5    1    4    4    0  501  0.70919819997E+02 -0.30991000954E+02 -0.43681014068E+02  0.88969468912E+02  0.41800000000E+01 0. -1.
</event>
<event>
11    1  0.6625361E-009  0.2422193E+03  0.7561462E-02  0.1028128E+00
         22   -1    0    0    0    0  0.00000000000E+00  0.00000000000E+00  0.63312625299E+03  0.63312625299E+03  0.00000000000E+00 0.  1.
         22   -1    0    0    0    0 -0.00000000000E+00 -0.00000000000E+00 -0.70920169348E+03  0.70920169348E+03  0.00000000000E+00 0.  1.
        -24    2    1    2    0    0  0.56152920653E+02 -0.96584187245E+01 -0.56298752566E+03  0.57155476382E+03  0.80457805411E+02 0.  0.
         25    2    1    2    0    0  0.15220163790E+03 -0.52247713348E+02 -0.28215183598E+02  0.20576487092E+03  0.12509165996E+03 0.  0.
         24    2    1    2    0    0 -0.20835455855E+03  0.61906132073E+02  0.51512726877E+03  0.56500831173E+03  0.81451200356E+02 0.  0.
        -11    1    5    5    0    0 -0.18216831664E+03  0.73901879539E+02  0.48500068636E+03  0.52332824227E+03  0.00000000000E+00 0.  1.
         12    1    5    5    0    0 -0.26186241910E+02 -0.11995747467E+02  0.30126582404E+02  0.41680069458E+02  0.00000000000E+00 0. -1.
         11    1    3    3    0    0  0.20932231674E+02 -0.32527446441E+02 -0.10957804773E+03  0.11620474018E+03  0.00000000000E+00 0. -1.
        -12    1    3    3    0    0  0.35220688980E+02  0.22869027717E+02 -0.45340947792E+03  0.45535002364E+03  0.00000000000E+00 0.  1.
          5    1    4    4  501    0  0.14736516198E+03 -0.64612998454E+02 -0.59433146782E+02  0.17158409562E+03  0.41800000000E+01 0. -1.
         -5    1    4    4    0  501  0.48364759237E+01  0.12365285105E+02  0.31217963183E+02  0.34180775304E+02  0.41800000000E+01 0. -1.
</event>
<event>
11    1  0.6625361E-009  0.3123672E+03  0.7561462E-02  0.9950889E-01
         22   -1    0    0    0    0  0.00000000000E+00  0.00000000000E+00  0.19785129033E+04  0.19785129033E+04  0.00000000000E+00 0.  1.
         22   -1    0    0    0    0 -0.00000000000E+00 -0.00000000000E+00 -0.25352783593E+04  0.25352783593E+04  0.00000000000E+00 0. -1.
         24    2    1    2    0    0 -0.80722682213E+02  0.56126050945E+02 -0.17007531275E+04  0.17054439678E+04  0.79445841005E+02 0.  0.
         25    2    1    2    0    0 -0.18049838462E+03 -0.17479461670E+03 -0.79678530927E+03  0.84477669437E+03  0.12509200373E+03 0.  0.
        -24    2    1    2    0    0  0.26122106683E+03  0.11866856575E+03  0.19407729808E+04  0.19635706003E+04  0.81798932216E+02 0.  0.
        -11    1    3    3    0    0  0.11551110330E+02  0.55868541626E+01 -0.47826345811E+03  0.47843555099E+03  0.00000000000E+00 0.  1.
         12    1    3    3    0    0 -0.92273792543E+02  0.50539196783E+02 -0.12224896694E+04  0.12270084168E+04  0.00000000000E+00 0. -1.
         11    1    5    5    0    0  0.15225268893E+03  0.61639765812E+02  0.83687289345E+03  0.85284030264E+03  0.00000000000E+00 0. -1.
        -12    1    5    5    0    0  0.10896837790E+03  0.57028799940E+02  0.11039000873E+04  0.11107302977E+04  0.00000000000E+00 0.  1.
          5    1    4    4  501    0 -0.19656858703E+03 -0.16715028580E+03 -0.69502769340E+03  0.74139017692E+03  0.41800000000E+01 0.  1.
         -5    1    4    4    0  501  0.16070202412E+02 -0.76443308980E+01 -0.10175761588E+03  0.10338651744E+03  0.41800000000E+01 0.  1.
</event>
<event>
11    1  0.6625361E-009  0.1355593E+03  0.7561462E-02  0.1112621E+00
         22   -1    0    0    0    0  0.00000000000E+00  0.00000000000E+00  0.32331594800E+03  0.32331594800E+03  0.00000000000E+00 0.  1.
         22   -1    0    0    0    0 -0.00000000000E+00 -0.00000000000E+00 -0.22749191187E+03  0.22749191187E+03  0.00000000000E+00 0. -1.
         24    2    1    2    0    0 -0.27640287447E+02 -0.44300580719E+02 -0.17445327008E+03  0.19893874028E+03  0.80100886393E+02 0.  0.
         25    2    1    2    0    0  0.24845773483E+02  0.46502295117E+02  0.11282192688E+03  0.17650811128E+03  0.12508617131E+03 0.  0.
        -24    2    1    2    0    0  0.27945139643E+01 -0.22017143984E+01  0.15745537933E+03  0.17536100831E+03  0.77114394913E+02 0.  0.
        -13    1    3    3    0    0  0.40727562813E+01  0.81230130321E+01  0.42443853433E+01  0.10029231844E+02  0.00000000000E+00 0.  1.
         14    1    3    3    0    0 -0.31713043728E+02 -0.52423593751E+02 -0.17869765542E+03  0.18890950843E+03  0.00000000000E+00 0. -1.
         11    1    5    5    0    0 -0.98333976695E+00 -0.38268309370E+02  0.57938969624E+02  0.69443175764E+02  0.00000000000E+00 0. -1.
        -12    1    5    5    0    0  0.37778537312E+01  0.36066594971E+02  0.99516409704E+02  0.10591783255E+03  0.00000000000E+00 0.  1.
          5    1    4    4  501    0 -0.13575655602E+02  0.26380525212E+02 -0.20462337148E+02  0.36282367302E+02  0.41800000000E+01 0. -1.
         -5    1    4    4    0  501  0.38421429085E+02  0.20121769905E+02  0.13328426403E+03  0.14022574398E+03  0.41800000000E+01 0. -1.
</event>
<event>
11    1  0.6625361E-009  0.1367374E+03  0.7561462E-02  0.1111257E+00
         22   -1    0    0    0    0  0.00000000000E+00  0.00000000000E+00  0.20236608453E+03  0.20236608453E+03  0.00000000000E+00 0. -1.
         22   -1    0    0    0    0 -0.00000000000E+00 -0.00000000000E+00 -0.29068780114E+03  0.29068780114E+03  0.00000000000E+00 0. -1.
         24    2    1    2    0    0 -0.22497959762E+02  0.24585798620E+02 -0.18322125458E+03  0.20266055344E+03  0.79941554303E+02 0.  0.
         25    2    1    2    0    0 -0.17017988665E+02 -0.61380473545E+02  0.10569733000E+02  0.14077052725E+03  0.12508975824E+03 0.  0.
        -24    2    1    2    0    0  0.39515948427E+02  0.36794674925E+02  0.84329804970E+02  0.14962280497E+03  0.11117602925E+03 0.  0.
        -13    1    3    3    0    0  0.27462866115E+02 -0.50646253032E+01 -0.48872761843E+02  0.56288598266E+02  0.00000000000E+00 0.  1.
         14    1    3    3    0    0 -0.49960825876E+02  0.29650423923E+02 -0.13434849274E+03  0.14637195517E+03  0.00000000000E+00 0. -1.
         11    1    5    5    0    0  0.75807169361E+02  0.39532102707E+02  0.70046055720E+02  0.11052585215E+03  0.00000000000E+00 0. -1.
        -12    1    5    5    0    0 -0.36291220934E+02 -0.27374277813E+01  0.14283749250E+02  0.39096952827E+02  0.00000000000E+00 0.  1.
          5    1    4    4  501    0 -0.12194474658E+02  0.14565669954E+02  0.50938307654E+02  0.54525659465E+02  0.41800000000E+01 0. -1.
         -5    1    4    4    0  501 -0.48235140074E+01 -0.75946143499E+02 -0.40368574654E+02  0.86244867786E+02  0.41800000000E+01 0. -1.
</event>
<event>
11    1  0.6625361E-009  0.2324653E+03  0.7561462E-02  0.1033678E+00
         22   -1    0    0    0    0  0.00000000000E+00  0.00000000000E+00  0.18540960316E+04  0.18540960316E+04  0.00000000000E+00 0. -1.
         22   -1    0    0    0    0 -0.00000000000E+00 -0.00000000000E+00 -0.12995507672E+04  0.12995507672E+04  0.00000000000E+00 0.  1.
        -24    2    1    2    0    0  0.13803571350E+03 -0.13203903175E+03 -0.11106652160E+04  0.11298374394E+04  0.80419235792E+02 0.  0.
         25    2    1    2    0    0 -0.18775713241E+03  0.17089715519E+03 -0.65122946866E+02  0.29042347299E+03  0.12508483933E+03 0.  0.
         24    2    1    2    0    0  0.49721418906E+02 -0.38858123445E+02  0.17303334272E+04  0.17333858864E+04  0.81183057492E+02 0.  0.
        -13    1    5    5    0    0  0.21365172088E+02 -0.61864653818E+02  0.12138634969E+04  0.12156267088E+04  0.00000000000E+00 0.  1.
         14    1    5    5    0    0  0.28356246817E+02  0.23006530372E+02  0.51646993026E+03  0.51775917765E+03  0.00000000000E+00 0. -1.
         11    1    3    3    0    0 -0.96584462582E+01 -0.78973115196E+01 -0.39124734077E+02  0.41065775652E+02  0.00000000000E+00 0. -1.
        -12    1    3    3    0    0  0.14769415976E+03 -0.12414172023E+03 -0.10715404819E+04  0.10887716638E+04  0.00000000000E+00 0.  1.
          5    1    4    4  501    0 -0.44718842169E+02  0.12260782552E+03 -0.15704532839E+02  0.13151638101E+03  0.41800000000E+01 0.  1.
         -5    1    4    4    0  501 -0.14303829024E+03  0.48289329676E+02 -0.49418414028E+02  0.15890709198E+03  0.41800000000E+01 0.  1.
</event>
<event>
11    1  0.6625361E-009  0.1914842E+03  0.7561462E-02  0.1060714E+00
         22   -1    0    0    0    0  0.00000000000E+00  0.00000000000E+00  0.43927429744E+03  0.43927429744E+03  0.00000000000E+00 0.  1.
         22   -1    0    0    0    0 -0.00000000000E+00 -0.00000000000E+00 -0.31968190002E+03  0.31968190002E+03  0.00000000000E+00 0. -1.
         24    2    1    2    0    0 -0.39608890248E+02  0.38539010735E+02 -0.15672413503E+03  0.18647748720E+03  0.84600704466E+02 0.  0.
         25    2    1    2    0    0  0.15529990330E+02 -0.17709664061E+03 -0.35838681145E+02  0.22030893964E+03  0.12508883686E+03 0.  0.
        -24    2    1    2    0    0  0.24078899919E+02  0.13855762987E+03  0.31215521360E+03  0.35216977061E+03  0.82490361476E+02 0.  0.
        -13    1    3    3    0    0  0.19747280901E+02  0.12579187421E+02 -0.88423901969E+01  0.25027563276E+02  0.00000000000E+00 0.  1.
         14    1    3    3    0    0 -0.59356171149E+02  0.25959823314E+02 -0.14788174484E+03  0.16144992393E+03  0.00000000000E+00 0. -1.
         11    1    5    5    0    0 -0.24863163348E+02  0.12593261677E+02  0.50739498368E+02  0.57890101278E+02  0.00000000000E+00 0. -1.
        -12    1    5    5    0    0  0.48942063266E+02  0.12596436820E+03  0.26141571523E+03  0.29427966933E+03  0.00000000000E+00 0.  1.
          5    1    4    4  501    0 -0.74128088984E+01 -0.16449146312E+03 -0.68375828167E+02  0.17833989305E+03  0.41800000000E+01 0. -1.
         -5    1    4    4    0  501  0.22942799228E+02 -0.12605177492E+02  0.32537147022E+02  0.41969046598E+02  0.41800000000E+01 0. -1.
</event>
<event>
11    1  0.6625361E-009  0.1351573E+03  0.7561462E-02  0.1113090E+00
         22   -1    0    0    0    0  0.00000000000E+00  0.00000000000E+00  0.34001322606E+02  0.34001322606E+02  0.00000000000E+00 0.  1.
         22   -1    0    0    0    0 -0.00000000000E+00 -0.00000000000E+00 -0.17715400654E+04  0.17715400654E+04  0.00000000000E+00 0.  1.
         24    2    1    2    0    0  0.28163765370E+02  0.48719825465E+02 -0.94965930663E+03  0.95473065071E+03  0.80566728023E+02 0.  0.
         25    2    1    2    0    0  0.53822890415E+01 -0.45829212955E+02 -0.73844096752E+03  0.75038092968E+03  0.12508873382E+03 0.  0.
        -24    2    1    2    0    0 -0.33546054411E+02 -0.28906125108E+01 -0.49438468625E+02  0.10042980759E+03  0.80673977624E+02 0.  0.
        -13    1    3    3    0    0  0.36679908103E+02  0.65154251375E+02 -0.85603581841E+03  0.85929495200E+03  0.00000000000E+00 0.  1.
         14    1    3    3    0    0 -0.85161427335E+01 -0.16434425910E+02 -0.93623488218E+02  0.95435698710E+02  0.00000000000E+00 0. -1.
         11    1    5    5    0    0 -0.17935898286E+02  0.38404440881E+02 -0.17100119546E+02  0.45705706594E+02  0.00000000000E+00 0. -1.
        -12    1    5    5    0    0 -0.15610156125E+02 -0.41295053392E+02 -0.32338349079E+02  0.54724100998E+02  0.00000000000E+00 0.  1.
          5    1    4    4  501    0  0.63650090602E+02 -0.31544593464E+02 -0.33429754913E+03  0.34178753513E+03  0.41800000000E+01 0. -1.
         -5    1    4    4    0  501 -0.58267801560E+02 -0.14284619491E+02 -0.40414341838E+03  0.40859339456E+03  0.41800000000E+01 0. -1.
</event>
<event>
11    1  0.6625361E-009  0.1291190E+03  0.7561462E-02  0.1120356E+00
         22   -1    0    0    0    0  0.00000000000E+00  0.00000000000E+00  0.14415597549E+04  0.14415597549E+04  0.00000000000E+00 0.  1.
         22   -1    0    0    0    0 -0.00000000000E+00 -0.00000000000E+00 -0.28829356049E+03  0.28829356049E+03  0.00000000000E+00 0.  1.
         24    2    1    2    0    0 -0.11669498053E+02  0.12220901091E+02 -0.22652966150E+03  0.24089868716E+03  0.80193281064E+02 0.  0.
         25    2    1    2    0    0  0.23296885945E+02 -0.41624025800E+02  0.30920702344E+02  0.13740053114E+03  0.12509001441E+03 0.  0.
        -24    2    1    2    0    0 -0.11627387893E+02  0.29403124708E+02  0.13488751536E+04  0.13515540971E+04  0.78959214361E+02 0.  0.
        -11    1    3    3    0    0 -0.30419394329E+02 -0.73451359116E+01 -0.20179871160E+03  0.20421070143E+03  0.00000000000E+00 0.  1.
         12    1    3    3    0    0  0.18749896276E+02  0.19566037003E+02 -0.24730949901E+02  0.36687985736E+02  0.00000000000E+00 0. -1.
         13    1    5    5    0    0  0.12085541104E+02 -0.21975176741E+02  0.25913629567E+03  0.26034705382E+03  0.00000000000E+00 0. -1.
        -14    1    5    5    0    0 -0.23712928996E+02  0.51378301449E+02  0.10897388579E+04  0.10912070433E+04  0.00000000000E+00 0.  1.
          5    1    4    4  501    0  0.46266252620E+02 -0.69106125900E+01 -0.35520908335E+02  0.58885737041E+02  0.41800000000E+01 0.  1.
         -5    1    4    4    0  501 -0.22969366675E+02 -0.34713413210E+02  0.66441610679E+02  0.78514794095E+02  0.41800000000E+01 0.  1.
</event>
<event>
11    1  0.6625361E-009  0.1298108E+03  0.7561462E-02  0.1119502E+00
         22   -1    0    0    0    0  0.00000000000E+00  0.00000000000E+00  0.36779275067E+03  0.36779275067E+03  0.00000000000E+00 0.  1.
         22   -1    0    0    0    0 -0.00000000000E+00 -0.00000000000E+00 -0.65356325010E+03  0.65356325010E+03  0.00000000000E+00 0.  1.
        -24    2    1    2    0    0  0.23218588124E+02 -0.27077977756E+02 -0.52492621872E+03  0.53213893072E+03  0.79699352416E+02 0.  0.
         25    2    1    2    0    0 -0.25292895834E+02  0.11265463874E+02 -0.85709678280E+02  0.15414757973E+03  0.12509470865E+03 0.  0.
         24    2    1    2    0    0  0.20743077102E+01  0.15812513882E+02  0.32486539757E+03  0.33506949032E+03  0.80496574190E+02 0.  0.
        -13    1    5    5    0    0 -0.10272845529E+02  0.27438381072E+02  0.31300804633E+03  0.31437626052E+03  0.00000000000E+00 0.  1.
         14    1    5    5    0    0  0.12347153239E+02 -0.11625867190E+02  0.11857351238E+02  0.20693229796E+02  0.00000000000E+00 0. -1.
         13    1    3    3    0    0 -0.61782771088E+01 -0.23863964419E+02 -0.45057551180E+02  0.51359934036E+02  0.00000000000E+00 0. -1.
        -14    1    3    3    0    0  0.29396865233E+02 -0.32140133375E+01 -0.47986866754E+03  0.48077899669E+03  0.00000000000E+00 0.  1.
          5    1    4    4  501    0  0.43278485923E+02 -0.49405460136E+01 -0.68846860213E+02  0.81576950788E+02  0.41800000000E+01 0. -1.
         -5    1    4    4    0  501 -0.68571381757E+02  0.16206009888E+02 -0.16862818068E+02  0.72570628947E+02  0.41800000000E+01 0. -1.
</event>
<event>
11    1  0.6625361E-009  0.1753204E+03  0.7561462E-02  0.1073492E+00
         22   -1    0    0    0    0  0.00000000000E+00  0.00000000000E+00  0.17921839709E+03  0.17921839709E+03  0.00000000000E+00 0.  1.
         22   -1    0    0    0    0 -0.00000000000E+00 -0.00000000000E+00 -0.12927658848E+04  0.12927658848E+04  0.00000000000E+00 0. -1.
        -24    2    1    2    0    0 -0.12541696156E+03  0.19193374120E+02 -0.11822244282E+04  0.11918307035E+04  0.81902548153E+02 0.  0.
         25    2    1    2    0    0  0.71688102296E+02  0.36167088407E+01 -0.20862898382E+02  0.14572217726E+03  0.12508967913E+03 0.  0.
         24    2    1    2    0    0  0.53728859262E+02 -0.22810082961E+02  0.89539838873E+02  0.13443140108E+03  0.81531151407E+02 0.  0.
        -13    1    5    5    0    0  0.46785812632E+02  0.57965987722E+01  0.93515843584E+02  0.10472691069E+03  0.00000000000E+00 0.  1.
         14    1    5    5    0    0  0.69430466299E+01 -0.28606681733E+02 -0.39760047106E+01  0.29704490397E+02  0.00000000000E+00 0. -1.
         11    1    3    3    0    0 -0.76842532325E+02  0.48121255957E+02 -0.59170291582E+03  0.59860902987E+03  0.00000000000E+00 0. -1.
        -12    1    3    3    0    0 -0.48574429233E+02 -0.28927881837E+02 -0.59052151233E+03  0.59322167362E+03  0.00000000000E+00 0.  1.
          5    1    4    4  501    0  0.65347313466E+02 -0.43645231533E+02  0.21740015970E+02  0.81641155719E+02  0.41800000000E+01 0. -1.
         -5    1    4    4    0  501  0.63407888299E+01  0.47261940373E+02 -0.42602914352E+02  0.64081021544E+02  0.41800000000E+01 0. -1.
</event>
<event>
11    1  0.6625361E-009  0.2989235E+03  0.7561462E-02  0.1000648E+00
         22   -1    0    0    0    0  0.00000000000E+00  0.00000000000E+00  0.14473416762E+03  0.14473416762E+03  0.00000000000E+00 0. -1.
         22   -1    0    0    0    0 -0.00000000000E+00 -0.00000000000E+00 -0.48335952762E+03  0.48335952762E+03  0.00000000000E+00 0. -1.
        -24    2    1    2    0    0 -0.66910430424E+02 -0.13125961033E+03 -0.21804093179E+03  0.27525628669E+03  0.80734654411E+02 0.  0.
         25    2    1    2    0    0  0.36958238137E+02  0.72335938082E+01 -0.15088624498E+03  0.19957263812E+03  0.12507734694E+03 0.  0.
         24    2    1    2    0    0  0.29952192287E+02  0.12402601652E+03  0.30301816771E+02  0.15326477044E+03  0.79324038984E+02 0.  0.
        -13    1    5    5    0    0  0.69587529164E+01  0.11616659627E+03  0.25838940122E+01  0.11640351730E+03  0.00000000000E+00 0.  1.
         14    1    5    5    0    0  0.22993439371E+02  0.78594202478E+01  0.27717922758E+02  0.36861253136E+02  0.00000000000E+00 0. -1.
         13    1    3    3    0    0 -0.47325440992E+02 -0.13847912825E+03 -0.19889611231E+03  0.24693284476E+03  0.00000000000E+00 0. -1.
        -14    1    3    3    0    0 -0.19584989433E+02  0.72195179225E+01 -0.19144819477E+02  0.28323441933E+02  0.00000000000E+00 0.  1.
          5    1    4    4  501    0 -0.19921833673E+02  0.19283060174E+02  0.89545575249E+01  0.29434204032E+02  0.41800000000E+01 0.  1.
         -5    1    4    4    0  501  0.56880071810E+02 -0.12049466365E+02 -0.15984080250E+03  0.17013843408E+03  0.41800000000E+01 0.  1.
</event>
<event>
11    1  0.6625361E-009  0.1518689E+03  0.7561462E-02  0.1094984E+00
         22   -1    0    0    0    0  0.00000000000E+00  0.00000000000E+00  0.62220585677E+03  0.62220585677E+03  0.00000000000E+00 0. -1.
         22   -1    0    0    0    0 -0.00000000000E+00 -0.00000000000E+00 -0.37617554074E+03  0.37617554074E+03  0.00000000000E+00 0. -1.
         24    2    1    2    0    0 -0.46760031151E+02 -0.66212435161E+02 -0.27016687740E+03  0.29294504322E+03  0.79095319820E+02 0.  0.
         25    2    1    2    0    0  0.32689780413E+02  0.13291997612E+03  0.70806678249E+01  0.18556177541E+03  0.12508674927E+03 0.  0.
        -24    2    1    2    0    0  0.14070250739E+02 -0.66707540955E+02  0.50911652560E+03  0.51987457888E+03  0.80137838447E+02 0.  0.
        -13    1    3    3    0    0 -0.28501319355E+02 -0.35125716118E+02 -0.41287856995E+02  0.61244006016E+02  0.00000000000E+00 0.  1.
         14    1    3    3    0    0 -0.18258711797E+02 -0.31086719043E+02 -0.22887902041E+03  0.23170103720E+03  0.00000000000E+00 0. -1.
         13    1    5    5    0    0  0.45296950634E+02 -0.56319655555E+02  0.34408636398E+03  0.35159514105E+03  0.00000000000E+00 0. -1.
        -14    1    5    5    0    0 -0.31226699896E+02 -0.10387885400E+02  0.16503016163E+03  0.16827943783E+03  0.00000000000E+00 0.  1.
          5    1    4    4  501    0  0.23677843218E+02  0.15367422363E+02  0.52010312440E+02  0.59324050179E+02  0.41800000000E+01 0.  1.
         -5    1    4    4    0  501  0.90119371945E+01  0.11755255375E+03 -0.44929644615E+02  0.12623772523E+03  0.41800000000E+01 0.  1.
</event>
<event>
11    1  0.6625361E-009  0.1552991E+03  0.7561462E-02  0.1091584E+00
         22   -1    0    0    0    0  0.00000000000E+00  0.00000000000E+00  0.42605239267E+03  0.42605239267E+03  0.00000000000E+00 0.  1.
         22   -1    0    0    0    0 -0.00000000000E+00 -0.00000000000E+00 -0.70685820877E+03  0.70685820877E+03  0.00000000000E+00 0.  1.
        -24    2    1    2    0    0 -0.71556868553E+02 -0.48827687545E+02 -0.55798120641E+03  0.57031502196E+03  0.80072898385E+02 0.  0.
         25    2    1    2    0    0  0.11822747501E+03  0.11284289637E+03 -0.53885473116E+02  0.21275350799E+03  0.12509658606E+03 0.  0.
         24    2    1    2    0    0 -0.46670606454E+02 -0.64015208823E+02  0.33106086343E+03  0.34984207149E+03  0.80697504404E+02 0.  0.
        -13    1    5    5    0    0 -0.46732222768E+02  0.19697146192E+01  0.12440782201E+03  0.13291006959E+03  0.00000000000E+00 0.  1.
         14    1    5    5    0    0  0.61616313242E-01 -0.65984923442E+02  0.20665304142E+03  0.21693200190E+03  0.00000000000E+00 0. -1.
         13    1    3    3    0    0 -0.80452377510E+01  0.17989343254E+02 -0.45137371824E+02  0.49251646230E+02  0.00000000000E+00 0. -1.
        -14    1    3    3    0    0 -0.63511630802E+02 -0.66817030799E+02 -0.51284383459E+03  0.52106337573E+03  0.00000000000E+00 0.  1.
          5    1    4    4  501    0  0.55461745118E+01  0.11392027030E+02  0.34646587419E+02  0.37126765970E+02  0.41800000000E+01 0. -1.
         -5    1    4    4    0  501  0.11268130050E+03  0.10145086934E+03 -0.88532060535E+02  0.17562674202E+03  0.41800000000E+01 0. -1.
</event>
<event>
11    1  0.6625361E-009  0.1386957E+03  0.7561462E-02  0.1109024E+00
         22   -1    0    0    0    0  0.00000000000E+00  0.00000000000E+00  0.17820944628E+04  0.17820944628E+04  0.00000000000E+00 0. -1.
         22   -1    0    0    0    0 -0.00000000000E+00 -0.00000000000E+00 -0.47753937726E+03  0.47753937726E+03  0.00000000000E+00 0.  1.
         24    2    1    2    0    0 -0.28712547941E+02 -0.52548192904E+02 -0.46329460436E+03  0.47402653945E+03  0.80458353776E+02 0.  0.
         25    2    1    2    0    0  0.55242706092E+02  0.41991702290E+02  0.70908505752E+03  0.72337011577E+03  0.12509055104E+03 0.  0.
        -24    2    1    2    0    0 -0.26530158150E+02  0.10556490614E+02  0.10587646324E+04  0.10622371848E+04  0.80932078238E+02 0.  0.
        -11    1    3    3    0    0 -0.18473455372E+00 -0.41565176379E+02 -0.41359460183E+03  0.41567799157E+03  0.00000000000E+00 0.  1.
         12    1    3    3    0    0 -0.28527813388E+02 -0.10983016525E+02 -0.49700002531E+02  0.58348547884E+02  0.00000000000E+00 0. -1.
         13    1    5    5    0    0 -0.41038364780E+01 -0.59089233806E+01  0.94815177526E+03  0.94817906842E+03  0.00000000000E+00 0. -1.
        -14    1    5    5    0    0 -0.22426321672E+02  0.16465413995E+02  0.11061285709E+03  0.11405811639E+03  0.00000000000E+00 0.  1.
          5    1    4    4  501    0  0.40778218474E+02 -0.25601779774E+02  0.51570339571E+03  0.51796310581E+03  0.41800000000E+01 0. -1.
         -5    1    4    4    0  501  0.14464487618E+02  0.67593482063E+02  0.19338166181E+03  0.20540700996E+03  0.41800000000E+01 0. -1.
</event>
<event>
11    1  0.6625361E-009  0.2035302E+03  0.7561462E-02  0.1052055E+00
         22   -1    0    0    0    0  0.00000000000E+00  0.00000000000E+00  0.14733735456E+04  0.14733735456E+04  0.00000000000E+00 0. -1.
         22   -1    0    0    0    0 -0.00000000000E+00 -0.00000000000E+00 -0.19218056548E+03  0.19218056548E+03  0.00000000000E+00 0. -1.
         24    2    1    2    0    0  0.11503999020E+03 -0.10751145787E+03 -0.85389137751E+02  0.19947107724E+03  0.87775240761E+02 0.  0.
         25    2    1    2    0    0 -0.72584998235E+02  0.17438264056E+03  0.22611833608E+03  0.32008606965E+03  0.12509077813E+03 0.  0.
        -24    2    1    2    0    0 -0.42454991968E+02 -0.66871182689E+02  0.11404637818E+04  0.11459969642E+04  0.79857516503E+02 0.  0.
        -13    1    3    3    0    0  0.20585022367E+02 -0.51226784584E+02  0.72660393231E+01  0.55684126393E+02  0.00000000000E+00 0.  1.
         14    1    3    3    0    0  0.94454967835E+02 -0.56284673288E+02 -0.92655177074E+02  0.14378695085E+03  0.00000000000E+00 0. -1.
         11    1    5    5    0    0 -0.63597962402E+02 -0.55706806836E+02  0.99456484768E+03  0.99815188493E+03  0.00000000000E+00 0. -1.
        -12    1    5    5    0    0  0.21142970435E+02 -0.11164375854E+02  0.14589893412E+03  0.14784507927E+03  0.00000000000E+00 0.  1.
          5    1    4    4  501    0  0.26622198725E+02  0.89144435167E+02  0.11809731560E+03  0.15039920259E+03  0.41800000000E+01 0.  1.
         -5    1    4    4    0  501 -0.99207196960E+02  0.85238205395E+02  0.10802102048E+03  0.16968686706E+03  0.41800000000E+01 0.  1.
</event>
<event>
11    1  0.6625361E-009  0.1352861E+03  0.7561462E-02  0.1112939E+00
         22   -1    0    0    0    0  0.00000000000E+00  0.00000000000E+00  0.12334256103E+03  0.12334256103E+03  0.00000000000E+00 0. -1.
         22   -1    0    0    0    0 -0.00000000000E+00 -0.00000000000E+00 -0.69200265389E+03  0.69200265389E+03  0.00000000000E+00 0.  1.
         24    2    1    2    0    0  0.46650934757E+02  0.25983178188E+02 -0.52668177266E+03  0.53566744122E+03  0.81819818290E+02 0.  0.
         25    2    1    2    0    0 -0.15346494972E+02 -0.47618638565E+02 -0.10471573472E+03  0.17062831479E+03  0.12508232115E+03 0.  0.
        -24    2    1    2    0    0 -0.31304439786E+02  0.21635460376E+02  0.62737414518E+02  0.10904945891E+03  0.80670565955E+02 0.  0.
        -11    1    3    3    0    0  0.23802737061E+02 -0.16393698930E+02 -0.38392004144E+03  0.38500639200E+03  0.00000000000E+00 0.  1.
         12    1    3    3    0    0  0.22848197696E+02  0.42376877119E+02 -0.14276173122E+03  0.15066104923E+03  0.00000000000E+00 0. -1.
         13    1    5    5    0    0 -0.33078360241E+02 -0.17808730385E+02  0.58246563871E+02  0.69310828858E+02  0.00000000000E+00 0. -1.
        -14    1    5    5    0    0  0.17739204551E+01  0.39444190762E+02  0.44908506466E+01  0.39738630049E+02  0.00000000000E+00 0.  1.
          5    1    4    4  501    0 -0.56345657035E+02 -0.42293032179E+02 -0.10792221131E+03  0.12895041579E+03  0.41800000000E+01 0.  1.
         -5    1    4    4    0  501  0.40999162063E+02 -0.53256063856E+01  0.32064765894E+01  0.41677899004E+02  0.41800000000E+01 0.  1.
</event>
<event>
11    1  0.6625361E-009  0.1279315E+03  0.7561462E-02  0.1121837E+00
         22   -1    0    0    0    0  0.00000000000E+00  0.00000000000E+00  0.10565860062E+04  0.10565860062E+04  0.00000000000E+00 0. -1.
         22   -1    0    0    0    0 -0.00000000000E+00 -0.00000000000E+00 -0.15935066410E+03  0.15935066410E+03  0.00000000000E+00 0. -1.
        -24    2    1    2    0    0 -0.22419291714E+02 -0.18360543094E+02 -0.95521431067E+02  0.12771982756E+03  0.79676071529E+02 0.  0.
         25    2    1    2    0    0 -0.31780357874E+01  0.25904160516E+02  0.42923282847E+02  0.13478529387E+03  0.12507414517E+03 0.  0.
         24    2    1    2    0    0  0.25597327501E+02 -0.75436174213E+01  0.94983349034E+03  0.95343154890E+03  0.78332175523E+02 0.  0.
        -11    1    5    5    0    0  0.12223970880E+02  0.35437231925E+02  0.39473061201E+03  0.39650659380E+03  0.00000000000E+00 0.  1.
         12    1    5    5    0    0  0.13373356621E+02 -0.42980849346E+02  0.55510287834E+03  0.55692495510E+03  0.00000000000E+00 0. -1.
         11    1    3    3    0    0 -0.33710891309E+02 -0.44191075092E+02 -0.53705387936E+02  0.77288705540E+02  0.00000000000E+00 0. -1.
        -12    1    3    3    0    0  0.11291599595E+02  0.25830531998E+02 -0.41816043132E+02  0.50431122017E+02  0.00000000000E+00 0.  1.
          5    1    4    4  501    0 -0.13611085111E+02  0.89091665602E+01  0.85739002452E+02  0.87368666169E+02  0.41800000000E+01 0. -1.
         -5    1    4    4    0  501  0.10433049324E+02  0.16994993955E+02 -0.42815719605E+02  0.47416627706E+02  0.41800000000E+01 0. -1.
</event>
<event>
11    1  0.6625361E-009  0.2477666E+03  0.7561462E-02  0.1025096E+00
         22   -1    0    0    0    0  0.00000000000E+00  0.00000000000E+00  0.14866339875E+04  0.14866339875E+04  0.00000000000E+00 0.  1.
         22   -1    0    0    0    0 -0.00000000000E+00 -0.00000000000E+00 -0.35955476839E+03  0.35955476839E+03  0.00000000000E+00 0. -1.
        -24    2    1    2    0    0  0.45383692030E+01  0.12930904129E+02 -0.21350696130E+03  0.22868082316E+03  0.80758227321E+02 0.  0.
         25    2    1    2    0    0 -0.37186382418E+02  0.19928146157E+03 -0.18783151895E+02  0.23894757872E+03  0.12508881092E+03 0.  0.
         24    2    1    2    0    0  0.32648013215E+02 -0.21221236570E+03  0.13593693323E+04  0.13785603540E+04  0.80272580007E+02 0.  0.
        -11    1    5    5    0    0  0.25417394613E+02 -0.21796131394E+03  0.13204742734E+04  0.13385833874E+04  0.00000000000E+00 0.  1.
         12    1    5    5    0    0  0.72306186015E+01  0.57489482449E+01  0.38895058857E+02  0.39976966553E+02  0.00000000000E+00 0. -1.
         13    1    3    3    0    0  0.34612552911E+02 -0.15365297030E+02 -0.73090346725E+02  0.82318405938E+02  0.00000000000E+00 0. -1.
        -14    1    3    3    0    0 -0.30074183708E+02  0.28296201159E+02 -0.14041661458E+03  0.14636241722E+03  0.00000000000E+00 0.  1.
          5    1    4    4  501    0 -0.45479244223E+02  0.12162915903E+03  0.45556860844E+02  0.13767684609E+03  0.41800000000E+01 0. -1.
         -5    1    4    4    0  501  0.82928618048E+01  0.77652302543E+02 -0.64340012739E+02  0.10127073263E+03  0.41800000000E+01 0. -1.
</event>
<event>
11    1  0.6625361E-009  0.1297706E+03  0.7561462E-02  0.1119551E+00
         22   -1    0    0    0    0  0.00000000000E+00  0.00000000000E+00  0.27446829414E+04  0.27446829414E+04  0.00000000000E+00 0.  1.
         22   -1    0    0    0    0 -0.00000000000E+00 -0.00000000000E+00 -0.39885032713E+03  0.39885032713E+03  0.00000000000E+00 0. -1.
         24    2    1    2    0    0  0.43059828280E+02 -0.20581298302E+02 -0.38590588252E+03  0.39464313400E+03  0.67395210468E+02 0.  0.
         25    2    1    2    0    0 -0.61360188913E+02  0.44370283227E+02  0.68795087215E+03  0.70332050259E+03  0.12509808972E+03 0.  0.
        -24    2    1    2    0    0  0.18300360634E+02 -0.23788984925E+02  0.20437876246E+04  0.20455696319E+04  0.79915239551E+02 0.  0.
        -11    1    3    3    0    0  0.53952249488E+02 -0.38874655246E+01 -0.18485869104E+03  0.19261021070E+03  0.00000000000E+00 0.  1.
         12    1    3    3    0    0 -0.10892421208E+02 -0.16693832778E+02 -0.20104719149E+03  0.20203292330E+03  0.00000000000E+00 0. -1.
         11    1    5    5    0    0  0.34716904925E+02 -0.28371860797E+02  0.59686312756E+03  0.59854475105E+03  0.00000000000E+00 0. -1.
        -12    1    5    5    0    0 -0.16416544292E+02  0.45828758722E+01  0.14469244971E+04  0.14470248809E+04  0.00000000000E+00 0.  1.
          5    1    4    4  501    0  0.11249866226E+02 -0.31981603178E+02  0.27523676562E+03  0.27734839459E+03  0.41800000000E+01 0. -1.
         -5    1    4    4    0  501 -0.72610055139E+02  0.76351886406E+02  0.41271410652E+03  0.42597210800E+03  0.41800000000E+01 0. -1.
</event>
<event>
11    1  0.6625361E-009  0.1724682E+03  0.7561462E-02  0.1075904E+00
         22   -1    0    0    0    0  0.00000000000E+00  0.00000000000E+00  0.94704951921E+03  0.94704951921E+03  0.00000000000E+00 0.  1.
         22   -1    0    0    0    0 -0.00000000000E+00 -0.00000000000E+00 -0.16572170460E+04  0.16572170460E+04  0.00000000000E+00 0. -1.
        -24    2    1    2    0    0  0.64487038939E+02  0.66469497437E+02 -0.16038565096E+04  0.16084024505E+04  0.77627102688E+02 0.  0.
         25    2    1    2    0    0 -0.12219064264E+03  0.41020693730E+02  0.13938294994E+03  0.22735116228E+03  0.12509074223E+03 0.  0.
         24    2    1    2    0    0  0.57703603701E+02 -0.10749019117E+03  0.75430603291E+03  0.76851295239E+03  0.82162763032E+02 0.  0.
        -11    1    5    5    0    0 -0.39120841673E+01 -0.77392864562E+02  0.35473386029E+03  0.36309925850E+03  0.00000000000E+00 0.  1.
         12    1    5    5    0    0  0.61615687868E+02 -0.30097326605E+02  0.39957217262E+03  0.40541369389E+03  0.00000000000E+00 0. -1.
         11    1    3    3    0    0  0.36154521770E+02  0.81141607706E+02 -0.11499881375E+04  0.11534139874E+04  0.00000000000E+00 0. -1.
        -12    1    3    3    0    0  0.28332517169E+02 -0.14672110269E+02 -0.45386837209E+03  0.45498846308E+03  0.00000000000E+00 0.  1.
          5    1    4    4  501    0 -0.12809789846E+03  0.72512277345E+02  0.11621630730E+03  0.18759212253E+03  0.41800000000E+01 0.  1.
         -5    1    4    4    0  501  0.59072558156E+01 -0.31491583615E+02  0.23166642647E+02  0.39759039744E+02  0.41800000000E+01 0.  1.
</event>
<event>
11    1  0.6625361E-009  0.1351881E+03  0.7561462E-02  0.1113054E+00
         22   -1    0    0    0    0  0.00000000000E+00  0.00000000000E+00  0.32523233254E+03  0.32523233254E+03  0.00000000000E+00 0.  1.
         22   -1    0    0    0    0 -0.00000000000E+00 -0.00000000000E+00 -0.17925288207E+03  0.17925288207E+03  0.00000000000E+00 0.  1.
         24    2    1    2    0    0  0.48327107971E+02  0.31184035049E+02 -0.98534726034E+02  0.13791513970E+03  0.77482514920E+02 0.  0.
         25    2    1    2    0    0 -0.32111143306E+01 -0.61903505988E+02  0.50169343493E+02  0.14834971062E+03  0.12509323845E+03 0.  0.
        -24    2    1    2    0    0 -0.45115993640E+02  0.30719470939E+02  0.19434483300E+03  0.21822036429E+03  0.82891944703E+02 0.  0.
        -13    1    3    3    0    0  0.37209056944E+02  0.35441151643E+02 -0.10998496603E+03  0.12139720714E+03  0.00000000000E+00 0.  1.
         14    1    3    3    0    0  0.11118051026E+02 -0.42571165940E+01  0.11450239995E+02  0.16517932566E+02  0.00000000000E+00 0. -1.
         11    1    5    5    0    0 -0.11912111928E+02 -0.88827087397E+01 -0.21759833931E+01  0.15017850341E+02  0.00000000000E+00 0. -1.
        -12    1    5    5    0    0 -0.33203881713E+02  0.39602179678E+02  0.19652081640E+03  0.20320251395E+03  0.00000000000E+00 0.  1.
          5    1    4    4  501    0  0.14265435105E+00  0.11614319870E+02  0.70749050929E+02  0.71817918263E+02  0.41800000000E+01 0.  1.
         -5    1    4    4    0  501 -0.33537686816E+01 -0.73517825858E+02 -0.20579707436E+02  0.76531792357E+02  0.41800000000E+01 0.  1.
</event>
<event>
11    1  0.6625361E-009  0.1755374E+03  0.7561462E-02  0.1073311E+00
         22   -1    0    0    0    0  0.00000000000E+00  0.00000000000E+00  0.14677870280E+04  0.14677870280E+04  0.00000000000E+00 0. -1.
         22   -1    0    0    0    0 -0.00000000000E+00 -0.00000000000E+00 -0.99299840460E+02  0.99299840460E+02  0.00000000000E+00 0.  1.
         24    2    1    2    0    0 -0.12111031799E+03  0.26222143156E+02  0.58327496850E+01  0.14780722469E+03  0.80359472293E+02 0.  0.
         25    2    1    2    0    0  0.11828670346E+03 -0.22689557338E+02  0.25073123758E+03  0.30498868280E+03  0.12508150508E+03 0.  0.
        -24    2    1    2    0    0  0.28236145295E+01 -0.35325858178E+01  0.11119232003E+04  0.11142909610E+04  0.72461647917E+02 0.  0.
        -13    1    3    3    0    0 -0.87000735013E+02  0.44682138109E+02 -0.21777006024E+02  0.10019909855E+03  0.00000000000E+00 0.  1.
         14    1    3    3    0    0 -0.34109582974E+02 -0.18459994953E+02  0.27609755709E+02  0.47608126140E+02  0.00000000000E+00 0. -1.
         11    1    5    5    0    0 -0.34832527147E+02 -0.25194444987E+01  0.54386506536E+03  0.54498519417E+03  0.00000000000E+00 0. -1.
        -12    1    5    5    0    0  0.37656141676E+02 -0.10131413191E+01  0.56805813494E+03  0.56930576682E+03  0.00000000000E+00 0.  1.
          5    1    4    4  501    0 -0.13928844831E+02 -0.65930253387E+01  0.11009327444E+03  0.11124514451E+03  0.41800000000E+01 0.  1.
         -5    1    4    4    0  501  0.13221554829E+03 -0.16096531999E+02  0.14063796314E+03  0.19374353828E+03  0.41800000000E+01 0.  1.
</event>
<event>
11    1  0.6625361E-009  0.1407623E+03  0.7561462E-02  0.1106710E+00
         22   -1    0    0    0    0  0.00000000000E+00  0.00000000000E+00  0.53014427514E+03  0.53014427514E+03  0.00000000000E+00 0.  1.
         22   -1    0    0    0    0 -0.00000000000E+00 -0.00000000000E+00 -0.17395510315E+03  0.17395510315E+03  0.00000000000E+00 0.  1.
        -24    2    1    2    0    0  0.20123469895E+02 -0.44142960019E+02 -0.52695719523E+02  0.10676839076E+03  0.79177619621E+02 0.  0.
         25    2    1    2    0    0 -0.44423212991E+02  0.10063105837E+03 -0.97011618922E+01  0.16685653123E+03  0.12508780001E+03 0.  0.
         24    2    1    2    0    0  0.24299743096E+02 -0.56488098354E+02  0.41858605340E+03  0.43047445631E+03  0.79451813436E+02 0.  0.
        -13    1    5    5    0    0  0.25948895768E+02  0.44173909250E+01  0.24687582521E+03  0.24827511275E+03  0.00000000000E+00 0.  1.
         14    1    5    5    0    0 -0.16491526720E+01 -0.60905489279E+02  0.17171022819E+03  0.18219934356E+03  0.00000000000E+00 0. -1.
         13    1    3    3    0    0 -0.16316461000E+02  0.81532648202E+01 -0.36806105357E+02  0.41077877481E+02  0.00000000000E+00 0. -1.
        -14    1    3    3    0    0  0.36439930895E+02 -0.52296224839E+02 -0.15889614166E+02  0.65690513276E+02  0.00000000000E+00 0.  1.
          5    1    4    4  501    0  0.14236713844E+02  0.29247060349E+02  0.47786454730E+02  0.57957676073E+02  0.41800000000E+01 0. -1.
         -5    1    4    4    0  501 -0.58659926835E+02  0.71383998024E+02 -0.57487616623E+02  0.10889885516E+03  0.41800000000E+01 0. -1.
</event>
<event>
11    1  0.6625361E-009  0.1286318E+03  0.7561462E-02  0.1120962E+00
         22   -1    0    0    0    0  0.00000000000E+00  0.00000000000E+00  0.53599634380E+03  0.53599634380E+03  0.00000000000E+00 0. -1.
         22   -1    0    0    0    0 -0.00000000000E+00 -0.00000000000E+00 -0.26512854054E+03  0.26512854054E+03  0.00000000000E+00 0.  1.
         24    2    1    2    0    0  0.13036425694E+02 -0.16899275497E+02 -0.22950213021E+03  0.24383558653E+03  0.79555210908E+02 0.  0.
         25    2    1    2    0    0 -0.18682239276E+00 -0.14535625428E+02  0.14961609472E+03  0.19555514615E+03  0.12508205338E+03 0.  0.
        -24    2    1    2    0    0 -0.12849603302E+02  0.31434900925E+02  0.35075383875E+03  0.36173415165E+03  0.81670531816E+02 0.  0.
        -11    1    3    3    0    0 -0.75304857348E+01  0.15408108389E+02 -0.18205147645E+03  0.18285748029E+03  0.00000000000E+00 0.  1.
         12    1    3    3    0    0  0.20566911429E+02 -0.32307383886E+02 -0.47450653761E+02  0.60978106248E+02  0.00000000000E+00 0. -1.
         13    1    5    5    0    0 -0.13143741788E+02  0.12142776103E+02  0.33829270739E+03  0.33876564294E+03  0.00000000000E+00 0. -1.
        -14    1    5    5    0    0  0.29413848671E+00  0.19292124821E+02  0.12461131359E+02  0.22968508709E+02  0.00000000000E+00 0.  1.
          5    1    4    4  501    0 -0.40246713481E+02  0.29561041639E+01  0.14595767018E+03  0.15149142016E+03  0.41800000000E+01 0. -1.
         -5    1    4    4    0  501  0.40059891088E+02 -0.17491729592E+02  0.36584245391E+01  0.44063725991E+02  0.41800000000E+01 0. -1.
</event>
<event>
11    1  0.6625361E-009  0.1974369E+03  0.7561462E-02  0.1056351E+00
         22   -1    0    0    0    0  0.00000000000E+00  0.00000000000E+00  0.77305567092E+03  0.77305567092E+03  0.00000000000E+00 0. -1.
         22   -1    0    0    0    0 -0.00000000000E+00 -0.00000000000E+00 -0.35142440388E+04  0.35142440388E+04  0.00000000000E+00 0. -1.
         24    2    1    2    0    0  0.43107243317E+02  0.35265883273E+02 -0.30918804725E+04  0.30934178507E+04  0.80045152557E+02 0.  0.
         25    2    1    2    0    0 -0.29881549688E+02 -0.18670429425E+03 -0.38048324857E+03  0.44290625627E+03  0.12508816449E+03 0.  0.
        -24    2    1    2    0    0 -0.13225693629E+02  0.15143841098E+03  0.73117535311E+03  0.75097560273E+03  0.78983843915E+02 0.  0.
        -13    1    3    3    0    0 -0.49193036721E+01  0.14135094989E+02 -0.10347463511E+03  0.10455142548E+03  0.00000000000E+00 0.  1.
         14    1    3    3    0    0  0.48026546989E+02  0.21130788284E+02 -0.29884058373E+04  0.29888664253E+04  0.00000000000E+00 0. -1.
         13    1    5    5    0    0 -0.28278021055E+02  0.14993820088E+03  0.60705224147E+03  0.62593412947E+03  0.00000000000E+00 0. -1.
        -14    1    5    5    0    0  0.15052327427E+02  0.15002101023E+01  0.12412311164E+03  0.12504147326E+03  0.00000000000E+00 0.  1.
          5    1    4    4  501    0 -0.18382905060E+02 -0.19752534876E+03 -0.37725799383E+03  0.42625727080E+03  0.41800000000E+01 0.  1.
         -5    1    4    4    0  501 -0.11498644629E+02  0.10821054510E+02 -0.32252547431E+01  0.16648985469E+02  0.41800000000E+01 0.  1.
</event>
<event>
11    1  0.6625361E-009  0.1466517E+03  0.7561462E-02  0.1100350E+00
         22   -1    0    0    0    0  0.00000000000E+00  0.00000000000E+00  0.17757159556E+03  0.17757159556E+03  0.00000000000E+00 0. -1.
         22   -1    0    0    0    0 -0.00000000000E+00 -0.00000000000E+00 -0.15431969556E+04  0.15431969556E+04  0.00000000000E+00 0.  1.
        -24    2    1    2    0    0 -0.59485844654E+02 -0.50439042179E+02 -0.12966716061E+04  0.13014044064E+04  0.78825835495E+02 0.  0.
         25    2    1    2    0    0  0.43347769882E+02  0.47168120267E+02 -0.21199262066E+03  0.25434663603E+03  0.12508988498E+03 0.  0.
         24    2    1    2    0    0  0.16138074772E+02  0.32709219117E+01  0.14303886670E+03  0.16501750870E+03  0.80619627894E+02 0.  0.
        -11    1    5    5    0    0  0.17274669056E+02  0.12370787771E+02 -0.43405655356E+00  0.21251799598E+02  0.00000000000E+00 0.  1.
         12    1    5    5    0    0 -0.11365942846E+01 -0.90998658592E+01  0.14347292325E+03  0.14376570910E+03  0.00000000000E+00 0. -1.
         13    1    3    3    0    0 -0.10301782870E+02  0.14810816071E+02 -0.80771124018E+02  0.82761473393E+02  0.00000000000E+00 0. -1.
        -14    1    3    3    0    0 -0.49184061784E+02 -0.65249858250E+02 -0.12159004820E+04  0.12186429330E+04  0.00000000000E+00 0.  1.
          5    1    4    4  501    0 -0.34987874134E+02  0.11269126686E+02 -0.16192853248E+02  0.40383479902E+02  0.41800000000E+01 0.  1.
         -5    1    4    4    0  501  0.78335644016E+02  0.35898993581E+02 -0.19579976741E+03  0.21396315613E+03  0.41800000000E+01 0.  1.
</event>
<event>
11    1  0.6625361E-009  0.1664961E+03  0.7561462E-02  0.1081122E+00
         22   -1    0    0    0    0  0.00000000000E+00  0.00000000000E+00  0.89867695389E+03  0.89867695389E+03  0.00000000000E+00 0. -1.
         22   -1    0    0    0    0 -0.00000000000E+00 -0.00000000000E+00 -0.76373958047E+03  0.76373958047E+03  0.00000000000E+00 0. -1.
         24    2    1    2    0    0  0.30798774432E+02 -0.63664202310E+01 -0.65626376435E+03  0.66116670327E+03  0.73960701079E+02 0.  0.
         25    2    1    2    0    0  0.80082959111E+02 -0.59495079754E+01 -0.43797568963E+02  0.15496443249E+03  0.12508825407E+03 0.  0.
        -24    2    1    2    0    0 -0.11088173354E+03  0.12315928206E+02  0.83499870673E+03  0.84628539860E+03  0.80806526508E+02 0.  0.
        -11    1    3    3    0    0 -0.78616840597E+00  0.30662111312E+02 -0.30695827018E+03  0.30848689237E+03  0.00000000000E+00 0.  1.
         12    1    3    3    0    0  0.31584942838E+02 -0.37028531543E+02 -0.34930549416E+03  0.35267981090E+03  0.00000000000E+00 0. -1.
         13    1    5    5    0    0 -0.58866045093E+02 -0.33723983873E+02  0.44667925916E+03  0.45180181376E+03  0.00000000000E+00 0. -1.
        -14    1    5    5    0    0 -0.52015688450E+02  0.46039912080E+02  0.38831944757E+03  0.39448358484E+03  0.00000000000E+00 0.  1.
          5    1    4    4  501    0  0.82208381805E+02 -0.27835426811E+02  0.18436307645E+02  0.88827917146E+02  0.41800000000E+01 0.  1.
         -5    1    4    4    0  501 -0.21254226942E+01  0.21885918836E+02 -0.62233876607E+02  0.66136515349E+02  0.41800000000E+01 0.  1.
</event>
<event>
11    1  0.6625361E-009  0.1558362E+03  0.7561462E-02  0.1091060E+00
         22   -1    0    0    0    0  0.00000000000E+00  0.00000000000E+00  0.58160816097E+03  0.58160816097E+03  0.00000000000E+00 0. -1.
         22   -1    0    0    0    0 -0.00000000000E+00 -0.00000000000E+00 -0.11769430084E+04  0.11769430084E+04  0.00000000000E+00 0. -1.
        -24    2    1    2    0    0  0.51333957978E+02  0.15410186118E+01 -0.11176524661E+04  0.11217943456E+04  0.81473731768E+02 0.  0.
         25    2    1    2    0    0  0.49514166967E+02  0.10971874873E+02  0.48401359119E+02  0.14339589586E+03  0.12509059364E+03 0.  0.
         24    2    1    2    0    0 -0.10084812495E+03 -0.12512893485E+02  0.47391625955E+03  0.49336092786E+03  0.92094881836E+02 0.  0.
        -11    1    5    5    0    0 -0.44272428066E+01 -0.34302210412E+02  0.78609779055E+02  0.85882125504E+02  0.00000000000E+00 0.  1.
         12    1    5    5    0    0 -0.96420882139E+02  0.21789316927E+02  0.39530648050E+03  0.40747880236E+03  0.00000000000E+00 0. -1.
         11    1    3    3    0    0  0.40728333340E+02 -0.36908171926E+02 -0.74110893511E+03  0.74314430899E+03  0.00000000000E+00 0. -1.
        -12    1    3    3    0    0  0.10605624638E+02  0.38449190537E+02 -0.37654353097E+03  0.37865003663E+03  0.00000000000E+00 0.  1.
          5    1    4    4  501    0  0.13604288180E+02 -0.26267566588E+02  0.78085357192E+02  0.83605365373E+02  0.41800000000E+01 0. -1.
         -5    1    4    4    0  501  0.35909878787E+02  0.37239441461E+02 -0.29683998073E+02  0.59790530491E+02  0.41800000000E+01 0. -1.
</event>
<event>
11    1  0.6625361E-009  0.2475989E+03  0.7561462E-02  0.1025186E+00
         22   -1    0    0    0    0  0.00000000000E+00  0.00000000000E+00  0.38032552372E+03  0.38032552372E+03  0.00000000000E+00 0. -1.
         22   -1    0    0    0    0 -0.00000000000E+00 -0.00000000000E+00 -0.76301109789E+03  0.76301109789E+03  0.00000000000E+00 0.  1.
        -24    2    1    2    0    0 -0.20237343376E+03 -0.44133197940E+02 -0.55061148237E+03  0.59371484420E+03  0.80134673216E+02 0.  0.
         25    2    1    2    0    0  0.22156054066E+03  0.17856512770E+03 -0.10798869566E+02  0.31102796786E+03  0.12508878127E+03 0.  0.
         24    2    1    2    0    0 -0.19187106896E+02 -0.13443192976E+03  0.17872477777E+03  0.23859380955E+03  0.80897286461E+02 0.  0.
        -11    1    5    5    0    0  0.67650959711E+01 -0.12601478137E+03  0.16591152491E+03  0.20845173481E+03  0.00000000000E+00 0.  1.
         12    1    5    5    0    0 -0.25952202867E+02 -0.84171483867E+01  0.12813252857E+02  0.30142074736E+02  0.00000000000E+00 0. -1.
         11    1    3    3    0    0 -0.96052035809E+02 -0.25789986120E+02 -0.15925600137E+03  0.18775939641E+03  0.00000000000E+00 0. -1.
        -12    1    3    3    0    0 -0.10632139795E+03 -0.18343211820E+02 -0.39135548100E+03  0.40595544779E+03  0.00000000000E+00 0.  1.
          5    1    4    4  501    0  0.52820614976E+02  0.93833512657E+02  0.40825545954E+02  0.11523429640E+03  0.41800000000E+01 0.  1.
         -5    1    4    4    0  501  0.16873992568E+03  0.84731615044E+02 -0.51624415520E+02  0.19579367146E+03  0.41800000000E+01 0.  1.
</event>
<event>
11    1  0.6625361E-009  0.1721391E+03  0.7561462E-02  0.1076185E+00
         22   -1    0    0    0    0  0.00000000000E+00  0.00000000000E+00  0.89670222376E+03  0.89670222376E+03  0.00000000000E+00 0. -1.
         22   -1    0    0    0    0 -0.00000000000E+00 -0.00000000000E+00 -0.16097513524E+03  0.16097513524E+03  0.00000000000E+00 0. -1.
         24    2    1    2    0    0  0.80901916382E+02  0.83651339339E+02 -0.80273981190E+02  0.16315479541E+03  0.81442670408E+02 0.  0.
         25    2    1    2    0    0 -0.57942596525E+02 -0.12209635921E+03  0.20587871681E+03  0.27622161911E+03  0.12508985331E+03 0.  0.
        -24    2    1    2    0    0 -0.22959319857E+02  0.38445019874E+02  0.61012235290E+03  0.61830094448E+03  0.89675094159E+02 0.  0.
        -11    1    3    3    0    0 -0.91161440302E+01  0.38970341537E+02 -0.34006132043E+02  0.52518650192E+02  0.00000000000E+00 0.  1.
         12    1    3    3    0    0  0.90018060412E+02  0.44680997802E+02 -0.46267849148E+02  0.11063614522E+03  0.00000000000E+00 0. -1.
         11    1    5    5    0    0 -0.36514098496E+02  0.58465255409E+02  0.53402009321E+03  0.53845048559E+03  0.00000000000E+00 0. -1.
        -12    1    5    5    0    0  0.13554778639E+02 -0.20020235535E+02  0.76102259691E+02  0.79850458890E+02  0.00000000000E+00 0.  1.
          5    1    4    4  501    0  0.24833015144E+02 -0.89266111418E+02  0.83379373380E+02  0.12471852146E+03  0.41800000000E+01 0. -1.
         -5    1    4    4    0  501 -0.82775611669E+02 -0.32830247795E+02  0.12249934343E+03  0.15150309765E+03  0.41800000000E+01 0. -1.
</event>
<event>
11    1  0.6625361E-009  0.1615744E+03  0.7561462E-02  0.1085606E+00
         22   -1    0    0    0    0  0.00000000000E+00  0.00000000000E+00  0.77159444940E+03  0.77159444940E+03  0.00000000000E+00 0. -1.
         22   -1    0    0    0    0 -0.00000000000E+00 -0.00000000000E+00 -0.16327632504E+03  0.16327632504E+03  0.00000000000E+00 0.  1.
         24    2    1    2    0    0  0.76728655126E+02 -0.78642345309E+02 -0.95342507921E+02  0.16585509297E+03  0.79660611696E+02 0.  0.
         25    2    1    2    0    0  0.19436791045E+02  0.86396795492E+02  0.20872512119E+03  0.25895298114E+03  0.12509306579E+03 0.  0.
        -24    2    1    2    0    0 -0.96165446171E+02 -0.77544501831E+01  0.49493551110E+03  0.51006270032E+03  0.76778080076E+02 0.  0.
        -11    1    3    3    0    0  0.68674966719E+02 -0.95112354669E+02 -0.84166764644E+02  0.14438370869E+03  0.00000000000E+00 0.  1.
         12    1    3    3    0    0  0.80536884069E+01  0.16470009360E+02 -0.11175743277E+02  0.21471384284E+02  0.00000000000E+00 0. -1.
         13    1    5    5    0    0 -0.82904597079E+02 -0.35698123788E+02  0.32338089719E+03  0.33574206309E+03  0.00000000000E+00 0. -1.
        -14    1    5    5    0    0 -0.13260849093E+02  0.27943673605E+02  0.17155461391E+03  0.17432063723E+03  0.00000000000E+00 0.  1.
          5    1    4    4  501    0 -0.32784042876E+02  0.54097359417E+02  0.30399747640E+02  0.70306008419E+02  0.41800000000E+01 0. -1.
         -5    1    4    4    0  501  0.52220833921E+02  0.32299436075E+02  0.17832537355E+03  0.18864697273E+03  0.41800000000E+01 0. -1.
</event>
<event>
11    1  0.6625361E-009  0.1481557E+03  0.7561462E-02  0.1098778E+00
         22   -1    0    0    0    0  0.00000000000E+00  0.00000000000E+00  0.35729406677E+02  0.35729406677E+02  0.00000000000E+00 0. -1.
         22   -1    0    0    0    0 -0.00000000000E+00 -0.00000000000E+00 -0.28014124767E+04  0.28014124767E+04  0.00000000000E+00 0.  1.
         24    2    1    2    0    0 -0.42203808870E+02 -0.21390069740E+02 -0.18717205969E+04  0.18740368950E+04  0.80234620183E+02 0.  0.
         25    2    1    2    0    0 -0.14649867122E+02  0.79097877683E+02 -0.80367687004E+03  0.81732196817E+03  0.12509034876E+03 0.  0.
        -24    2    1    2    0    0  0.56853675992E+02 -0.57707807943E+02 -0.90285603027E+02  0.14578302018E+03  0.80862026246E+02 0.  0.
        -11    1    3    3    0    0  0.71884785933E+01 -0.36270559963E+02 -0.10830860404E+04  0.10837170289E+04  0.00000000000E+00 0.  1.
         12    1    3    3    0    0 -0.49392287463E+02  0.14880490223E+02 -0.78863455651E+03  0.79031986611E+03  0.00000000000E+00 0. -1.
         11    1    5    5    0    0  0.69755946389E+02 -0.26967309104E+02 -0.38295015279E+02  0.84021640142E+02  0.00000000000E+00 0. -1.
        -12    1    5    5    0    0 -0.12902270397E+02 -0.30740498839E+02 -0.51990587748E+02  0.61761380041E+02  0.00000000000E+00 0.  1.
          5    1    4    4  501    0 -0.22100307321E+02  0.18954197375E+02 -0.66822219250E+03  0.66886923694E+03  0.41800000000E+01 0.  1.
         -5    1    4    4    0  501  0.74504401993E+01  0.60143680309E+02 -0.13545467754E+03  0.14845273123E+03  0.41800000000E+01 0.  1.
</event>
<event>
11    1  0.6625361E-009  0.1370266E+03  0.7561462E-02  0.1110925E+00
         22   -1    0    0    0    0  0.00000000000E+00  0.00000000000E+00  0.28571229725E+03  0.28571229725E+03  0.00000000000E+00 0. -1.
         22   -1    0    0    0    0 -0.00000000000E+00 -0.00000000000E+00 -0.27942272955E+03  0.27942272955E+03  0.00000000000E+00 0.  1.
         24    2    1    2    0    0 -0.22913835042E+02  0.92162830515E+01 -0.18541872431E+03  0.20320963859E+03  0.79398174920E+02 0.  0.
         25    2    1    2    0    0  0.70037630264E+02 -0.32683919464E+02 -0.36697442320E+00  0.14703811372E+03  0.12508622614E+03 0.  0.
        -24    2    1    2    0    0 -0.47123795222E+02  0.23467636412E+02  0.19207526644E+03  0.21488727450E+03  0.80698517502E+02 0.  0.
        -13    1    3    3    0    0 -0.49046496268E+02 -0.10172749708E+02 -0.12324930037E+03  0.13303921856E+03  0.00000000000E+00 0.  1.
         14    1    3    3    0    0  0.26132661227E+02  0.19389032760E+02 -0.62169423941E+02  0.70170420031E+02  0.00000000000E+00 0. -1.
         11    1    5    5    0    0 -0.49651663750E+02  0.42755091562E+02  0.18101808290E+03  0.19251190068E+03  0.00000000000E+00 0. -1.
        -12    1    5    5    0    0  0.25278685275E+01 -0.19287455149E+02  0.11057183541E+02  0.22375373814E+02  0.00000000000E+00 0.  1.
          5    1    4    4  501    0 -0.19322336099E+02 -0.51355842475E+02 -0.66868846647E+01  0.55434303957E+02  0.41800000000E+01 0.  1.
         -5    1    4    4    0  501  0.89359966363E+02  0.18671923011E+02  0.63199102415E+01  0.91603809762E+02  0.41800000000E+01 0.  1.
</event>
<event>
11    1  0.6625361E-009  0.1976192E+03  0.7561462E-02  0.1056220E+00
         22   -1    0    0    0    0  0.00000000000E+00  0.00000000000E+00  0.67384213806E+03  0.67384213806E+03  0.00000000000E+00 0.  1.
         22   -1    0    0    0    0 -0.00000000000E+00 -0.00000000000E+00 -0.49119190727E+03  0.49119190727E+03  0.00000000000E+00 0.  1.
        -24    2    1    2    0    0  0.20701527032E+02  0.15428313981E+03 -0.40518291619E+03  0.44071852621E+03  0.76339919522E+02 0.  0.
         25    2    1    2    0    0 -0.76290067015E+02 -0.12102813010E+03  0.80203591617E+02  0.20627504068E+03  0.12509513859E+03 0.  0.
         24    2    1    2    0    0  0.55588539983E+02 -0.33255009710E+02  0.50762955537E+03  0.51804047844E+03  0.80512051065E+02 0.  0.
        -13    1    5    5    0    0  0.59914721553E+02 -0.39359322812E+02  0.50507138212E+03  0.51013334648E+03  0.00000000000E+00 0.  1.
         14    1    5    5    0    0 -0.43261815696E+01  0.61043131016E+01  0.25581732445E+01  0.79071319556E+01  0.00000000000E+00 0. -1.
         13    1    3    3    0    0 -0.18075164588E+02  0.21964669465E+02 -0.12814783544E+03  0.13126700274E+03  0.00000000000E+00 0. -1.
        -14    1    3    3    0    0  0.38776691620E+02  0.13231847035E+03 -0.27703508075E+03  0.30945152347E+03  0.00000000000E+00 0.  1.
          5    1    4    4  501    0 -0.87481223925E+02 -0.38938466584E+02  0.77528806180E+02  0.12327756044E+03  0.41800000000E+01 0.  1.
         -5    1    4    4    0  501  0.11191156910E+02 -0.82089663520E+02  0.26747854374E+01  0.82997480244E+02  0.41800000000E+01 0.  1.
</event>
<event>
11    1  0.6625361E-009  0.1806559E+03  0.7561462E-02  0.1069114E+00
         22   -1    0    0    0    0  0.00000000000E+00  0.00000000000E+00  0.78142697862E+03  0.78142697862E+03  0.00000000000E+00 0.  1.
         22   -1    0    0    0    0 -0.00000000000E+00 -0.00000000000E+00 -0.26185947909E+03  0.26185947909E+03  0.00000000000E+00 0.  1.
        -24    2    1    2    0    0  0.14685515622E+03  0.28693833154E+02 -0.18139779458E+03  0.24939344428E+03  0.83079222468E+02 0.  0.
         25    2    1    2    0    0 -0.54747550431E+02  0.57203279955E+02  0.11192601752E+03  0.18559202007E+03  0.12508978775E+03 0.  0.
         24    2    1    2    0    0 -0.92107605785E+02 -0.85897113109E+02  0.58903927658E+03  0.60830099335E+03  0.84856962442E+02 0.  0.
        -13    1    5    5    0    0 -0.22378986215E+02 -0.95045798829E+01  0.30584431712E+03  0.30680922799E+03  0.00000000000E+00 0.  1.
         14    1    5    5    0    0 -0.69728619570E+02 -0.76392533226E+02  0.28319495946E+03  0.30149176537E+03  0.00000000000E+00 0. -1.
         13    1    3    3    0    0  0.42761626604E+02 -0.14079731757E+02 -0.10250531739E+03  0.11195595406E+03  0.00000000000E+00 0. -1.
        -14    1    3    3    0    0  0.10409352961E+03  0.42773564911E+02 -0.78892477186E+02  0.13743749022E+03  0.00000000000E+00 0.  1.
          5    1    4    4  501    0  0.36359248820E+02  0.22148172399E+02  0.63439784071E+02  0.76515456729E+02  0.41800000000E+01 0. -1.
         -5    1    4    4    0  501 -0.91106799251E+02  0.35055107556E+02  0.48486233453E+02  0.10907656334E+03  0.41800000000E+01 0. -1.
</event>
<event>
11    1  0.6625361E-009  0.1880971E+03  0.7561462E-02  0.1063275E+00
         22   -1    0    0    0    0  0.00000000000E+00  0.00000000000E+00  0.26356455413E+03  0.26356455413E+03  0.00000000000E+00 0. -1.
         22   -1    0    0    0    0 -0.00000000000E+00 -0.00000000000E+00 -0.15737624402E+04  0.15737624402E+04  0.00000000000E+00 0.  1.
        -24    2    1    2    0    0  0.87953131064E+02 -0.10368234189E+03 -0.13149409461E+04  0.13243808361E+04  0.80181830525E+02 0.  0.
         25    2    1    2    0    0 -0.69538684947E+02  0.21321321317E+03 -0.15764630943E+03  0.30132228613E+03  0.12508900140E+03 0.  0.
         24    2    1    2    0    0 -0.18414446116E+02 -0.10953087127E+03  0.16238936952E+03  0.21162387207E+03  0.77963147139E+02 0.  0.
        -13    1    5    5    0    0 -0.47644192412E+02 -0.73768096052E+02  0.89923465713E+02  0.12568981960E+03  0.00000000000E+00 0.  1.
         14    1    5    5    0    0  0.29229746296E+02 -0.35762775219E+02  0.72465903803E+02  0.85934052470E+02  0.00000000000E+00 0. -1.
         11    1    3    3    0    0  0.62284488738E+02 -0.14537141500E+02 -0.46093897322E+03  0.46535515797E+03  0.00000000000E+00 0. -1.
        -12    1    3    3    0    0  0.25668642326E+02 -0.89145200394E+02 -0.85400197291E+03  0.85902567813E+03  0.00000000000E+00 0.  1.
          5    1    4    4  501    0  0.97326556199E+01 -0.96370871534E+01 -0.28268221147E+02  0.31688527278E+02  0.41800000000E+01 0. -1.
         -5    1    4    4    0  501 -0.79271340567E+02  0.22285030032E+03 -0.12937808828E+03  0.26963375886E+03  0.41800000000E+01 0. -1.
</event>
<event>
11    1  0.6625361E-009  0.1406087E+03  0.7561462E-02  0.1106881E+00
         22   -1    0    0    0    0  0.00000000000E+00  0.00000000000E+00  0.43126642994E+03  0.43126642994E+03  0.00000000000E+00 0.  1.
         22   -1    0    0    0    0 -0.00000000000E+00 -0.00000000000E+00 -0.67015336325E+03  0.67015336325E+03  0.00000000000E+00 0. -1.
         24    2    1    2    0    0 -0.53568001597E+02  0.36157982019E+02 -0.63735952551E+03  0.64570915933E+03  0.80846912281E+02 0.  0.
         25    2    1    2    0    0  0.33653514190E+02 -0.12785731679E+02  0.27748018599E+03  0.30649448296E+03  0.12509028945E+03 0.  0.
        -24    2    1    2    0    0  0.19914487407E+02 -0.23372250340E+02  0.12099240621E+03  0.14921615090E+03  0.81752360421E+02 0.  0.
        -11    1    3    3    0    0 -0.20897759153E+02 -0.56252605262E+01 -0.35922047585E+02  0.41937493920E+02  0.00000000000E+00 0.  1.
         12    1    3    3    0    0 -0.32670242444E+02  0.41783242545E+02 -0.60143747793E+03  0.60377166541E+03  0.00000000000E+00 0. -1.
         13    1    5    5    0    0 -0.14345736981E+02 -0.34939514131E+02  0.21735299890E+02  0.43577437724E+02  0.00000000000E+00 0. -1.
        -14    1    5    5    0    0  0.34260224388E+02  0.11567263791E+02  0.99257106317E+02  0.10563871317E+03  0.00000000000E+00 0.  1.
          5    1    4    4  501    0 -0.64522756821E+01 -0.56134106189E+02  0.20615876831E+03  0.21380266577E+03  0.41800000000E+01 0.  1.
         -5    1    4    4    0  501  0.40105789872E+02  0.43348374510E+02  0.71321417685E+02  0.92691817193E+02  0.41800000000E+01 0.  1.
</event>
<event>
11    1  0.6625361E-009  0.1616719E+03  0.7561462E-02  0.1085515E+00
         22   -1    0    0    0    0  0.00000000000E+00  0.00000000000E+00  0.75604497898E+03  0.75604497898E+03  0.00000000000E+00 0.  1.
         22   -1    0    0    0    0 -0.00000000000E+00 -0.00000000000E+00 -0.19124585493E+03  0.19124585493E+03  0.00000000000E+00 0. -1.
         24    2    1    2    0    0 -0.43981078545E+02 -0.21671239496E+02 -0.12209124357E+03  0.15482809205E+03  0.81617941898E+02 0.  0.
         25    2    1    2    0    0  0.13455295120E+03 -0.15163413699E+02  0.14143213145E+03  0.23234525997E+03  0.12508735441E+03 0.  0.
        -24    2    1    2    0    0 -0.90571872651E+02  0.36834653196E+02  0.54545823617E+03  0.56011748189E+03  0.81528217984E+02 0.  0.
        -13    1    3    3    0    0  0.22313867095E+02 -0.18236050759E+02 -0.35876017465E+02  0.46016853882E+02  0.00000000000E+00 0.  1.
         14    1    3    3    0    0 -0.66294945640E+02 -0.34351887377E+01 -0.86215226102E+02  0.10881123816E+03  0.00000000000E+00 0. -1.
         11    1    5    5    0    0 -0.26130963135E+02 -0.26310010378E+02  0.15700811132E+03  0.16132758878E+03  0.00000000000E+00 0. -1.
        -12    1    5    5    0    0 -0.64440909516E+02  0.63144663574E+02  0.38845012484E+03  0.39878989311E+03  0.00000000000E+00 0.  1.
          5    1    4    4  501    0  0.13990126280E+03  0.17471691753E+02  0.14037032273E+03  0.19899478197E+03  0.41800000000E+01 0. -1.
         -5    1    4    4    0  501 -0.53483116090E+01 -0.32635105452E+02  0.10618087170E+01  0.33350477998E+02  0.41800000000E+01 0. -1.
</event>
<event>
11    1  0.6625361E-009  0.2666510E+03  0.7561462E-02  0.1015385E+00
         22   -1    0    0    0    0  0.00000000000E+00  0.00000000000E+00  0.13597444870E+04  0.13597444870E+04  0.00000000000E+00 0. -1.
         22   -1    0    0    0    0 -0.00000000000E+00 -0.00000000000E+00 -0.11140340126E+04  0.11140340126E+04  0.00000000000E+00 0. -1.
         24    2    1    2    0    0 -0.21222737249E+03 -0.10388329406E+03 -0.10666455637E+04  0.10957703638E+04  0.84544279273E+02 0.  0.
         25    2    1    2    0    0  0.21155724685E+03  0.39655718204E+02  0.48345686292E+03  0.54378558101E+03  0.12507267938E+03 0.  0.
        -24    2    1    2    0    0  0.67012564550E+00  0.64227575861E+02  0.82889917516E+03  0.83422255482E+03  0.68758983575E+02 0.  0.
        -13    1    3    3    0    0 -0.10322438889E+03 -0.71045998900E+02 -0.39065876896E+03  0.41026464896E+03  0.00000000000E+00 0.  1.
         14    1    3    3    0    0 -0.10900298360E+03 -0.32837295164E+02 -0.67598679474E+03  0.68550571482E+03  0.00000000000E+00 0. -1.
         13    1    5    5    0    0  0.71971500801E+01  0.36194405347E+02  0.73695589715E+03  0.73787927759E+03  0.00000000000E+00 0. -1.
        -14    1    5    5    0    0 -0.65270244346E+01  0.28033170514E+02  0.91943278005E+02  0.96343277230E+02  0.00000000000E+00 0.  1.
          5    1    4    4  501    0  0.18825226738E+03  0.20827972419E+01  0.29357490445E+03  0.34877922980E+03  0.41800000000E+01 0.  1.
         -5    1    4    4    0  501  0.23304979463E+02  0.37572920962E+02  0.18988195848E+03  0.19500635121E+03  0.41800000000E+01 0.  1.
</event>
<event>
11    1  0.6625361E-009  0.1630629E+03  0.7561462E-02  0.1084231E+00
         22   -1    0    0    0    0  0.00000000000E+00  0.00000000000E+00  0.15762537696E+03  0.15762537696E+03  0.00000000000E+00 0.  1.
         22   -1    0    0    0    0 -0.00000000000E+00 -0.00000000000E+00 -0.48932028093E+03  0.48932028093E+03  0.00000000000E+00 0. -1.
        -24    2    1    2    0    0 -0.30221768479E+02  0.11307576781E+03 -0.28492999486E+03  0.31838979368E+03  0.80544858249E+02 0.  0.
         25    2    1    2    0    0  0.80926804291E+02  0.84194894097E+01 -0.84274545325E+02  0.17137794310E+03  0.12509262542E+03 0.  0.
         24    2    1    2    0    0 -0.50705035811E+02 -0.12149525722E+03  0.37509636223E+02  0.15717792111E+03  0.77238771958E+02 0.  0.
        -11    1    5    5    0    0 -0.70352717428E+02 -0.10752141741E+03  0.30371426549E+02  0.13203326702E+03  0.00000000000E+00 0.  1.
         12    1    5    5    0    0  0.19647681617E+02 -0.13973839811E+02  0.71382096744E+01  0.25144654090E+02  0.00000000000E+00 0. -1.
         13    1    3    3    0    0 -0.33580449404E+01  0.57238496981E+02 -0.22498344628E+03  0.23217466077E+03  0.00000000000E+00 0. -1.
        -14    1    3    3    0    0 -0.26863723539E+02  0.55837270825E+02 -0.59946548581E+02  0.86215132908E+02  0.00000000000E+00 0.  1.
          5    1    4    4  501    0  0.97109728553E+02  0.20703082142E+02 -0.10322005684E+03  0.14328562218E+03  0.41800000000E+01 0.  1.
         -5    1    4    4    0  501 -0.16182924263E+02 -0.12283592733E+02  0.18945511511E+02  0.28092320918E+02  0.41800000000E+01 0.  1.
</event>
<event>
11    1  0.6625361E-009  0.1667369E+03  0.7561462E-02  0.1080907E+00
         22   -1    0    0    0    0  0.00000000000E+00  0.00000000000E+00  0.82918922821E+03  0.82918922821E+03  0.00000000000E+00 0. -1.
         22   -1    0    0    0    0 -0.00000000000E+00 -0.00000000000E+00 -0.25939749932E+03  0.25939749932E+03  0.00000000000E+00 0.  1.
         24    2    1    2    0    0  0.47481323578E+02 -0.42294415258E+01 -0.21366684222E+03  0.23355870713E+03  0.81386644755E+02 0.  0.
         25    2    1    2    0    0  0.21461376912E+02  0.97862371390E+02  0.21790616281E+03  0.27049596632E+03  0.12508931837E+03 0.  0.
        -24    2    1    2    0    0 -0.68942700490E+02 -0.93632929864E+02  0.56555240830E+03  0.58453205409E+03  0.91148089466E+02 0.  0.
        -13    1    3    3    0    0 -0.21247878267E+02 -0.13135989277E+02 -0.59455433136E+02  0.64490116100E+02  0.00000000000E+00 0.  1.
         14    1    3    3    0    0  0.68729201845E+02  0.89065477514E+01 -0.15421140909E+03  0.16906859103E+03  0.00000000000E+00 0. -1.
         11    1    5    5    0    0 -0.14862974003E+02 -0.75566440844E+02  0.43932659015E+03  0.44602583758E+03  0.00000000000E+00 0. -1.
        -12    1    5    5    0    0 -0.54079726487E+02 -0.18066489020E+02  0.12622581815E+03  0.13850621651E+03  0.00000000000E+00 0.  1.
          5    1    4    4  501    0 -0.12314388577E+02  0.31237575347E+02 -0.60510170480E+01  0.34373208854E+02  0.41800000000E+01 0. -1.
         -5    1    4    4    0  501  0.33775765489E+02  0.66624796043E+02  0.22395717986E+03  0.23612275746E+03  0.41800000000E+01 0. -1.
</event>
<event>
11    1  0.6625361E-009  0.1437580E+03  0.7561462E-02  0.1103433E+00
         22   -1    0    0    0    0  0.00000000000E+00  0.00000000000E+00  0.19132145215E+03  0.19132145215E+03  0.00000000000E+00 0. -1.
         22   -1    0    0    0    0 -0.00000000000E+00 -0.00000000000E+00 -0.69640785834E+03  0.69640785834E+03  0.00000000000E+00 0. -1.
        -24    2    1    2    0    0  0.15305395018E+02 -0.68645598922E+02 -0.57369009213E+03  0.58323588685E+03  0.78085238893E+02 0.  0.
         25    2    1    2    0    0  0.41297055464E+01  0.78841434791E+02 -0.53392654348E+02  0.15726583956E+03  0.12509493373E+03 0.  0.
         24    2    1    2    0    0 -0.19435100564E+02 -0.10195835869E+02  0.12199634029E+03  0.14722758408E+03  0.79442911991E+02 0.  0.
        -13    1    5    5    0    0  0.29616625523E+02 -0.22964877771E+01  0.27570362257E+02  0.40528301697E+02  0.00000000000E+00 0.  1.
         14    1    5    5    0    0 -0.49051726088E+02 -0.78993480917E+01  0.94425978038E+02  0.10669928238E+03  0.00000000000E+00 0. -1.
         11    1    3    3    0    0 -0.71421723325E+00 -0.48181753234E+02 -0.53152753258E+03  0.53370732554E+03  0.00000000000E+00 0. -1.
        -12    1    3    3    0    0  0.16019612251E+02 -0.20463845688E+02 -0.42162559554E+02  0.49528561308E+02  0.00000000000E+00 0.  1.
          5    1    4    4  501    0 -0.59205568360E+02  0.42725315493E+02 -0.14605467758E+02  0.74575760118E+02  0.41800000000E+01 0. -1.
         -5    1    4    4    0  501  0.63335273906E+02  0.36116119297E+02 -0.38787186591E+02  0.82690079438E+02  0.41800000000E+01 0. -1.
</event>
<event>
11    1  0.6625361E-009  0.2264083E+03  0.7561462E-02  0.1037276E+00
         22   -1    0    0    0    0  0.00000000000E+00  0.00000000000E+00  0.21146915977E+04  0.21146915977E+04  0.00000000000E+00 0. -1.
         22   -1    0    0    0    0 -0.00000000000E+00 -0.00000000000E+00 -0.91096358258E+02  0.91096358258E+02  0.00000000000E+00 0.  1.
         24    2    1    2    0    0  0.17606814455E+03  0.70302856504E+02  0.78991717067E+02  0.22063984448E+03  0.80621129060E+02 0.  0.
         25    2    1    2    0    0 -0.14805496874E+03 -0.12257543813E+03  0.70231180818E+03  0.73880562002E+03  0.12508739530E+03 0.  0.
        -24    2    1    2    0    0 -0.28013175812E+02  0.52272581627E+02  0.12422917142E+04  0.12463424914E+04  0.81016924411E+02 0.  0.
        -11    1    3    3    0    0  0.10311836055E+03  0.39716508737E+01  0.18142988567E+02  0.10477756595E+03  0.00000000000E+00 0.  1.
         12    1    3    3    0    0  0.72949783999E+02  0.66331205631E+02  0.60848728500E+02  0.11586227853E+03  0.00000000000E+00 0. -1.
         13    1    5    5    0    0  0.89771320973E+00  0.11788620497E+02  0.93305390597E+03  0.93312880617E+03  0.00000000000E+00 0. -1.
        -14    1    5    5    0    0 -0.28910889021E+02  0.40483961130E+02  0.30923780818E+03  0.31321368524E+03  0.00000000000E+00 0.  1.
          5    1    4    4  501    0 -0.16356376726E+02 -0.73973295265E+01  0.29389117713E+03  0.29446858565E+03  0.41800000000E+01 0. -1.
         -5    1    4    4    0  501 -0.13169859201E+03 -0.11517810860E+03  0.40842063105E+03  0.44433703437E+03  0.41800000000E+01 0. -1.
</event>
<event>
11    1  0.6625361E-009  0.2266233E+03  0.7561462E-02  0.1037146E+00
         22   -1    0    0    0    0  0.00000000000E+00  0.00000000000E+00  0.15590478847E+04  0.15590478847E+04  0.00000000000E+00 0. -1.
         22   -1    0    0    0    0 -0.00000000000E+00 -0.00000000000E+00 -0.49552004188E+03  0.49552004188E+03  0.00000000000E+00 0. -1.
         24    2    1    2    0    0  0.14396141576E+03 -0.13474840794E+03 -0.44092043562E+03  0.49006532197E+03  0.82892500178E+02 0.  0.
         25    2    1    2    0    0 -0.12106504043E+03 -0.55777040235E+02  0.38767986081E+03  0.42861513164E+03  0.12508970525E+03 0.  0.
        -24    2    1    2    0    0 -0.22896375330E+02  0.19052544818E+03  0.11167684177E+04  0.11358874730E+04  0.79021909836E+02 0.  0.
        -11    1    3    3    0    0  0.14097204648E+03 -0.10423319242E+03 -0.31538617250E+03  0.36084084317E+03  0.00000000000E+00 0.  1.
         12    1    3    3    0    0  0.29893692770E+01 -0.30515215519E+02 -0.12553426312E+03  0.12922447881E+03  0.00000000000E+00 0. -1.
         11    1    5    5    0    0 -0.51113807588E+02  0.95399066055E+02  0.56712807089E+03  0.57736284252E+03  0.00000000000E+00 0. -1.
        -12    1    5    5    0    0  0.28217432258E+02  0.95126382120E+02  0.54964034679E+03  0.55852463050E+03  0.00000000000E+00 0.  1.
          5    1    4    4  501    0  0.68708646274E+01  0.12665422549E+01 -0.64021327163E+01  0.10357249313E+02  0.41800000000E+01 0.  1.
         -5    1    4    4    0  501 -0.12793590506E+03 -0.57043582490E+02  0.39408199352E+03  0.41825788232E+03  0.41800000000E+01 0.  1.
</event>
<event>
11    1  0.6625361E-009  0.1605144E+03  0.7561462E-02  0.1086594E+00
         22   -1    0    0    0    0  0.00000000000E+00  0.00000000000E+00  0.37901296529E+03  0.37901296529E+03  0.00000000000E+00 0. -1.
         22   -1    0    0    0    0 -0.00000000000E+00 -0.00000000000E+00 -0.54212981464E+03  0.54212981464E+03  0.00000000000E+00 0. -1.
        -24    2    1    2    0    0  0.43822847423E+01 -0.10248302648E+02 -0.46918984146E+03  0.47872863654E+03  0.94433934489E+02 0.  0.
         25    2    1    2    0    0  0.95447492746E+02  0.26716191586E+02  0.70660791235E+02  0.17454373650E+03  0.12509432349E+03 0.  0.
         24    2    1    2    0    0 -0.99829777488E+02 -0.16467888938E+02  0.23541220088E+03  0.26787040689E+03  0.78092731576E+02 0.  0.
        -11    1    5    5    0    0 -0.34978144358E+02 -0.41425749094E+02  0.70664176701E+02  0.89067329249E+02  0.00000000000E+00 0.  1.
         12    1    5    5    0    0 -0.64851633130E+02  0.24957860156E+02  0.16474802418E+03  0.17880307764E+03  0.00000000000E+00 0. -1.
         11    1    3    3    0    0  0.25071940434E+02 -0.11907032848E+02 -0.44871740938E+03  0.44957501388E+03  0.00000000000E+00 0. -1.
        -12    1    3    3    0    0 -0.20689655692E+02  0.16587301996E+01 -0.20472432086E+02  0.29153622657E+02  0.00000000000E+00 0.  1.
          5    1    4    4  501    0  0.84506633608E+02  0.64491256199E+02  0.80945520105E+02  0.13367925372E+03  0.41800000000E+01 0. -1.
         -5    1    4    4    0  501  0.10940859138E+02 -0.37775064613E+02 -0.10284728870E+02  0.40864482783E+02  0.41800000000E+01 0. -1.
</event>
<event>
11    1  0.6625361E-009  0.1500386E+03  0.7561462E-02  0.1096839E+00
         22   -1    0    0    0    0  0.00000000000E+00  0.00000000000E+00  0.21632071464E+03  0.21632071464E+03  0.00000000000E+00 0. -1.
         22   -1    0    0    0    0 -0.00000000000E+00 -0.00000000000E+00 -0.31314002598E+03  0.31314002598E+03  0.00000000000E+00 0. -1.
        -24    2    1    2    0    0  0.18477036865E+02  0.72026348200E+01 -0.84181012263E+02  0.11937100983E+03  0.82278285849E+02 0.  0.
         25    2    1    2    0    0 -0.23940693016E+02  0.76012657818E+02 -0.16303856434E+03  0.22040604226E+03  0.12508464762E+03 0.  0.
         24    2    1    2    0    0  0.54636561510E+01 -0.83215292638E+02  0.15040026527E+03  0.18968368853E+03  0.80031402799E+02 0.  0.
        -13    1    5    5    0    0 -0.23134413173E+02  0.42551588065E+01  0.28771473177E+02  0.37163222655E+02  0.00000000000E+00 0.  1.
         14    1    5    5    0    0  0.28598069324E+02 -0.87470451445E+02  0.12162879209E+03  0.15252046588E+03  0.00000000000E+00 0. -1.
         11    1    3    3    0    0  0.42810291829E+02 -0.14378666595E+02 -0.71278247294E+02  0.84380422355E+02  0.00000000000E+00 0. -1.
        -12    1    3    3    0    0 -0.24333254964E+02  0.21581301415E+02 -0.12902764969E+02  0.34990587474E+02  0.00000000000E+00 0.  1.
          5    1    4    4  501    0 -0.74453148213E+02  0.32222924349E+02 -0.85349002454E+02  0.11782831897E+03  0.41800000000E+01 0. -1.
         -5    1    4    4    0  501  0.50512455197E+02  0.43789733469E+02 -0.77689561887E+02  0.10257772328E+03  0.41800000000E+01 0. -1.
</event>
<event>
11    1  0.6625362E-009  0.1999605E+03  0.7561462E-02  0.1054552E+00
         22   -1    0    0    0    0  0.00000000000E+00  0.00000000000E+00  0.57289311935E+03  0.57289311935E+03  0.00000000000E+00 0.  1.
         22   -1    0    0    0    0 -0.00000000000E+00 -0.00000000000E+00 -0.40745365780E+03  0.40745365780E+03  0.00000000000E+00 0.  1.
         24    2    1    2    0    0  0.11606470062E+03 -0.88747231849E+01 -0.24070976905E+03  0.28435173250E+03  0.96772617084E+02 0.  0.
         25    2    1    2    0    0 -0.46683132995E+02  0.15353796764E+03 -0.46955326884E+02  0.20881842270E+03  0.12508840283E+03 0.  0.
        -24    2    1    2    0    0 -0.69381567627E+02 -0.14466324445E+03  0.45310455748E+03  0.48717662195E+03  0.79347745640E+02 0.  0.
        -11    1    3    3    0    0  0.12519118750E+03 -0.29040116541E+02 -0.19463252712E+03  0.23323375058E+03  0.00000000000E+00 0.  1.
         12    1    3    3    0    0 -0.91264868744E+01  0.20165393356E+02 -0.46077241926E+02  0.51117981918E+02  0.00000000000E+00 0. -1.
         11    1    5    5    0    0 -0.31754056932E+02 -0.28588169967E+01  0.93946057273E+02  0.99208641979E+02  0.00000000000E+00 0. -1.
        -12    1    5    5    0    0 -0.37627510695E+02 -0.14180442746E+03  0.35915850021E+03  0.38796797997E+03  0.00000000000E+00 0.  1.
          5    1    4    4  501    0 -0.77781850512E+02  0.15332178749E+03 -0.42256462572E+02  0.17708943452E+03  0.41800000000E+01 0. -1.
         -5    1    4    4    0  501  0.31098717518E+02  0.21618014801E+00 -0.46988643114E+01  0.31728988180E+02  0.41800000000E+01 0. -1.
</event>
<event>
11    1  0.6625361E-009  0.2327081E+03  0.7561462E-02  0.1033536E+00
         22   -1    0    0    0    0  0.00000000000E+00  0.00000000000E+00  0.91873717999E+03  0.91873717999E+03  0.00000000000E+00 0.  1.
         22   -1    0    0    0    0 -0.00000000000E+00 -0.00000000000E+00 -0.25516740884E+03  0.25516740884E+03  0.00000000000E+00 0.  1.
         24    2    1    2    0    0 -0.20040919424E+02 -0.22738972587E+03 -0.98409025800E+02  0.26158510136E+03  0.81453686318E+02 0.  0.
         25    2    1    2    0    0  0.18422881328E+03  0.16772232281E+02  0.32181227295E+03  0.39170542128E+03  0.12509370336E+03 0.  0.
        -24    2    1    2    0    0 -0.16418789385E+03  0.21061749359E+03  0.44016652400E+03  0.52061406619E+03  0.77298408637E+02 0.  0.
        -11    1    3    3    0    0 -0.11452378292E+02 -0.22780826429E+03 -0.80792078688E+02  0.24198165680E+03  0.00000000000E+00 0.  1.
         12    1    3    3    0    0 -0.85885411320E+01  0.41853842629E+00 -0.17616947112E+02  0.19603444563E+02  0.00000000000E+00 0. -1.
         13    1    5    5    0    0 -0.11097161150E+03  0.17688019518E+03  0.28639540996E+03  0.35443424333E+03  0.00000000000E+00 0. -1.
        -14    1    5    5    0    0 -0.53216282359E+02  0.33737298408E+02  0.15377111404E+03  0.16617982286E+03  0.00000000000E+00 0.  1.
          5    1    4    4  501    0  0.98302262958E+02 -0.53706320200E+02  0.16335716993E+03  0.19811799792E+03  0.41800000000E+01 0. -1.
         -5    1    4    4    0  501  0.85926550321E+02  0.70478552481E+02  0.15845510302E+03  0.19358742336E+03  0.41800000000E+01 0. -1.
</event>
<event>
11    1  0.6625361E-009  0.1461948E+03  0.7561462E-02  0.1100832E+00
         22   -1    0    0    0    0  0.00000000000E+00  0.00000000000E+00  0.94153825734E+02  0.94153825734E+02  0.00000000000E+00 0.  1.
         22   -1    0    0    0    0 -0.00000000000E+00 -0.00000000000E+00 -0.14233284111E+04  0.14233284111E+04  0.00000000000E+00 0.  1.
        -24    2    1    2    0    0 -0.58126115332E+02  0.25463308385E+02 -0.11302461831E+04  0.11347345851E+04  0.78352530168E+02 0.  0.
         25    2    1    2    0    0 -0.26218017572E+02 -0.13357361629E+02 -0.22839665027E+03  0.26206582584E+03  0.12509062180E+03 0.  0.
         24    2    1    2    0    0  0.84344132904E+02 -0.12105946756E+02  0.29468247949E+02  0.12068182589E+03  0.80219939923E+02 0.  0.
        -11    1    5    5    0    0  0.70754435859E+02  0.11872350420E+02  0.49018549445E+02  0.86890512070E+02  0.00000000000E+00 0.  1.
         12    1    5    5    0    0  0.13589697045E+02 -0.23978297176E+02 -0.19550301495E+02  0.33791313822E+02  0.00000000000E+00 0. -1.
         11    1    3    3    0    0  0.11807838834E+02  0.19434955189E+01 -0.50624568263E+03  0.50638709839E+03  0.00000000000E+00 0. -1.
        -12    1    3    3    0    0 -0.69933954166E+02  0.23519812867E+02 -0.62400050045E+03  0.62834748675E+03  0.00000000000E+00 0.  1.
          5    1    4    4  501    0 -0.29140511737E+02  0.40850874886E+01  0.30771651850E+01  0.29879737443E+02  0.41800000000E+01 0. -1.
         -5    1    4    4    0  501  0.29224941655E+01 -0.17442449118E+02 -0.23147381545E+03  0.23218608839E+03  0.41800000000E+01 0. -1.
</event>
<event>
11    1  0.6625361E-009  0.1458227E+03  0.7561462E-02  0.1101225E+00
         22   -1    0    0    0    0  0.00000000000E+00  0.00000000000E+00  0.29359509972E+04  0.29359509972E+04  0.00000000000E+00 0.  1.
         22   -1    0    0    0    0 -0.00000000000E+00 -0.00000000000E+00 -0.54299872096E+02  0.54299872096E+02  0.00000000000E+00 0.  1.
        -24    2    1    2    0    0  0.43394206956E+02  0.15915262839E+02  0.11311988893E+02  0.96219943243E+02  0.83629920462E+02 0.  0.
         25    2    1    2    0    0 -0.98130817900E+02 -0.57787366092E+02  0.68884169388E+03  0.70930903485E+03  0.12508953030E+03 0.  0.
         24    2    1    2    0    0  0.54736610944E+02  0.41872103253E+02  0.21814974423E+04  0.21847218912E+04  0.96588205263E+02 0.  0.
        -11    1    5    5    0    0  0.11146190400E+02  0.66820531893E+02  0.13667649712E+04  0.13684428039E+04  0.00000000000E+00 0.  1.
         12    1    5    5    0    0  0.43590420544E+02 -0.24948428640E+02  0.81473247111E+03  0.81627908728E+03  0.00000000000E+00 0. -1.
         11    1    3    3    0    0  0.76829987497E+01 -0.47082213086E+01  0.43175406070E+02  0.44105685654E+02  0.00000000000E+00 0. -1.
        -12    1    3    3    0    0  0.35711208206E+02  0.20623484147E+02 -0.31863417177E+02  0.52114257590E+02  0.00000000000E+00 0.  1.
          5    1    4    4  501    0  0.20302951316E+02 -0.45245187807E+02  0.22005686211E+03  0.22561434310E+03  0.41800000000E+01 0.  1.
         -5    1    4    4    0  501 -0.11843376922E+03 -0.12542178284E+02  0.46878483177E+03  0.48369469175E+03  0.41800000000E+01 0.  1.
</event>
<event>
11    1  0.6625361E-009  0.1497950E+03  0.7561462E-02  0.1097088E+00
         22   -1    0    0    0    0  0.00000000000E+00  0.00000000000E+00  0.52809548270E+03  0.52809548270E+03  0.00000000000E+00 0. -1.
         22   -1    0    0    0    0 -0.00000000000E+00 -0.00000000000E+00 -0.12961430880E+04  0.12961430880E+04  0.00000000000E+00 0. -1.
         24    2    1    2    0    0 -0.40056920619E+02 -0.34052768080E+02 -0.12045735439E+04  0.12083103128E+04  0.79071115539E+02 0.  0.
         25    2    1    2    0    0  0.35113983172E+02  0.11373191680E+03  0.77527008849E+01  0.17284228923E+03  0.12508561812E+03 0.  0.
        -24    2    1    2    0    0  0.49429374475E+01 -0.79679148722E+02  0.42877323777E+03  0.44308596867E+03  0.78137614756E+02 0.  0.
        -13    1    3    3    0    0 -0.46524676238E+02 -0.28985317823E+02 -0.40478987024E+03  0.40848443446E+03  0.00000000000E+00 0.  1.
         14    1    3    3    0    0  0.64677556189E+01 -0.50674502569E+01 -0.79978367370E+03  0.79982587832E+03  0.00000000000E+00 0. -1.
         11    1    5    5    0    0  0.12674000203E+02 -0.17858516046E+02  0.29167027029E+03  0.29249120234E+03  0.00000000000E+00 0. -1.
        -12    1    5    5    0    0 -0.77310627555E+01 -0.61820632676E+02  0.13710296747E+03  0.15059476633E+03  0.00000000000E+00 0.  1.
          5    1    4    4  501    0 -0.41289330617E+02  0.67967688936E+02  0.21842142012E+02  0.82577037546E+02  0.41800000000E+01 0.  1.
         -5    1    4    4    0  501  0.76403313789E+02  0.45764227865E+02 -0.14089441127E+02  0.90265251682E+02  0.41800000000E+01 0.  1.
</event>
<event>
11    1  0.6625361E-009  0.1876166E+03  0.7561462E-02  0.1063643E+00
         22   -1    0    0    0    0  0.00000000000E+00  0.00000000000E+00  0.14501021485E+04  0.14501021485E+04  0.00000000000E+00 0. -1.
         22   -1    0    0    0    0 -0.00000000000E+00 -0.00000000000E+00 -0.96636450801E+03  0.96636450801E+03  0.00000000000E+00 0.  1.
         24    2    1    2    0    0  0.69266757906E+02 -0.12243478793E+03 -0.93679914105E+03  0.95086049481E+03  0.82188131041E+02 0.  0.
         25    2    1    2    0    0 -0.78177403189E+02  0.73030837954E+02  0.30880808793E+03  0.34992199796E+03  0.12505102889E+03 0.  0.
        -24    2    1    2    0    0  0.89106452835E+01  0.49403949980E+02  0.11117286937E+04  0.11156841638E+04  0.79311506849E+02 0.  0.
        -11    1    3    3    0    0  0.65192387760E+02 -0.12310221540E+03 -0.93640917524E+03  0.94671344468E+03  0.00000000000E+00 0.  1.
         12    1    3    3    0    0  0.40743701452E+01  0.66742746936E+00 -0.38996580740E+00  0.41470501369E+01  0.00000000000E+00 0. -1.
         13    1    5    5    0    0 -0.21134277001E+02  0.73420071090E+01  0.74442325042E+03  0.74475938295E+03  0.00000000000E+00 0. -1.
        -14    1    5    5    0    0  0.30044922285E+02  0.42061942871E+02  0.36730544324E+03  0.37092478082E+03  0.00000000000E+00 0.  1.
          5    1    4    4  501    0 -0.42613733628E+02 -0.30535414707E+02  0.73805518017E+02  0.90625982670E+02  0.41800000000E+01 0.  1.
         -5    1    4    4    0  501 -0.35563669561E+02  0.10356625266E+03  0.23500256991E+03  0.25929601529E+03  0.41800000000E+01 0.  1.
</event>
<event>
11    1  0.6625361E-009  0.1410136E+03  0.7561462E-02  0.1106432E+00
         22   -1    0    0    0    0  0.00000000000E+00  0.00000000000E+00  0.14054689724E+04  0.14054689724E+04  0.00000000000E+00 0. -1.
         22   -1    0    0    0    0 -0.00000000000E+00 -0.00000000000E+00 -0.14190789360E+03  0.14190789360E+03  0.00000000000E+00 0.  1.
         24    2    1    2    0    0 -0.89425131645E+01  0.20223058674E+02 -0.10419399312E+03  0.13598454655E+03  0.84536785212E+02 0.  0.
         25    2    1    2    0    0 -0.43753957421E+02 -0.57411861816E+02  0.24857373324E+03  0.28750312831E+03  0.12513439680E+03 0.  0.
        -24    2    1    2    0    0  0.52696470585E+02  0.37188803141E+02  0.11191813387E+04  0.11238891911E+04  0.80000750025E+02 0.  0.
        -13    1    3    3    0    0  0.32802126532E+02  0.17386606939E+02 -0.78625823587E+02  0.86949949630E+02  0.00000000000E+00 0.  1.
         14    1    3    3    0    0 -0.41744639697E+02  0.28364517356E+01 -0.25568169537E+02  0.49034596922E+02  0.00000000000E+00 0. -1.
         13    1    5    5    0    0  0.53173425326E+02  0.27330357612E+02  0.11049723196E+04  0.11065885363E+04  0.00000000000E+00 0. -1.
        -14    1    5    5    0    0 -0.47695474087E+00  0.98584455292E+01  0.14209019072E+02  0.17300654816E+02  0.00000000000E+00 0.  1.
          5    1    4    4  501    0 -0.33751806311E+01 -0.91013403069E+02  0.14471445219E+03  0.17103969263E+03  0.41800000000E+01 0. -1.
         -5    1    4    4    0  501 -0.40378776790E+02  0.33601541253E+02  0.10385928106E+03  0.11646343568E+03  0.41800000000E+01 0. -1.
</event>
<event>
11    1  0.6625361E-009  0.2342708E+03  0.7561462E-02  0.1032629E+00
         22   -1    0    0    0    0  0.00000000000E+00  0.00000000000E+00  0.10954451824E+04  0.10954451824E+04  0.00000000000E+00 0.  1.
         22   -1    0    0    0    0 -0.00000000000E+00 -0.00000000000E+00 -0.37614316862E+03  0.37614316862E+03  0.00000000000E+00 0. -1.
        -24    2    1    2    0    0 -0.28263738389E+02 -0.19489082044E+03 -0.28748764598E+03  0.35789691920E+03  0.81607520389E+02 0.  0.
         25    2    1    2    0    0  0.12093890050E+02  0.20779896605E+03  0.23680048220E+03  0.33918889310E+03  0.12509182372E+03 0.  0.
         24    2    1    2    0    0  0.16169848339E+02 -0.12908145619E+02  0.76998917760E+03  0.77450253875E+03  0.80887358054E+02 0.  0.
        -11    1    5    5    0    0 -0.36174930354E+00 -0.21985694687E+02  0.72955393236E+03  0.72988522512E+03  0.00000000000E+00 0.  1.
         12    1    5    5    0    0  0.16531597642E+02  0.90775490685E+01  0.40435245245E+02  0.44617313631E+02  0.00000000000E+00 0. -1.
         13    1    3    3    0    0 -0.33984495123E+02 -0.13437767965E+03 -0.25175244850E+03  0.28738754675E+03  0.00000000000E+00 0. -1.
        -14    1    3    3    0    0  0.57207567341E+01 -0.60513140787E+02 -0.35735197480E+02  0.70509372458E+02  0.00000000000E+00 0.  1.
          5    1    4    4  501    0  0.67384874141E+02  0.88961931355E+02  0.10624218765E+03  0.15414221139E+03  0.41800000000E+01 0. -1.
         -5    1    4    4    0  501 -0.55290984090E+02  0.11883703470E+03  0.13055829455E+03  0.18504668171E+03  0.41800000000E+01 0. -1.
</event>
<event>
11    1  0.6625361E-009  0.1455249E+03  0.7561462E-02  0.1101541E+00
         22   -1    0    0    0    0  0.00000000000E+00  0.00000000000E+00  0.13920835402E+04  0.13920835402E+04  0.00000000000E+00 0. -1.
         22   -1    0    0    0    0 -0.00000000000E+00 -0.00000000000E+00 -0.56921811110E+02  0.56921811110E+02  0.00000000000E+00 0. -1.
        -24    2    1    2    0    0 -0.49524633363E+02 -0.59478958236E+02  0.27419017386E+02  0.11447189842E+03  0.79759496181E+02 0.  0.
         25    2    1    2    0    0  0.11661771647E+02  0.61700351920E+02  0.42900316359E+03  0.45125369884E+03  0.12507300270E+03 0.  0.
         24    2    1    2    0    0  0.37862861716E+02 -0.22213936841E+01  0.87873954816E+03  0.88327975409E+03  0.81002466635E+02 0.  0.
        -11    1    5    5    0    0  0.38864443890E+02  0.50758483031E+01  0.16836228108E+03  0.17286430206E+03  0.00000000000E+00 0.  1.
         12    1    5    5    0    0 -0.10015821737E+01 -0.72972419872E+01  0.71037726707E+03  0.71041545203E+03  0.00000000000E+00 0. -1.
         11    1    3    3    0    0 -0.63132643606E+02 -0.69382941046E+02  0.19241470329E+02  0.95759894409E+02  0.00000000000E+00 0. -1.
        -12    1    3    3    0    0  0.13608010243E+02  0.99039828100E+01  0.81775470569E+01  0.18712004012E+02  0.00000000000E+00 0.  1.
          5    1    4    4  501    0  0.50181878035E+02  0.72559487803E+02  0.36593097308E+03  0.37643863991E+03  0.41800000000E+01 0. -1.
         -5    1    4    4    0  501 -0.38520106388E+02 -0.10859135883E+02  0.63072190505E+02  0.74815058935E+02  0.41800000000E+01 0. -1.
</event>
<event>
11    1  0.6625361E-009  0.1454793E+03  0.7561462E-02  0.1101590E+00
         22   -1    0    0    0    0  0.00000000000E+00  0.00000000000E+00  0.12073323576E+04  0.12073323576E+04  0.00000000000E+00 0. -1.
         22   -1    0    0    0    0 -0.00000000000E+00 -0.00000000000E+00 -0.41930297990E+03  0.41930297990E+03  0.00000000000E+00 0. -1.
        -24    2    1    2    0    0 -0.72768301870E+02  0.33523044811E+02 -0.29517503201E+03  0.31617024851E+03  0.80101849104E+02 0.  0.
         25    2    1    2    0    0  0.61192585584E+02  0.20300847985E+02 -0.67217253200E+02  0.15595461917E+03  0.12508807759E+03 0.  0.
         24    2    1    2    0    0  0.11575716286E+02 -0.53823892796E+02  0.11504216629E+04  0.11545104698E+04  0.79958825285E+02 0.  0.
        -13    1    5    5    0    0  0.34943726297E+02  0.33303307198E+01  0.45594712561E+03  0.45729633331E+03  0.00000000000E+00 0.  1.
         14    1    5    5    0    0 -0.23368010011E+02 -0.57154223515E+02  0.69447453727E+03  0.69721413645E+03  0.00000000000E+00 0. -1.
         13    1    3    3    0    0 -0.38304313127E+02  0.14936584876E+01 -0.24262873657E+03  0.24563826093E+03  0.00000000000E+00 0. -1.
        -14    1    3    3    0    0 -0.34463988744E+02  0.32029386323E+02 -0.52546295440E+02  0.70531987586E+02  0.00000000000E+00 0.  1.
          5    1    4    4  501    0 -0.18487951055E+02 -0.11040262169E+02 -0.66714837593E+02  0.70228439240E+02  0.41800000000E+01 0.  1.
         -5    1    4    4    0  501  0.79680536639E+02  0.31341110154E+02 -0.50241560680E+00  0.85726179935E+02  0.41800000000E+01 0.  1.
</event>
<event>
11    1  0.6625361E-009  0.1468907E+03  0.7561462E-02  0.1100099E+00
         22   -1    0    0    0    0  0.00000000000E+00  0.00000000000E+00  0.21720735975E+03  0.21720735975E+03  0.00000000000E+00 0.  1.
         22   -1    0    0    0    0 -0.00000000000E+00 -0.00000000000E+00 -0.88537585088E+03  0.88537585088E+03  0.00000000000E+00 0. -1.
        -24    2    1    2    0    0  0.25799293874E+02 -0.59655774176E+02 -0.74676336656E+03  0.75384302527E+03  0.79996038328E+02 0.  0.
         25    2    1    2    0    0 -0.87873562836E+02  0.11064393999E+02 -0.65171888442E+02  0.16654634349E+03  0.12508447396E+03 0.  0.
         24    2    1    2    0    0  0.62074268963E+02  0.48591380177E+02  0.14376676387E+03  0.18219384187E+03  0.79444172402E+02 0.  0.
        -13    1    5    5    0    0  0.40788445676E+02  0.49127892005E+02  0.14736059414E+03  0.16060009894E+03  0.00000000000E+00 0.  1.
         14    1    5    5    0    0  0.21285823286E+02 -0.53651182816E+00 -0.35938302721E+01  0.21593742935E+02  0.00000000000E+00 0. -1.
         13    1    3    3    0    0  0.19334634739E+02 -0.45848650701E+02 -0.72785584251E+03  0.72955469593E+03  0.00000000000E+00 0. -1.
        -14    1    3    3    0    0  0.64646591353E+01 -0.13807123474E+02 -0.18907524047E+02  0.24288329337E+02  0.00000000000E+00 0.  1.
          5    1    4    4  501    0  0.32184074778E+02 -0.36312701325E+00 -0.10974742651E+02  0.34261697372E+02  0.41800000000E+01 0.  1.
         -5    1    4    4    0  501 -0.12005763761E+03  0.11427521012E+02 -0.54197145790E+02  0.13228464612E+03  0.41800000000E+01 0.  1.
</event>
<event>
11    1  0.6625361E-009  0.1491264E+03  0.7561462E-02  0.1097775E+00
         22   -1    0    0    0    0  0.00000000000E+00  0.00000000000E+00  0.19723542446E+03  0.19723542446E+03  0.00000000000E+00 0.  1.
         22   -1    0    0    0    0 -0.00000000000E+00 -0.00000000000E+00 -0.45017361481E+03  0.45017361481E+03  0.00000000000E+00 0.  1.
         24    2    1    2    0    0 -0.89460417888E+02  0.18170424159E+02 -0.31156327286E+03  0.33452846852E+03  0.80649194475E+02 0.  0.
         25    2    1    2    0    0  0.44578009897E+02  0.51936236873E+02 -0.52847792137E+02  0.15207288268E+03  0.12509476746E+03 0.  0.
        -24    2    1    2    0    0  0.44882407991E+02 -0.70106661032E+02  0.11147287465E+03  0.16080768807E+03  0.80644505652E+02 0.  0.
        -13    1    3    3    0    0 -0.24659938502E+02  0.23411847132E+02 -0.21775856256E+03  0.22039741088E+03  0.00000000000E+00 0.  1.
         14    1    3    3    0    0 -0.64800479386E+02 -0.52414229723E+01 -0.93804710306E+02  0.11413105764E+03  0.00000000000E+00 0. -1.
         13    1    5    5    0    0  0.46314278350E+01 -0.98330255132E+01 -0.12893188744E+02  0.16863357629E+02  0.00000000000E+00 0. -1.
        -14    1    5    5    0    0  0.40250980156E+02 -0.60273635519E+02  0.12436606340E+03  0.14394433045E+03  0.00000000000E+00 0.  1.
          5    1    4    4  501    0  0.68623808415E+02 -0.76166071201E+01 -0.59861180607E+00  0.69174204162E+02  0.41800000000E+01 0.  1.
         -5    1    4    4    0  501 -0.24045798518E+02  0.59552843993E+02 -0.52249180331E+02  0.82898678514E+02  0.41800000000E+01 0.  1.
</event>
<event>
11    1  0.6625361E-009  0.3163695E+03  0.7561462E-02  0.9934918E-01
         22   -1    0    0    0    0  0.00000000000E+00  0.00000000000E+00  0.14152613349E+04  0.14152613349E+04  0.00000000000E+00 0. -1.
         22   -1    0    0    0    0 -0.00000000000E+00 -0.00000000000E+00 -0.33699480807E+03  0.33699480807E+03  0.00000000000E+00 0.  1.
         24    2    1    2    0    0 -0.81255609314E+01 -0.12980006597E+02 -0.15900909926E+03  0.17909290839E+03  0.80968332557E+02 0.  0.
         25    2    1    2    0    0 -0.24262920439E+03  0.15991725065E+03  0.17945947125E+02  0.31687773333E+03  0.12508790104E+03 0.  0.
        -24    2    1    2    0    0  0.25075476532E+03 -0.14693724405E+03  0.12193296790E+04  0.12562855013E+04  0.83784775396E+02 0.  0.
        -13    1    3    3    0    0 -0.55982544496E+01 -0.16935132397E+02 -0.16800340360E+03  0.16894757407E+03  0.00000000000E+00 0.  1.
         14    1    3    3    0    0 -0.25273064818E+01  0.39551258001E+01  0.89943043355E+01  0.10145334328E+02  0.00000000000E+00 0. -1.
         11    1    5    5    0    0  0.23428473605E+03 -0.13043683133E+03  0.98658810049E+03  0.10223791785E+04  0.00000000000E+00 0. -1.
        -12    1    5    5    0    0  0.16470029270E+02 -0.16500412718E+02  0.23274157851E+03  0.23390632281E+03  0.00000000000E+00 0.  1.
          5    1    4    4  501    0 -0.16088815260E+02 -0.77442515548E+01  0.29544617613E+02  0.34773269022E+02  0.41800000000E+01 0. -1.
         -5    1    4    4    0  501 -0.22654038913E+03  0.16766150220E+03 -0.11598670488E+02  0.28210446431E+03  0.41800000000E+01 0. -1.
</event>
<event>
11    1  0.6625361E-009  0.1629648E+03  0.7561462E-02  0.1084321E+00
         22   -1    0    0    0    0  0.00000000000E+00  0.00000000000E+00  0.14001711307E+04  0.14001711307E+04  0.00000000000E+00 0. -1.
         22   -1    0    0    0    0 -0.00000000000E+00 -0.00000000000E+00 -0.29572723358E+03  0.29572723358E+03  0.00000000000E+00 0. -1.
         24    2    1    2    0    0 -0.75085420366E+02 -0.68103658953E+02 -0.24122398401E+03  0.27355793142E+03  0.79806031540E+02 0.  0.
         25    2    1    2    0    0  0.82660251496E+02  0.16742407344E+03  0.33394177566E+03  0.40252687379E+03  0.12508891655E+03 0.  0.
        -24    2    1    2    0    0 -0.75748311294E+01 -0.99320414490E+02  0.10117261055E+04  0.10198135591E+04  0.80672547953E+02 0.  0.
        -13    1    3    3    0    0  0.91969571523E+01 -0.18769379109E+02 -0.98019573529E+02  0.10022330272E+03  0.00000000000E+00 0.  1.
         14    1    3    3    0    0 -0.84282377519E+02 -0.49334279845E+02 -0.14320441048E+03  0.17333462871E+03  0.00000000000E+00 0. -1.
         11    1    5    5    0    0  0.14840050126E+02 -0.99956945406E+02  0.69670454496E+03  0.70399491546E+03  0.00000000000E+00 0. -1.
        -12    1    5    5    0    0 -0.22414881255E+02  0.63653091633E+00  0.31502156050E+03  0.31581864361E+03  0.00000000000E+00 0.  1.
          5    1    4    4  501    0  0.42371773311E+02 -0.91443604348E+01  0.61648727765E+02  0.75478636290E+02  0.41800000000E+01 0.  1.
         -5    1    4    4    0  501  0.40288478185E+02  0.17656843388E+03  0.27229304790E+03  0.32704823750E+03  0.41800000000E+01 0.  1.
</event>
<event>
11    1  0.6625361E-009  0.1570724E+03  0.7561462E-02  0.1089864E+00
         22   -1    0    0    0    0  0.00000000000E+00  0.00000000000E+00  0.75523466160E+03  0.75523466160E+03  0.00000000000E+00 0. -1.
         22   -1    0    0    0    0 -0.00000000000E+00 -0.00000000000E+00 -0.34839282611E+03  0.34839282611E+03  0.00000000000E+00 0.  1.
        -24    2    1    2    0    0 -0.31772041214E+02  0.52244994673E+01 -0.30248117997E+03  0.31482802382E+03  0.81148397082E+02 0.  0.
         25    2    1    2    0    0  0.75182837170E+02  0.77065838717E+02  0.17512225723E+03  0.24064420342E+03  0.12510085994E+03 0.  0.
         24    2    1    2    0    0 -0.43410795956E+02 -0.82290338184E+02  0.53420075823E+03  0.54815526047E+03  0.80296590954E+02 0.  0.
        -13    1    5    5    0    0 -0.10071447541E+02 -0.18891830850E+02  0.21031773252E+02  0.30011178160E+02  0.00000000000E+00 0.  1.
         14    1    5    5    0    0 -0.33339348414E+02 -0.63398507335E+02  0.51316898498E+03  0.51814408231E+03  0.00000000000E+00 0. -1.
         11    1    3    3    0    0 -0.28761057862E+02 -0.30038140249E+02 -0.86632874940E+02  0.96097571974E+02  0.00000000000E+00 0. -1.
        -12    1    3    3    0    0 -0.30109833527E+01  0.35262639716E+02 -0.21584830503E+03  0.21873045185E+03  0.00000000000E+00 0.  1.
          5    1    4    4  501    0  0.84851301059E+02  0.11399338923E+02  0.14315394699E+03  0.16685386767E+03  0.41800000000E+01 0.  1.
         -5    1    4    4    0  501 -0.96684638890E+01  0.65666499794E+02  0.31968310245E+02  0.73790335743E+02  0.41800000000E+01 0.  1.
</event>
<event>
11    1  0.6625361E-009  0.1549128E+03  0.7561462E-02  0.1091962E+00
         22   -1    0    0    0    0  0.00000000000E+00  0.00000000000E+00  0.73473877589E+03  0.73473877589E+03  0.00000000000E+00 0. -1.
         22   -1    0    0    0    0 -0.00000000000E+00 -0.00000000000E+00 -0.32945846782E+03  0.32945846782E+03  0.00000000000E+00 0.  1.
        -24    2    1    2    0    0  0.52667085872E+02  0.77020284650E+02 -0.25341428558E+03  0.28240576867E+03  0.82633358022E+02 0.  0.
         25    2    1    2    0    0 -0.65538613844E+02 -0.50080706319E+02  0.36923004981E+02  0.15430843177E+03  0.12507756301E+03 0.  0.
         24    2    1    2    0    0  0.12871527972E+02 -0.26939578331E+02  0.62177158868E+03  0.62748304327E+03  0.79016732382E+02 0.  0.
        -11    1    5    5    0    0  0.49123474417E-01  0.20221852422E+01 -0.20370961543E+01  0.28707850863E+01  0.00000000000E+00 0.  1.
         12    1    5    5    0    0  0.12822404498E+02 -0.28961763573E+02  0.62380868483E+03  0.62461225819E+03  0.00000000000E+00 0. -1.
         11    1    3    3    0    0 -0.77619992229E+01 -0.28486673964E+01  0.16070134174E+01  0.84229466338E+01  0.00000000000E+00 0. -1.
        -12    1    3    3    0    0  0.60429085095E+02  0.79868952046E+02 -0.25502129900E+03  0.27398282203E+03  0.00000000000E+00 0.  1.
          5    1    4    4  501    0 -0.32893870114E+01 -0.13477218135E+02  0.72334492493E+02  0.73771313393E+02  0.41800000000E+01 0. -1.
         -5    1    4    4    0  501 -0.62249226832E+02 -0.36603488184E+02 -0.35411487512E+02  0.80537118376E+02  0.41800000000E+01 0. -1.
</event>
<event>
11    1  0.6625361E-009  0.1714296E+03  0.7561462E-02  0.1076794E+00
         22   -1    0    0    0    0  0.00000000000E+00  0.00000000000E+00  0.80327863832E+03  0.80327863832E+03  0.00000000000E+00 0. -1.
         22   -1    0    0    0    0 -0.00000000000E+00 -0.00000000000E+00 -0.19841336818E+04  0.19841336818E+04  0.00000000000E+00 0.  1.
         24    2    1    2    0    0  0.38983507423E+01 -0.96341231793E+02 -0.19307363004E+04  0.19348637585E+04  0.81598237531E+02 0.  0.
         25    2    1    2    0    0 -0.11429318358E+03  0.42487751794E+02  0.13628006594E+03  0.22155484495E+03  0.12508457972E+03 0.  0.
        -24    2    1    2    0    0  0.11039483283E+03  0.53853479999E+02  0.61360119091E+03  0.63099371670E+03  0.80990324117E+02 0.  0.
        -11    1    3    3    0    0 -0.18908641378E+02 -0.97127119735E+02 -0.17314404910E+04  0.17342656624E+04  0.00000000000E+00 0.  1.
         12    1    3    3    0    0  0.22806992120E+02  0.78588794232E+00 -0.19929580939E+03  0.20059809608E+03  0.00000000000E+00 0. -1.
         11    1    5    5    0    0  0.11795364924E+03  0.44857969580E+02  0.59950348290E+03  0.61264159736E+03  0.00000000000E+00 0. -1.
        -12    1    5    5    0    0 -0.75588164047E+01  0.89955104186E+01  0.14097708012E+02  0.18352119342E+02  0.00000000000E+00 0.  1.
          5    1    4    4  501    0 -0.42787883104E+02  0.41852647780E+02 -0.79434211601E+01  0.60522866806E+02  0.41800000000E+01 0. -1.
         -5    1    4    4    0  501 -0.71505300471E+02  0.63510401409E+00  0.14422348710E+03  0.16103197814E+03  0.41800000000E+01 0. -1.
</event>
<event>
11    1  0.6625361E-009  0.1371023E+03  0.7561462E-02  0.1110838E+00
         22   -1    0    0    0    0  0.00000000000E+00  0.00000000000E+00  0.16451097381E+04  0.16451097381E+04  0.00000000000E+00 0. -1.
         22   -1    0    0    0    0 -0.00000000000E+00 -0.00000000000E+00 -0.63361347942E+03  0.63361347942E+03  0.00000000000E+00 0. -1.
         24    2    1    2    0    0 -0.15539534964E+02 -0.49886818055E+02 -0.57860090907E+03  0.58452459331E+03  0.64496639076E+02 0.  0.
         25    2    1    2    0    0 -0.99561224956E+01 -0.17749550424E+01  0.27370322774E+02  0.12845126319E+03  0.12509323565E+03 0.  0.
        -24    2    1    2    0    0  0.25495657460E+02  0.51661773097E+02  0.15627268450E+04  0.15657473610E+04  0.78298398361E+02 0.  0.
        -13    1    3    3    0    0 -0.27480342876E+02 -0.41582051454E+02 -0.21778425426E+03  0.22341490024E+03  0.00000000000E+00 0.  1.
         14    1    3    3    0    0  0.11940807912E+02 -0.83047666003E+01 -0.36081665481E+03  0.36110969307E+03  0.00000000000E+00 0. -1.
         11    1    5    5    0    0 -0.57827609091E+01  0.59731352921E+02  0.12280044416E+04  0.12294698791E+04  0.00000000000E+00 0. -1.
        -12    1    5    5    0    0  0.31278418369E+02 -0.80695798236E+01  0.33472240338E+03  0.33627748199E+03  0.00000000000E+00 0.  1.
          5    1    4    4  501    0  0.49263479412E+02  0.60569902265E+01 -0.18379943424E+02  0.53093052791E+02  0.41800000000E+01 0. -1.
         -5    1    4    4    0  501 -0.59219601908E+02 -0.78319452689E+01  0.45750266198E+02  0.75358210395E+02  0.41800000000E+01 0. -1.
</event>
<event>
11    1  0.6625361E-009  0.1576550E+03  0.7561462E-02  0.1089304E+00
         22   -1    0    0    0    0  0.00000000000E+00  0.00000000000E+00  0.12001215373E+04  0.12001215373E+04  0.00000000000E+00 0. -1.
         22   -1    0    0    0    0 -0.00000000000E+00 -0.00000000000E+00 -0.26764480882E+03  0.26764480882E+03  0.00000000000E+00 0.  1.
        -24    2    1    2    0    0  0.99273530306E+01  0.11829576443E+02 -0.16379336229E+03  0.18292919911E+03  0.79977091357E+02 0.  0.
         25    2    1    2    0    0  0.46824777852E+02  0.66288616757E+02 -0.29386312244E+02  0.15197211887E+03  0.12508088997E+03 0.  0.
         24    2    1    2    0    0 -0.56752130882E+02 -0.78118193200E+02  0.11256564030E+04  0.11328650281E+04  0.83412096505E+02 0.  0.
        -11    1    5    5    0    0 -0.13316652215E+02 -0.60869410513E+02  0.32959673058E+03  0.33543467795E+03  0.00000000000E+00 0.  1.
         12    1    5    5    0    0 -0.43435478668E+02 -0.17248782687E+02  0.79605967242E+03  0.79743035016E+03  0.00000000000E+00 0. -1.
         11    1    3    3    0    0 -0.46870241912E+01 -0.22512016998E+02 -0.10718440828E+02  0.25370141483E+02  0.00000000000E+00 0. -1.
        -12    1    3    3    0    0  0.14614377222E+02  0.34341593441E+02 -0.15307492146E+03  0.15755905763E+03  0.00000000000E+00 0.  1.
          5    1    4    4  501    0 -0.20827862779E+02  0.55500374542E+02 -0.52758341582E+02  0.79467014847E+02  0.41800000000E+01 0.  1.
         -5    1    4    4    0  501  0.67652640631E+02  0.10788242215E+02  0.23372029338E+02  0.72505104026E+02  0.41800000000E+01 0.  1.
</event>
<event>
11    1  0.6625361E-009  0.2358915E+03  0.7561462E-02  0.1031695E+00
         22   -1    0    0    0    0  0.00000000000E+00  0.00000000000E+00  0.61699403226E+03  0.61699403226E+03  0.00000000000E+00 0. -1.
         22   -1    0    0    0    0 -0.00000000000E+00 -0.00000000000E+00 -0.20879210343E+04  0.20879210343E+04  0.00000000000E+00 0.  1.
         24    2    1    2    0    0  0.48824441674E+02  0.78970124038E+01 -0.16575931667E+04  0.16603024046E+04  0.80887448341E+02 0.  0.
         25    2    1    2    0    0 -0.15682975817E+03 -0.17435288155E+03 -0.36559546224E+03  0.45199725445E+03  0.12508787176E+03 0.  0.
        -24    2    1    2    0    0  0.10800531649E+03  0.16645586915E+03  0.55226162692E+03  0.59261540756E+03  0.82628154728E+02 0.  0.
        -11    1    3    3    0    0  0.44046788880E+02 -0.49449829651E+01 -0.16139584669E+04  0.16145669715E+04  0.00000000000E+00 0.  1.
         12    1    3    3    0    0  0.47776527935E+01  0.12841995369E+02 -0.43634699788E+02  0.45735433057E+02  0.00000000000E+00 0. -1.
         13    1    5    5    0    0  0.87191790185E+02  0.16848098440E+03  0.45199916940E+03  0.49019536873E+03  0.00000000000E+00 0. -1.
        -14    1    5    5    0    0  0.20813526308E+02 -0.20251152485E+01  0.10026245751E+03  0.10242003884E+03  0.00000000000E+00 0.  1.
          5    1    4    4  501    0 -0.33473516428E+02 -0.85448997292E+02 -0.23207792118E+03  0.24959896102E+03  0.41800000000E+01 0. -1.
         -5    1    4    4    0  501 -0.12335624174E+03 -0.88903884262E+02 -0.13351754106E+03  0.20239829343E+03  0.41800000000E+01 0. -1.
</event>
<event>
11    1  0.6625361E-009  0.1345181E+03  0.7561462E-02  0.1113839E+00
         22   -1    0    0    0    0  0.00000000000E+00  0.00000000000E+00  0.39441684122E+03  0.39441684122E+03  0.00000000000E+00 0.  1.
         22   -1    0    0    0    0 -0.00000000000E+00 -0.00000000000E+00 -0.14934082615E+03  0.14934082615E+03  0.00000000000E+00 0.  1.
        -24    2    1    2    0    0 -0.13087683660E+02  0.27203368952E+02 -0.85457798945E+02  0.11833859710E+03  0.76089929807E+02 0.  0.
         25    2    1    2    0    0  0.51449976832E+02  0.66776409006E+01  0.10799036271E+03  0.17321212088E+03  0.12509528120E+03 0.  0.
         24    2    1    2    0    0 -0.38362293173E+02 -0.33881009853E+02  0.22254345130E+03  0.25220694938E+03  0.10706619090E+03 0.  0.
        -11    1    5    5    0    0 -0.70313629412E+01  0.31224180195E+02  0.13478310114E+03  0.13853112953E+03  0.00000000000E+00 0.  1.
         12    1    5    5    0    0 -0.31330930231E+02 -0.65105190048E+02  0.87760350159E+02  0.11367581986E+03  0.00000000000E+00 0. -1.
         11    1    3    3    0    0 -0.14061410592E+02  0.52091013282E+02 -0.42504251136E+02  0.68686303564E+02  0.00000000000E+00 0. -1.
        -12    1    3    3    0    0  0.97372693253E+00 -0.24887644330E+02 -0.42953547808E+02  0.49652293540E+02  0.00000000000E+00 0.  1.
          5    1    4    4  501    0 -0.47320593210E+01  0.25396748824E+02 -0.19461095280E+02  0.32612786844E+02  0.41800000000E+01 0.  1.
         -5    1    4    4    0  501  0.56182036153E+02 -0.18719107923E+02  0.12745145799E+03  0.14059933403E+03  0.41800000000E+01 0.  1.
</event>
<event>
11    1  0.6625361E-009  0.1526770E+03  0.7561462E-02  0.1094174E+00
         22   -1    0    0    0    0  0.00000000000E+00  0.00000000000E+00  0.11174540040E+04  0.11174540040E+04  0.00000000000E+00 0.  1.
         22   -1    0    0    0    0 -0.00000000000E+00 -0.00000000000E+00 -0.50348636851E+03  0.50348636851E+03  0.00000000000E+00 0.  1.
        -24    2    1    2    0    0 -0.73250442399E+02 -0.50506922231E+02 -0.46784051007E+03  0.48739757684E+03  0.10375489647E+03 0.  0.
         25    2    1    2    0    0  0.31271795126E+02  0.54793564310E+02  0.18394128038E+03  0.23121833864E+03  0.12508903085E+03 0.  0.
         24    2    1    2    0    0  0.41978647273E+02 -0.42866420793E+01  0.89786686522E+03  0.90232445706E+03  0.79018580182E+02 0.  0.
        -11    1    5    5    0    0  0.19613142756E+02  0.89819569391E+01  0.81893433029E+03  0.81921840082E+03  0.00000000000E+00 0.  1.
         12    1    5    5    0    0  0.22365504517E+02 -0.13268599018E+02  0.78932534939E+02  0.83106056242E+02  0.00000000000E+00 0. -1.
         11    1    3    3    0    0 -0.72243200284E+02 -0.68310779267E+02 -0.45417689285E+03  0.46493235266E+03  0.00000000000E+00 0. -1.
        -12    1    3    3    0    0 -0.10072421155E+01  0.17803857036E+02 -0.13663617228E+02  0.22465224187E+02  0.00000000000E+00 0.  1.
          5    1    4    4  501    0 -0.17335522005E+02 -0.31859549090E+02  0.26941474818E+02  0.45374735886E+02  0.41800000000E+01 0.  1.
         -5    1    4    4    0  501  0.48607317131E+02  0.86653113400E+02  0.15699980556E+03  0.18584360276E+03  0.41800000000E+01 0.  1.
</event>
<event>
11    1  0.6625361E-009  0.1475911E+03  0.7561462E-02  0.1099366E+00
         22   -1    0    0    0    0  0.00000000000E+00  0.00000000000E+00  0.15745505459E+03  0.15745505459E+03  0.00000000000E+00 0.  1.
         22   -1    0    0    0    0 -0.00000000000E+00 -0.00000000000E+00 -0.97189357598E+03  0.97189357598E+03  0.00000000000E+00 0. -1.
        -24    2    1    2    0    0 -0.14444674637E+02  0.26978025073E+02 -0.60759387129E+03  0.61374668451E+03  0.81106213474E+02 0.  0.
         25    2    1    2    0    0  0.40801008641E+02 -0.98694821574E+02 -0.31834232554E+03  0.35832272262E+03  0.12509175512E+03 0.  0.
         24    2    1    2    0    0 -0.26356334004E+02  0.71716796501E+02  0.11149767545E+03  0.15727922344E+03  0.80418077903E+02 0.  0.
        -11    1    5    5    0    0 -0.48515836861E+02  0.32171106441E+02  0.89812641710E+02  0.10702839402E+03  0.00000000000E+00 0.  1.
         12    1    5    5    0    0  0.22159502856E+02  0.39545690060E+02  0.21685033737E+02  0.50250829419E+02  0.00000000000E+00 0. -1.
         13    1    3    3    0    0 -0.35595509770E+02  0.25065792882E+02 -0.55927246063E+03  0.56096436563E+03  0.00000000000E+00 0. -1.
        -14    1    3    3    0    0  0.21150835133E+02  0.19122321909E+01 -0.48321410653E+02  0.52782318879E+02  0.00000000000E+00 0.  1.
          5    1    4    4  501    0 -0.18834897723E+02  0.98438893533E+01 -0.13691347164E+03  0.13861611251E+03  0.41800000000E+01 0.  1.
         -5    1    4    4    0  501  0.59635906364E+02 -0.10853871093E+03 -0.18142885390E+03  0.21970661011E+03  0.41800000000E+01 0.  1.
</event>
<event>
11    1  0.6625361E-009  0.1449021E+03  0.7561462E-02  0.1102205E+00
         22   -1    0    0    0    0  0.00000000000E+00  0.00000000000E+00  0.83666027533E+03  0.83666027533E+03  0.00000000000E+00 0. -1.
         22   -1    0    0    0    0 -0.00000000000E+00 -0.00000000000E+00 -0.40359137301E+02  0.40359137301E+02  0.00000000000E+00 0.  1.
        -24    2    1    2    0    0  0.57037637992E+01  0.70089890305E+01  0.17831771022E+03  0.19634425159E+03  0.81683538778E+02 0.  0.
         25    2    1    2    0    0 -0.35821451407E+02  0.62479726125E+02  0.18860519218E+03  0.23750044118E+03  0.12509056115E+03 0.  0.
         24    2    1    2    0    0  0.30117687607E+02 -0.69488715155E+02  0.42937823564E+03  0.44317471986E+03  0.79387697045E+02 0.  0.
        -13    1    5    5    0    0 -0.75683202934E+01  0.11586878365E+02  0.21185366899E+02  0.25305236473E+02  0.00000000000E+00 0.  1.
         14    1    5    5    0    0  0.37686007901E+02 -0.81075593520E+02  0.40819286874E+03  0.41786948339E+03  0.00000000000E+00 0. -1.
         11    1    3    3    0    0 -0.18891078756E+02 -0.28594087390E+02  0.11226505315E+03  0.11737945667E+03  0.00000000000E+00 0. -1.
        -12    1    3    3    0    0  0.24594842555E+02  0.35603076420E+02  0.66052657072E+02  0.78964794923E+02  0.00000000000E+00 0.  1.
          5    1    4    4  501    0  0.33763171610E+02 -0.58882796713E+01  0.13617957069E+02  0.37115289968E+02  0.41800000000E+01 0.  1.
         -5    1    4    4    0  501 -0.69584623017E+02  0.68368005796E+02  0.17498723511E+03  0.20038515121E+03  0.41800000000E+01 0.  1.
</event>
<event>
11    1  0.6625361E-009  0.1553192E+03  0.7561462E-02  0.1091564E+00
         22   -1    0    0    0    0  0.00000000000E+00  0.00000000000E+00  0.34981523410E+03  0.34981523410E+03  0.00000000000E+00 0. -1.
         22   -1    0    0    0    0 -0.00000000000E+00 -0.00000000000E+00 -0.12079217884E+04  0.12079217884E+04  0.00000000000E+00 0.  1.
        -24    2    1    2    0    0 -0.20244145741E+02 -0.45382524790E+02 -0.10787980410E+04  0.10821396626E+04  0.68932119324E+02 0.  0.
         25    2    1    2    0    0 -0.63959233465E+02 -0.70175128770E+00 -0.71633982545E+02  0.15770078707E+03  0.12508730866E+03 0.  0.
         24    2    1    2    0    0  0.84203379206E+02  0.46084276077E+02  0.29232546923E+03  0.31789657286E+03  0.79937985373E+02 0.  0.
        -13    1    5    5    0    0  0.41554117893E+02  0.18509215717E+02  0.24256935322E+03  0.24679794753E+03  0.00000000000E+00 0.  1.
         14    1    5    5    0    0  0.42649261313E+02  0.27575060361E+02  0.49756116006E+02  0.71098625334E+02  0.00000000000E+00 0. -1.
         11    1    3    3    0    0  0.98334026295E+01 -0.29494435278E+02 -0.17766454992E+03  0.18036438068E+03  0.00000000000E+00 0. -1.
        -12    1    3    3    0    0 -0.30077548370E+02 -0.15888089512E+02 -0.90113349106E+03  0.90177528188E+03  0.00000000000E+00 0.  1.
          5    1    4    4  501    0  0.45609528552E+00  0.36290511184E+02  0.18399434924E+02  0.40905022069E+02  0.41800000000E+01 0. -1.
         -5    1    4    4    0  501 -0.64415328751E+02 -0.36992262472E+02 -0.90033417469E+02  0.11679576500E+03  0.41800000000E+01 0. -1.
</event>
<event>
11    1  0.6703273E-009  0.1816875E+03  0.7561462E-02  0.1068286E+00
         22   -1    0    0    0    0  0.00000000000E+00  0.00000000000E+00  0.17293145673E+04  0.17293145673E+04  0.00000000000E+00 0.  1.
         22   -1    0    0    0    0 -0.00000000000E+00 -0.00000000000E+00 -0.11405164939E+04  0.11405164939E+04  0.00000000000E+00 0. -1.
         24    2    1    2    0    0 -0.65535661960E+02 -0.75700025946E+02 -0.10854803569E+04  0.10929435149E+04  0.78946212826E+02 0.  0.
         25    2    1    2    0    0  0.11793526198E+02 -0.52634752821E+02  0.50717648422E+02  0.14535927010E+03  0.12509009984E+03 0.  0.
        -24    2    1    2    0    0  0.53742135763E+02  0.12833477877E+03  0.16235607819E+04  0.16315282762E+04  0.81097908672E+02 0.  0.
        -13    1    3    3    0    0 -0.49529552707E+02 -0.18075818157E+01 -0.33194587322E+03  0.33562554535E+03  0.00000000000E+00 0.  1.
         14    1    3    3    0    0 -0.16006109253E+02 -0.73892444131E+02 -0.75353448370E+03  0.75731796952E+03  0.00000000000E+00 0. -1.
         13    1    5    5    0    0  0.29358662727E+02  0.11729435865E+03  0.98299154152E+03  0.99040005470E+03  0.00000000000E+00 0. -1.
        -14    1    5    5    0    0  0.24383473035E+02  0.11040420120E+02  0.64056924042E+03  0.64112822150E+03  0.00000000000E+00 0.  1.
          5    1    4    4  501    0  0.47054519554E+02 -0.76985348561E+02  0.47833186600E+02  0.10220742558E+03  0.41800000000E+01 0.  1.
         -5    1    4    4    0  501 -0.35260993356E+02  0.24350595739E+02  0.28844618224E+01  0.43151844518E+02  0.41800000000E+01 0.  1.
</event>
<event>
11    1  0.6625361E-009  0.2163294E+03  0.7561462E-02  0.1043541E+00
         22   -1    0    0    0    0  0.00000000000E+00  0.00000000000E+00  0.21803100428E+03  0.21803100428E+03  0.00000000000E+00 0. -1.
         22   -1    0    0    0    0 -0.00000000000E+00 -0.00000000000E+00 -0.13475670504E+04  0.13475670504E+04  0.00000000000E+00 0. -1.
         24    2    1    2    0    0 -0.60119246882E+02  0.10911046440E+02 -0.11371668277E+04  0.11416039543E+04  0.79861253339E+02 0.  0.
         25    2    1    2    0    0  0.18762787090E+03 -0.10011100098E+03 -0.14497098497E+02  0.24715225420E+03  0.12509052896E+03 0.  0.
        -24    2    1    2    0    0 -0.12750862402E+03  0.89199954540E+02  0.22127880034E+02  0.17684184618E+03  0.81045138008E+02 0.  0.
        -13    1    3    3    0    0 -0.45898830370E+02  0.41510175574E+02 -0.55049092984E+03  0.55395853738E+03  0.00000000000E+00 0.  1.
         14    1    3    3    0    0 -0.14220416512E+02 -0.30599129134E+02 -0.58667589786E+03  0.58764541697E+03  0.00000000000E+00 0. -1.
         11    1    5    5    0    0 -0.14360438955E+02  0.42759403219E+02  0.30175794629E+02  0.54269396091E+02  0.00000000000E+00 0. -1.
        -12    1    5    5    0    0 -0.11314818506E+03  0.46440551322E+02 -0.80479145949E+01  0.12257245009E+03  0.00000000000E+00 0.  1.
          5    1    4    4  501    0  0.32097712666E+02  0.29828393008E+02 -0.25517600580E+01  0.44090589327E+02  0.41800000000E+01 0. -1.
         -5    1    4    4    0  501  0.15553015824E+03 -0.12993939399E+03 -0.11945338439E+02  0.20306166487E+03  0.41800000000E+01 0. -1.
</event>
<event>
11    1  0.6625361E-009  0.1374011E+03  0.7561462E-02  0.1110496E+00
         22   -1    0    0    0    0  0.00000000000E+00  0.00000000000E+00  0.15807538338E+04  0.15807538338E+04  0.00000000000E+00 0.  1.
         22   -1    0    0    0    0 -0.00000000000E+00 -0.00000000000E+00 -0.98293875260E+03  0.98293875260E+03  0.00000000000E+00 0. -1.
         24    2    1    2    0    0  0.43847459357E+02  0.34328792897E+02 -0.91295811219E+03  0.91795221102E+03  0.77734685852E+02 0.  0.
         25    2    1    2    0    0 -0.87426852609E+02 -0.55512551088E+02  0.33870532250E+02  0.16589219018E+03  0.12509159813E+03 0.  0.
        -24    2    1    2    0    0  0.43579393252E+02  0.21183758191E+02  0.14769026611E+04  0.14798481852E+04  0.79757542926E+02 0.  0.
        -13    1    3    3    0    0  0.27582576327E+02 -0.13294323577E+02 -0.13773313654E+03  0.14109555080E+03  0.00000000000E+00 0.  1.
         14    1    3    3    0    0  0.16264883030E+02  0.47623116474E+02 -0.77522497565E+03  0.77685666021E+03  0.00000000000E+00 0. -1.
         11    1    5    5    0    0  0.52594482989E+02  0.14678535219E+02  0.51598623998E+03  0.51886745792E+03  0.00000000000E+00 0. -1.
        -12    1    5    5    0    0 -0.90150897373E+01  0.65052229716E+01  0.96091642112E+03  0.96098072725E+03  0.00000000000E+00 0.  1.
          5    1    4    4  501    0 -0.92056329316E+02 -0.68437119870E+02  0.64787923160E+02  0.13180650413E+03  0.41800000000E+01 0.  1.
         -5    1    4    4    0  501  0.46294767073E+01  0.12924568783E+02 -0.30917390910E+02  0.34085686050E+02  0.41800000000E+01 0.  1.
</event>
<event>
11    1  0.6625361E-009  0.1280795E+03  0.7561462E-02  0.1121651E+00
         22   -1    0    0    0    0  0.00000000000E+00  0.00000000000E+00  0.72079413905E+03  0.72079413905E+03  0.00000000000E+00 0. -1.
         22   -1    0    0    0    0 -0.00000000000E+00 -0.00000000000E+00 -0.22832456733E+03  0.22832456733E+03  0.00000000000E+00 0.  1.
        -24    2    1    2    0    0 -0.98183238264E+01  0.27958506519E+02 -0.17008203087E+03  0.18960784830E+03  0.78391079487E+02 0.  0.
         25    2    1    2    0    0 -0.16959312284E+02 -0.17808964733E+02  0.43733127661E+02  0.13477792860E+03  0.12509087131E+03 0.  0.
         24    2    1    2    0    0  0.26777636110E+02 -0.10149541786E+02  0.61881847493E+03  0.62473292947E+03  0.80838562946E+02 0.  0.
        -11    1    5    5    0    0 -0.14702254791E+02 -0.34464006646E+02  0.29294678412E+03  0.29533327340E+03  0.00000000000E+00 0.  1.
         12    1    5    5    0    0  0.41479890901E+02  0.24314464860E+02  0.32587169081E+03  0.32939965607E+03  0.00000000000E+00 0. -1.
         13    1    3    3    0    0  0.13885044875E+02 -0.11589153110E+02 -0.58227794456E+01  0.19000202669E+02  0.00000000000E+00 0. -1.
        -14    1    3    3    0    0 -0.23703368701E+02  0.39547659629E+02 -0.16425925142E+03  0.17060764563E+03  0.00000000000E+00 0.  1.
          5    1    4    4  501    0 -0.31110460939E+02 -0.66299089230E+02  0.10337166542E+02  0.74079412961E+02  0.41800000000E+01 0.  1.
         -5    1    4    4    0  501  0.14151148655E+02  0.48490124496E+02  0.33395961119E+02  0.60698515641E+02  0.41800000000E+01 0.  1.
</event>
<event>
11    1  0.6625361E-009  0.1584285E+03  0.7561462E-02  0.1088565E+00
         22   -1    0    0    0    0  0.00000000000E+00  0.00000000000E+00  0.11975307036E+03  0.11975307036E+03  0.00000000000E+00 0.  1.
         22   -1    0    0    0    0 -0.00000000000E+00 -0.00000000000E+00 -0.24846453275E+04  0.24846453275E+04  0.00000000000E+00 0. -1.
         24    2    1    2    0    0  0.36044595125E+02  0.22516938360E+01 -0.21198392590E+04  0.21216023414E+04  0.78573074100E+02 0.  0.
         25    2    1    2    0    0 -0.12820327196E+03 -0.16647934924E+02 -0.29895638868E+03  0.34890439762E+03  0.12508446615E+03 0.  0.
        -24    2    1    2    0    0  0.92158676839E+02  0.14396241088E+02  0.53903390530E+02  0.13389165887E+03  0.79504259820E+02 0.  0.
        -13    1    3    3    0    0  0.32856754547E+02 -0.19796094397E+02 -0.45502071566E+03  0.45663475925E+03  0.00000000000E+00 0.  1.
         14    1    3    3    0    0  0.31878405779E+01  0.22047788233E+02 -0.16648185433E+04  0.16649675821E+04  0.00000000000E+00 0. -1.
         11    1    5    5    0    0  0.24189429856E+02  0.10119141439E+02 -0.20309276057E+02  0.33166130829E+02  0.00000000000E+00 0. -1.
        -12    1    5    5    0    0  0.67969246983E+02  0.42770996491E+01  0.74212666587E+02  0.10072552804E+03  0.00000000000E+00 0.  1.
          5    1    4    4  501    0 -0.53849365167E+02 -0.67075069684E+02 -0.18217486594E+03  0.20150427609E+03  0.41800000000E+01 0.  1.
         -5    1    4    4    0  501 -0.74353906796E+02  0.50427134759E+02 -0.11678152274E+03  0.14740012153E+03  0.41800000000E+01 0.  1.
</event>
<event>
11    1  0.6625361E-009  0.1585403E+03  0.7561462E-02  0.1088458E+00
         22   -1    0    0    0    0  0.00000000000E+00  0.00000000000E+00  0.74807490779E+03  0.74807490779E+03  0.00000000000E+00 0. -1.
         22   -1    0    0    0    0 -0.00000000000E+00 -0.00000000000E+00 -0.34698432436E+03  0.34698432436E+03  0.00000000000E+00 0.  1.
         24    2    1    2    0    0  0.46218529122E+02 -0.29297367040E+02 -0.27200282286E+03  0.28916932031E+03  0.81479273546E+02 0.  0.
         25    2    1    2    0    0 -0.11685235407E+01  0.11503666392E+03  0.59903498596E+02  0.18019442573E+03  0.12508717930E+03 0.  0.
        -24    2    1    2    0    0 -0.45050005581E+02 -0.85739296879E+02  0.61318990769E+03  0.62569548611E+03  0.78180869836E+02 0.  0.
        -13    1    3    3    0    0  0.49477335193E+02 -0.53417310663E+02 -0.22038110200E+03  0.23209749222E+03  0.00000000000E+00 0.  1.
         14    1    3    3    0    0 -0.32588060711E+01  0.24119943623E+02 -0.51621720852E+02  0.57071828087E+02  0.00000000000E+00 0. -1.
         11    1    5    5    0    0 -0.66379543539E+02 -0.51027387056E+02  0.41030986953E+03  0.41876512159E+03  0.00000000000E+00 0. -1.
        -12    1    5    5    0    0  0.21329537958E+02 -0.34711909823E+02  0.20288003816E+03  0.20693036451E+03  0.00000000000E+00 0.  1.
          5    1    4    4  501    0 -0.50337665542E+02  0.60889939614E+02 -0.89989340750E+01  0.79623605375E+02  0.41800000000E+01 0. -1.
         -5    1    4    4    0  501  0.49169142002E+02  0.54146724305E+02  0.68902432671E+02  0.10057082035E+03  0.41800000000E+01 0. -1.
</event>
<event>
11    1  0.6625361E-009  0.1387632E+03  0.7561462E-02  0.1108947E+00
         22   -1    0    0    0    0  0.00000000000E+00  0.00000000000E+00  0.14448230215E+04  0.14448230215E+04  0.00000000000E+00 0.  1.
         22   -1    0    0    0    0 -0.00000000000E+00 -0.00000000000E+00 -0.34145734595E+03  0.34145734595E+03  0.00000000000E+00 0.  1.
        -24    2    1    2    0    0  0.40530913599E+02 -0.22444362537E+02 -0.31840231522E+03  0.33276050034E+03  0.84870559583E+02 0.  0.
         25    2    1    2    0    0 -0.68025519772E+01  0.72373121091E+02  0.37947525848E+03  0.40612078861E+03  0.12509388386E+03 0.  0.
         24    2    1    2    0    0 -0.33728361621E+02 -0.49928758554E+02  0.10422927322E+04  0.10473990785E+04  0.83905938752E+02 0.  0.
        -11    1    5    5    0    0 -0.44021701531E+02 -0.26641872958E+02  0.95712495027E+03  0.95850710484E+03  0.00000000000E+00 0.  1.
         12    1    5    5    0    0  0.10293339910E+02 -0.23286885596E+02  0.85167781973E+02  0.88891973617E+02  0.00000000000E+00 0. -1.
         11    1    3    3    0    0 -0.12004972441E+02 -0.39578773336E+02 -0.12988977779E+03  0.13631563754E+03  0.00000000000E+00 0. -1.
        -12    1    3    3    0    0  0.52535886040E+02  0.17134410799E+02 -0.18851253742E+03  0.19644486280E+03  0.00000000000E+00 0.  1.
          5    1    4    4  501    0 -0.23373613191E+02 -0.25974898076E+02  0.17593773524E+03  0.17942290880E+03  0.41800000000E+01 0. -1.
         -5    1    4    4    0  501  0.16571061214E+02  0.98348019166E+02  0.20353752324E+03  0.22669787981E+03  0.41800000000E+01 0. -1.
</event>
<event>
11    1  0.6625361E-009  0.1592909E+03  0.7561462E-02  0.1087746E+00
         22   -1    0    0    0    0  0.00000000000E+00  0.00000000000E+00  0.41614128055E+02  0.41614128055E+02  0.00000000000E+00 0.  1.
         22   -1    0    0    0    0 -0.00000000000E+00 -0.00000000000E+00 -0.14922395885E+04  0.14922395885E+04  0.00000000000E+00 0.  1.
        -24    2    1    2    0    0  0.26111770229E+02  0.19303051260E+02 -0.96374407135E+03  0.96771841270E+03  0.81374805051E+02 0.  0.
         25    2    1    2    0    0 -0.11296562596E+03 -0.17244162364E+02 -0.26907730929E+03  0.31797567912E+03  0.12508932951E+03 0.  0.
         24    2    1    2    0    0  0.86853855727E+02 -0.20588888952E+01 -0.21780407980E+03  0.24815962472E+03  0.81220384660E+02 0.  0.
        -11    1    5    5    0    0  0.95829044094E+02 -0.12977053959E+02 -0.14698349734E+03  0.17594248524E+03  0.00000000000E+00 0.  1.
         12    1    5    5    0    0 -0.89751883679E+01  0.10918165064E+02 -0.70820582459E+02  0.72217139479E+02  0.00000000000E+00 0. -1.
         13    1    3    3    0    0  0.12329769325E+02  0.34836752895E+02 -0.18277946840E+03  0.18647776445E+03  0.00000000000E+00 0. -1.
        -14    1    3    3    0    0  0.13782000903E+02 -0.15533701636E+02 -0.78096460294E+03  0.78124064826E+03  0.00000000000E+00 0.  1.
          5    1    4    4  501    0 -0.13049205573E+03 -0.36013790801E+02 -0.25413790168E+03  0.28797346268E+03  0.41800000000E+01 0. -1.
         -5    1    4    4    0  501  0.17526429771E+02  0.18769628436E+02 -0.14939407609E+02  0.30002216449E+02  0.41800000000E+01 0. -1.
</event>
<event>
11    1  0.6625361E-009  0.1254213E+03  0.7561462E-02  0.1125026E+00
         22   -1    0    0    0    0  0.00000000000E+00  0.00000000000E+00  0.41611058752E+03  0.41611058752E+03  0.00000000000E+00 0. -1.
         22   -1    0    0    0    0 -0.00000000000E+00 -0.00000000000E+00 -0.15707770751E+03  0.15707770751E+03  0.00000000000E+00 0.  1.
         24    2    1    2    0    0  0.76322766095E+00  0.39989645097E+02 -0.84675713840E+02  0.12286662735E+03  0.79539156214E+02 0.  0.
         25    2    1    2    0    0 -0.29494030330E+01 -0.43842540906E+02  0.47299412342E+02  0.14077033026E+03  0.12509270204E+03 0.  0.
        -24    2    1    2    0    0  0.21861753720E+01  0.38528958086E+01  0.29640918151E+03  0.30955133742E+03  0.89129139134E+02 0.  0.
        -11    1    3    3    0    0 -0.34938368306E+02  0.25695299638E+02 -0.68654885738E+02  0.81206104075E+02  0.00000000000E+00 0.  1.
         12    1    3    3    0    0  0.35701595967E+02  0.14294345459E+02 -0.16020828102E+02  0.41660523277E+02  0.00000000000E+00 0. -1.
         13    1    5    5    0    0  0.34419466133E+02  0.26592365762E+02  0.97404465621E+02  0.10667466189E+03  0.00000000000E+00 0. -1.
        -14    1    5    5    0    0 -0.32233290761E+02 -0.22739469953E+02  0.19900471589E+03  0.20287667553E+03  0.00000000000E+00 0.  1.
          5    1    4    4  501    0 -0.48512033938E+02  0.11509611423E+02 -0.72920088434E+01  0.50562183348E+02  0.41800000000E+01 0. -1.
         -5    1    4    4    0  501  0.45562630905E+02 -0.55352152329E+02  0.54591421185E+02  0.90208146913E+02  0.41800000000E+01 0. -1.
</event>
<event>
11    1  0.6625361E-009  0.1269257E+03  0.7561462E-02  0.1123105E+00
         22   -1    0    0    0    0  0.00000000000E+00  0.00000000000E+00  0.14488434716E+03  0.14488434716E+03  0.00000000000E+00 0.  1.
         22   -1    0    0    0    0 -0.00000000000E+00 -0.00000000000E+00 -0.22564408513E+03  0.22564408513E+03  0.00000000000E+00 0. -1.
        -24    2    1    2    0    0 -0.20573715449E+02 -0.11573305686E+02 -0.12565372019E+03  0.15164420486E+03  0.81546847254E+02 0.  0.
         25    2    1    2    0    0  0.10686202571E+02  0.43777259401E+01 -0.18176443838E+01  0.12563655423E+03  0.12509148859E+03 0.  0.
         24    2    1    2    0    0  0.98875128781E+01  0.71955797461E+01  0.46711626606E+02  0.93247673203E+02  0.79772258454E+02 0.  0.
        -13    1    5    5    0    0 -0.68996693068E+01 -0.20569938391E+02  0.55535681746E+02  0.59623315481E+02  0.00000000000E+00 0.  1.
         14    1    5    5    0    0  0.16787182185E+02  0.27765518137E+02 -0.88240551403E+01  0.33624357723E+02  0.00000000000E+00 0. -1.
         11    1    3    3    0    0 -0.53323082949E+01  0.26407505269E+02 -0.99484596100E+02  0.10306781606E+03  0.00000000000E+00 0. -1.
        -12    1    3    3    0    0 -0.15241407154E+02 -0.37980810955E+02 -0.26169124091E+02  0.48576388797E+02  0.00000000000E+00 0.  1.
          5    1    4    4  501    0  0.55305366348E+02  0.10940282457E+02  0.35668302955E+02  0.66843650130E+02  0.41800000000E+01 0. -1.
         -5    1    4    4    0  501 -0.44619163777E+02 -0.65625565165E+01 -0.37485947339E+02  0.58792904096E+02  0.41800000000E+01 0. -1.
</event>
<event>
11    1  0.6625361E-009  0.1310471E+03  0.7561462E-02  0.1117989E+00
         22   -1    0    0    0    0  0.00000000000E+00  0.00000000000E+00  0.11085789774E+04  0.11085789774E+04  0.00000000000E+00 0.  1.
         22   -1    0    0    0    0 -0.00000000000E+00 -0.00000000000E+00 -0.81920334785E+02  0.81920334785E+02  0.00000000000E+00 0. -1.
         24    2    1    2    0    0 -0.23707247231E+02 -0.27370788742E+01 -0.44351581010E+02  0.90151492503E+02  0.74771008355E+02 0.  0.
         25    2    1    2    0    0  0.38172061099E+02 -0.31910858453E+02  0.37000527489E+03  0.39373506982E+03  0.12509193666E+03 0.  0.
        -24    2    1    2    0    0 -0.14464813868E+02  0.34647937327E+02  0.70100494869E+03  0.70661274983E+03  0.80522852187E+02 0.  0.
        -11    1    3    3    0    0  0.18101426544E+02 -0.21265100321E+02 -0.32618894990E+02  0.42940172856E+02  0.00000000000E+00 0.  1.
         12    1    3    3    0    0 -0.41808673775E+02  0.18528021447E+02 -0.11732686020E+02  0.47211319647E+02  0.00000000000E+00 0. -1.
         11    1    5    5    0    0 -0.21219557060E+02  0.46203366467E+02  0.23597366432E+03  0.24138887904E+03  0.00000000000E+00 0. -1.
        -12    1    5    5    0    0  0.67547431922E+01 -0.11555429139E+02  0.46503128437E+03  0.46522387078E+03  0.00000000000E+00 0.  1.
          5    1    4    4  501    0  0.46961450911E+02  0.57393632796E+01  0.34327798145E+03  0.34654806753E+03  0.41800000000E+01 0. -1.
         -5    1    4    4    0  501 -0.87893898122E+01 -0.37650221733E+02  0.26727293448E+02  0.47187002287E+02  0.41800000000E+01 0. -1.
</event>
<event>
11    1  0.6625361E-009  0.1655002E+03  0.7561462E-02  0.1082015E+00
         22   -1    0    0    0    0  0.00000000000E+00  0.00000000000E+00  0.34156114473E+03  0.34156114473E+03  0.00000000000E+00 0. -1.
         22   -1    0    0    0    0 -0.00000000000E+00 -0.00000000000E+00 -0.47488062341E+03  0.47488062341E+03  0.00000000000E+00 0.  1.
         24    2    1    2    0    0 -0.76275908477E+02  0.74003708969E+02 -0.39919090583E+03  0.42075074181E+03  0.79895208109E+02 0.  0.
         25    2    1    2    0    0  0.10906549735E+03 -0.91354033245E+02  0.12139509472E+03  0.22500017948E+03  0.12508984628E+03 0.  0.
        -24    2    1    2    0    0 -0.32789588872E+02  0.17350324275E+02  0.14447633244E+03  0.17069084685E+03  0.82980501755E+02 0.  0.
        -11    1    3    3    0    0 -0.74925564001E+02  0.27765572130E+02 -0.31175840028E+03  0.32183546617E+03  0.00000000000E+00 0.  1.
         12    1    3    3    0    0 -0.13503444751E+01  0.46238136839E+02 -0.87432505551E+02  0.98915275643E+02  0.00000000000E+00 0. -1.
         11    1    5    5    0    0 -0.37254049301E+02 -0.25977045919E+02  0.91138792226E+02  0.10182804404E+03  0.00000000000E+00 0. -1.
        -12    1    5    5    0    0  0.44644604290E+01  0.43327370194E+02  0.53337540212E+02  0.68862802809E+02  0.00000000000E+00 0.  1.
          5    1    4    4  501    0  0.13550445969E+01 -0.15206688462E+02 -0.23930516015E+02  0.28691837107E+02  0.41800000000E+01 0. -1.
         -5    1    4    4    0  501  0.10771045275E+03 -0.76147344783E+02  0.14532561073E+03  0.19630834237E+03  0.41800000000E+01 0. -1.
</event>
<event>
11    1  0.6625361E-009  0.2221066E+03  0.7561462E-02  0.1039906E+00
         22   -1    0    0    0    0  0.00000000000E+00  0.00000000000E+00  0.16348501361E+04  0.16348501361E+04  0.00000000000E+00 0. -1.
         22   -1    0    0    0    0 -0.00000000000E+00 -0.00000000000E+00 -0.30325477821E+03  0.30325477821E+03  0.00000000000E+00 0.  1.
         24    2    1    2    0    0 -0.45766876158E+02 -0.39628352231E+02 -0.17719729987E+03  0.20371101232E+03  0.80213965150E+02 0.  0.
         25    2    1    2    0    0 -0.13896565615E+03  0.13991923381E+02 -0.23399977594E+02  0.18895130965E+03  0.12509121056E+03 0.  0.
        -24    2    1    2    0    0  0.18473253230E+03  0.25636428850E+02  0.15321926354E+04  0.15454425924E+04  0.77428672807E+02 0.  0.
        -11    1    3    3    0    0 -0.30146552693E+02 -0.41653263757E+02 -0.18044569579E+03  0.18762851103E+03  0.00000000000E+00 0.  1.
         12    1    3    3    0    0 -0.15620323465E+02  0.20249115256E+01  0.32483959180E+01  0.16082501294E+02  0.00000000000E+00 0. -1.
         11    1    5    5    0    0  0.14687527058E+03  0.39905372275E+02  0.97766338630E+03  0.98943947807E+03  0.00000000000E+00 0. -1.
        -12    1    5    5    0    0  0.37857261720E+02 -0.14268943426E+02  0.55452924910E+03  0.55600311430E+03  0.00000000000E+00 0.  1.
          5    1    4    4  501    0  0.23612699492E+02  0.22288736401E-01  0.46902866378E+00  0.23984421235E+02  0.41800000000E+01 0.  1.
         -5    1    4    4    0  501 -0.16257835564E+03  0.13969634645E+02 -0.23869006257E+02  0.16496688842E+03  0.41800000000E+01 0.  1.
</event>
<event>
11    1  0.6625361E-009  0.2475504E+03  0.7561462E-02  0.1025212E+00
         22   -1    0    0    0    0  0.00000000000E+00  0.00000000000E+00  0.29890887924E+03  0.29890887924E+03  0.00000000000E+00 0.  1.
         22   -1    0    0    0    0 -0.00000000000E+00 -0.00000000000E+00 -0.22226832922E+04  0.22226832922E+04  0.00000000000E+00 0. -1.
         24    2    1    2    0    0 -0.16643656492E+02 -0.67217035627E+01 -0.19891444124E+04  0.19909431200E+04  0.82685071299E+02 0.  0.
         25    2    1    2    0    0  0.87739313192E+02 -0.19489043946E+03 -0.80542299735E+02  0.26041421053E+03  0.12509208019E+03 0.  0.
        -24    2    1    2    0    0 -0.71095656700E+02  0.20161214302E+03  0.14591229926E+03  0.27023484084E+03  0.77681539084E+02 0.  0.
        -11    1    3    3    0    0  0.23130598838E+02 -0.24888562687E+02 -0.49801985605E+03  0.49917756578E+03  0.00000000000E+00 0.  1.
         12    1    3    3    0    0 -0.39774255331E+02  0.18166859124E+02 -0.14911245564E+04  0.14917655543E+04  0.00000000000E+00 0. -1.
         13    1    5    5    0    0 -0.92641931054E+01  0.42850683473E+02 -0.30142790123E+01  0.43944194451E+02  0.00000000000E+00 0. -1.
        -14    1    5    5    0    0 -0.61831463594E+02  0.15876145955E+03  0.14892657827E+03  0.22629064639E+03  0.00000000000E+00 0.  1.
          5    1    4    4  501    0  0.42331453641E+01 -0.14918654410E+03 -0.68841448291E+02  0.16441156244E+03  0.41800000000E+01 0. -1.
         -5    1    4    4    0  501  0.83506167828E+02 -0.45703895357E+02 -0.11700851445E+02  0.96002648092E+02  0.41800000000E+01 0. -1.
</event>
<event>
11    1  0.6867447E-009  0.1674740E+03  0.7561462E-02  0.1080251E+00
         22   -1    0    0    0    0  0.00000000000E+00  0.00000000000E+00  0.92473873428E+03  0.92473873428E+03  0.00000000000E+00 0. -1.
         22   -1    0    0    0    0 -0.00000000000E+00 -0.00000000000E+00 -0.97673127683E+03  0.97673127683E+03  0.00000000000E+00 0.  1.
         24    2    1    2    0    0  0.67708418277E+02 -0.60584359956E+02 -0.88274664804E+03  0.89097554794E+03  0.79629691826E+02 0.  0.
         25    2    1    2    0    0 -0.13284820394E+03 -0.30341468579E+02  0.17725612906E+02  0.18581703142E+03  0.12507806285E+03 0.  0.
        -24    2    1    2    0    0  0.65139785664E+02  0.90925828534E+02  0.81302849258E+03  0.82467743175E+03  0.81036033443E+02 0.  0.
        -11    1    3    3    0    0  0.28896049247E+02  0.17058127819E+02 -0.28223362601E+03  0.28422135922E+03  0.00000000000E+00 0.  1.
         12    1    3    3    0    0  0.38812369030E+02 -0.77642487774E+02 -0.60051302203E+03  0.60675418872E+03  0.00000000000E+00 0. -1.
         11    1    5    5    0    0  0.76456852460E+02  0.98090772053E+02  0.71459717443E+03  0.72533893564E+03  0.00000000000E+00 0. -1.
        -12    1    5    5    0    0 -0.11317066796E+02 -0.71649435189E+01  0.98431318149E+02  0.99338496108E+02  0.00000000000E+00 0.  1.
          5    1    4    4  501    0 -0.15223808003E+03 -0.46166972435E+02  0.19756937774E+02  0.16036094083E+03  0.41800000000E+01 0.  1.
         -5    1    4    4    0  501  0.19389876089E+02  0.15825503856E+02 -0.20313248686E+01  0.25456090583E+02  0.41800000000E+01 0.  1.
</event>
<event>
11    1  0.6625361E-009  0.1357209E+03  0.7561462E-02  0.1112433E+00
         22   -1    0    0    0    0  0.00000000000E+00  0.00000000000E+00  0.10632621981E+04  0.10632621981E+04  0.00000000000E+00 0.  1.
         22   -1    0    0    0    0 -0.00000000000E+00 -0.00000000000E+00 -0.28971105771E+04  0.28971105771E+04  0.00000000000E+00 0. -1.
        -24    2    1    2    0    0  0.43156794236E+02  0.26984521905E+02 -0.24471516913E+04  0.24489752257E+04  0.79608934293E+02 0.  0.
         25    2    1    2    0    0 -0.91079954375E+02 -0.55281678111E+01 -0.43328805023E+03  0.46012195838E+03  0.12509022096E+03 0.  0.
         24    2    1    2    0    0  0.47923160139E+02 -0.21456354094E+02  0.10465913625E+04  0.10512755911E+04  0.84082602244E+02 0.  0.
        -11    1    5    5    0    0  0.53993239741E+02 -0.39578011902E+02  0.97102582771E+03  0.97333080042E+03  0.00000000000E+00 0.  1.
         12    1    5    5    0    0 -0.60700796017E+01  0.18121657809E+02  0.75565534778E+02  0.77944790681E+02  0.00000000000E+00 0. -1.
         11    1    3    3    0    0  0.34974527191E+02  0.21985059466E+02 -0.24166234644E+04  0.24169765264E+04  0.00000000000E+00 0. -1.
        -12    1    3    3    0    0  0.81822670449E+01  0.49994624386E+01 -0.30528226887E+02  0.31998699279E+02  0.00000000000E+00 0.  1.
          5    1    4    4  501    0 -0.76955218775E+02 -0.58066425649E+02 -0.32248914636E+03  0.33661630591E+03  0.41800000000E+01 0.  1.
         -5    1    4    4    0  501 -0.14124735600E+02  0.52538257838E+02 -0.11079890387E+03  0.12350565247E+03  0.41800000000E+01 0.  1.
</event>
<event>
11    1  0.6625361E-009  0.1460974E+03  0.7561462E-02  0.1100934E+00
         22   -1    0    0    0    0  0.00000000000E+00  0.00000000000E+00  0.86654702025E+03  0.86654702025E+03  0.00000000000E+00 0. -1.
         22   -1    0    0    0    0 -0.00000000000E+00 -0.00000000000E+00 -0.25862644135E+03  0.25862644135E+03  0.00000000000E+00 0. -1.
         24    2    1    2    0    0 -0.19282691218E+02  0.76923632551E+01 -0.20038541280E+03  0.21678803989E+03  0.80073378494E+02 0.  0.
         25    2    1    2    0    0  0.53425239628E+02  0.59427748257E+02  0.74724886805E+02  0.16617960747E+03  0.12508373091E+03 0.  0.
        -24    2    1    2    0    0 -0.34142548410E+02 -0.67120111512E+02  0.73358110490E+03  0.74220581424E+03  0.84008393948E+02 0.  0.
        -13    1    3    3    0    0  0.24798544454E+02 -0.39644155562E+01 -0.24485734536E+02  0.35074714446E+02  0.00000000000E+00 0.  1.
         14    1    3    3    0    0 -0.44081235672E+02  0.11656778811E+02 -0.17589967826E+03  0.18171332544E+03  0.00000000000E+00 0. -1.
         13    1    5    5    0    0 -0.28971454102E+01 -0.72683028490E+02  0.62071194947E+03  0.62495963093E+03  0.00000000000E+00 0. -1.
        -14    1    5    5    0    0 -0.31245403000E+02  0.55629169781E+01  0.11286915543E+03  0.11724618332E+03  0.00000000000E+00 0.  1.
          5    1    4    4  501    0 -0.35427747340E+01  0.57617948729E+02  0.90017858279E+02  0.10701900055E+03  0.41800000000E+01 0.  1.
         -5    1    4    4    0  501  0.56968014362E+02  0.18097995282E+01 -0.15292971474E+02  0.59160606921E+02  0.41800000000E+01 0.  1.
</event>
<event>
11    1  0.6625361E-009  0.1359515E+03  0.7561462E-02  0.1112165E+00
         22   -1    0    0    0    0  0.00000000000E+00  0.00000000000E+00  0.59854511387E+03  0.59854511387E+03  0.00000000000E+00 0.  1.
         22   -1    0    0    0    0 -0.00000000000E+00 -0.00000000000E+00 -0.15412910813E+03  0.15412910813E+03  0.00000000000E+00 0. -1.
         24    2    1    2    0    0  0.98479197151E+01  0.20880967452E+02 -0.98504100044E+02  0.12962537365E+03  0.81035075386E+02 0.  0.
         25    2    1    2    0    0  0.13619319284E+01 -0.70355847670E+02  0.11422365163E+03  0.18343062586E+03  0.12509177332E+03 0.  0.
        -24    2    1    2    0    0 -0.11209851644E+02  0.49474880218E+02  0.42869645415E+03  0.43961822250E+03  0.83127054594E+02 0.  0.
        -11    1    3    3    0    0 -0.10851807828E+02  0.47753801943E+02 -0.46464621324E+02  0.67506654250E+02  0.00000000000E+00 0.  1.
         12    1    3    3    0    0  0.20699727543E+02 -0.26872834491E+02 -0.52039478720E+02  0.62118719396E+02  0.00000000000E+00 0. -1.
         13    1    5    5    0    0 -0.87217997954E+01 -0.60835800526E+01  0.28989131463E+03  0.29008628722E+03  0.00000000000E+00 0. -1.
        -14    1    5    5    0    0 -0.24880518481E+01  0.55558460270E+02  0.13880513952E+03  0.14953193528E+03  0.00000000000E+00 0.  1.
          5    1    4    4  501    0 -0.40500002744E+02 -0.45846570042E+01 -0.46232037193E+01  0.41232459479E+02  0.41800000000E+01 0.  1.
         -5    1    4    4    0  501  0.41861934672E+02 -0.65771190666E+02  0.11884685535E+03  0.14219816638E+03  0.41800000000E+01 0.  1.
</event>
<event>
11    1  0.6625361E-009  0.1771119E+03  0.7561462E-02  0.1072003E+00
         22   -1    0    0    0    0  0.00000000000E+00  0.00000000000E+00  0.14273621284E+04  0.14273621284E+04  0.00000000000E+00 0.  1.
         22   -1    0    0    0    0 -0.00000000000E+00 -0.00000000000E+00 -0.13609407224E+03  0.13609407224E+03  0.00000000000E+00 0.  1.
         24    2    1    2    0    0 -0.55732617136E+01  0.76397657751E+02 -0.66761424851E+02  0.13074868180E+03  0.82282845039E+02 0.  0.
         25    2    1    2    0    0 -0.10020713060E+03 -0.13471866986E+03  0.30612575407E+03  0.37087718772E+03  0.12508525904E+03 0.  0.
        -24    2    1    2    0    0  0.10578039231E+03  0.58321012107E+02  0.10519037269E+04  0.10618303311E+04  0.79946041195E+02 0.  0.
        -13    1    3    3    0    0 -0.25234743710E+02  0.86199370220E+02 -0.58937284272E+02  0.10742777664E+03  0.00000000000E+00 0.  1.
         14    1    3    3    0    0  0.19661481997E+02 -0.98017124681E+01 -0.78241405793E+01  0.23320905159E+02  0.00000000000E+00 0. -1.
         13    1    5    5    0    0  0.87210740110E+02  0.60989341439E+02  0.58835830517E+03  0.59790543418E+03  0.00000000000E+00 0. -1.
        -14    1    5    5    0    0  0.18569652203E+02 -0.26683293322E+01  0.46354542177E+03  0.46392489695E+03  0.00000000000E+00 0.  1.
          5    1    4    4  501    0 -0.10555348365E+03 -0.45159574966E+02  0.13230272251E+03  0.17522102587E+03  0.41800000000E+01 0.  1.
         -5    1    4    4    0  501  0.53463530476E+01 -0.89559094892E+02  0.17382303156E+03  0.19565616185E+03  0.41800000000E+01 0.  1.
</event>
<event>
11    1  0.6625361E-009  0.1280889E+03  0.7561462E-02  0.1121640E+00
         22   -1    0    0    0    0  0.00000000000E+00  0.00000000000E+00  0.71550495948E+03  0.71550495948E+03  0.00000000000E+00 0. -1.
         22   -1    0    0    0    0 -0.00000000000E+00 -0.00000000000E+00 -0.26803075965E+03  0.26803075965E+03  0.00000000000E+00 0. -1.
         24    2    1    2    0    0 -0.20551510726E+02 -0.21162374731E+02 -0.22171008454E+03  0.23807013245E+03  0.81558664050E+02 0.  0.
         25    2    1    2    0    0  0.10891718256E+02 -0.10476561873E+02  0.77836813333E+02  0.14810724682E+03  0.12509516048E+03 0.  0.
        -24    2    1    2    0    0  0.96597924708E+01  0.31638936604E+02  0.59134747104E+03  0.59735833986E+03  0.77787021973E+02 0.  0.
        -13    1    3    3    0    0 -0.11330529264E+02 -0.12196486914E+02 -0.67486662243E+00  0.16661051330E+02  0.00000000000E+00 0.  1.
         14    1    3    3    0    0 -0.92209814618E+01 -0.89658878168E+01 -0.22103521792E+03  0.22140908112E+03  0.00000000000E+00 0. -1.
         11    1    5    5    0    0 -0.12909430655E+02  0.34036254104E+02  0.53991496945E+03  0.54114073422E+03  0.00000000000E+00 0. -1.
        -12    1    5    5    0    0  0.22569223126E+02 -0.23973175000E+01  0.51432501595E+02  0.56217605641E+02  0.00000000000E+00 0.  1.
          5    1    4    4  501    0  0.24794821312E+02  0.24755574582E+02 -0.21769359424E+02  0.41460813384E+02  0.41800000000E+01 0. -1.
         -5    1    4    4    0  501 -0.13903103056E+02 -0.35232136454E+02  0.99606172757E+02  0.10664643344E+03  0.41800000000E+01 0. -1.
</event>
<event>
11    1  0.6625361E-009  0.1284652E+03  0.7561462E-02  0.1121169E+00
         22   -1    0    0    0    0  0.00000000000E+00  0.00000000000E+00  0.10207511613E+04  0.10207511613E+04  0.00000000000E+00 0. -1.
         22   -1    0    0    0    0 -0.00000000000E+00 -0.00000000000E+00 -0.56707212188E+03  0.56707212188E+03  0.00000000000E+00 0.  1.
         24    2    1    2    0    0  0.11833210351E+02 -0.26754238206E+02 -0.51424872617E+03  0.52107535623E+03  0.78815990582E+02 0.  0.
         25    2    1    2    0    0 -0.38714385624E+02  0.14817581438E+02  0.44103352054E+02  0.13892583066E+03  0.12504765646E+03 0.  0.
        -24    2    1    2    0    0  0.26881175273E+02  0.11936656768E+02  0.92382441350E+03  0.92782209626E+03  0.80853039335E+02 0.  0.
        -13    1    3    3    0    0 -0.28845671755E+01 -0.44122760763E+02 -0.46163131802E+03  0.46374412398E+03  0.00000000000E+00 0.  1.
         14    1    3    3    0    0  0.14717777527E+02  0.17368522557E+02 -0.52617408151E+02  0.57331232253E+02  0.00000000000E+00 0. -1.
         11    1    5    5    0    0  0.13189714557E+02 -0.32555461365E+02  0.54819040483E+03  0.54931461530E+03  0.00000000000E+00 0. -1.
        -12    1    5    5    0    0  0.13691460716E+02  0.44492118133E+02  0.37563400866E+03  0.37850748095E+03  0.00000000000E+00 0.  1.
          5    1    4    4  501    0  0.12930058439E+02 -0.42481134940E+02  0.42574354117E+02  0.61659397220E+02  0.41800000000E+01 0.  1.
         -5    1    4    4    0  501 -0.51644444063E+02  0.57298716378E+02  0.15289979366E+01  0.77266433436E+02  0.41800000000E+01 0.  1.
</event>
<event>
11    1  0.6625361E-009  0.1265487E+03  0.7561462E-02  0.1123584E+00
         22   -1    0    0    0    0  0.00000000000E+00  0.00000000000E+00  0.11346223929E+04  0.11346223929E+04  0.00000000000E+00 0.  1.
         22   -1    0    0    0    0 -0.00000000000E+00 -0.00000000000E+00 -0.79098424999E+03  0.79098424999E+03  0.00000000000E+00 0.  1.
         24    2    1    2    0    0  0.96145344149E+01  0.90570068265E+01 -0.75596703144E+03  0.76026497480E+03  0.79637997503E+02 0.  0.
         25    2    1    2    0    0 -0.18253623953E+02  0.85531739532E+01  0.97415106374E+02  0.15979125675E+03  0.12504875534E+03 0.  0.
        -24    2    1    2    0    0  0.86390895381E+01 -0.17610180780E+02  0.10021900680E+04  0.10055504113E+04  0.79761801991E+02 0.  0.
        -11    1    3    3    0    0  0.40727175952E+02  0.21246995062E+02 -0.36661383588E+03  0.36948050330E+03  0.00000000000E+00 0.  1.
         12    1    3    3    0    0 -0.31112641537E+02 -0.12189988236E+02 -0.38935319556E+03  0.39078447151E+03  0.00000000000E+00 0. -1.
         11    1    5    5    0    0 -0.31808684410E+01  0.22060939300E+02  0.10190068370E+03  0.10430988595E+03  0.00000000000E+00 0. -1.
        -12    1    5    5    0    0  0.11819957979E+02 -0.39671120079E+02  0.90028938428E+03  0.90124052540E+03  0.00000000000E+00 0.  1.
          5    1    4    4  501    0  0.12447585629E+02  0.57460108301E+01  0.12031182031E+03  0.12116255831E+03  0.41800000000E+01 0.  1.
         -5    1    4    4    0  501 -0.30701209582E+02  0.28071631232E+01 -0.22896713938E+02  0.38628698448E+02  0.41800000000E+01 0.  1.
</event>
<event>
11    1  0.6625361E-009  0.1439868E+03  0.7561462E-02  0.1103186E+00
         22   -1    0    0    0    0  0.00000000000E+00  0.00000000000E+00  0.11211810842E+03  0.11211810842E+03  0.00000000000E+00 0.  1.
         22   -1    0    0    0    0 -0.00000000000E+00 -0.00000000000E+00 -0.36074069704E+04  0.36074069704E+04  0.00000000000E+00 0.  1.
         24    2    1    2    0    0  0.89293301489E+01  0.26429240291E+02 -0.30260195191E+04  0.30271861886E+04  0.79270757075E+02 0.  0.
         25    2    1    2    0    0 -0.30967285836E+02 -0.92889847215E+02 -0.54265373316E+03  0.56542764158E+03  0.12509135560E+03 0.  0.
        -24    2    1    2    0    0  0.22037955687E+02  0.66460606924E+02  0.73384390235E+02  0.12691124866E+03  0.76279175030E+02 0.  0.
        -11    1    3    3    0    0  0.32162046413E+02  0.41547284466E+02 -0.23684687765E+04  0.23690514809E+04  0.00000000000E+00 0.  1.
         12    1    3    3    0    0 -0.23232716264E+02 -0.15118044175E+02 -0.65755074257E+03  0.65813470766E+03  0.00000000000E+00 0. -1.
         11    1    5    5    0    0  0.62868070016E+01  0.12310812405E+02 -0.16049521898E+02  0.21181765684E+02  0.00000000000E+00 0. -1.
        -12    1    5    5    0    0  0.15751148685E+02  0.54149794519E+02  0.89433912133E+02  0.10572948298E+03  0.00000000000E+00 0.  1.
          5    1    4    4  501    0  0.71178860959E+01  0.15911327440E+02 -0.10202959899E+02  0.20625407489E+02  0.41800000000E+01 0.  1.
         -5    1    4    4    0  501 -0.38085171932E+02 -0.10880117466E+03 -0.53245077326E+03  0.54480223409E+03  0.41800000000E+01 0.  1.
</event>
<event>
11    1  0.6625361E-009  0.1540815E+03  0.7561462E-02  0.1092780E+00
         22   -1    0    0    0    0  0.00000000000E+00  0.00000000000E+00  0.80328822881E+03  0.80328822881E+03  0.00000000000E+00 0. -1.
         22   -1    0    0    0    0 -0.00000000000E+00 -0.00000000000E+00 -0.27274251019E+03  0.27274251019E+03  0.00000000000E+00 0.  1.
        -24    2    1    2    0    0 -0.88144401098E+02 -0.14558596482E+02 -0.23787619870E+03  0.26679117674E+03  0.81308412254E+02 0.  0.
         25    2    1    2    0    0  0.10913083486E+03  0.18260114209E+02  0.46464897831E+03  0.49375040507E+03  0.12509124101E+03 0.  0.
         24    2    1    2    0    0 -0.20986433764E+02 -0.37015177270E+01  0.30377293901E+03  0.31548915719E+03  0.82469862337E+02 0.  0.
        -13    1    5    5    0    0  0.16622661268E+02 -0.33235266541E+02  0.12223326781E+03  0.12775706465E+03  0.00000000000E+00 0.  1.
         14    1    5    5    0    0 -0.37609095032E+02  0.29533748814E+02  0.18153967120E+03  0.18773209254E+03  0.00000000000E+00 0. -1.
         13    1    3    3    0    0  0.99357596145E+01  0.13137369909E+02 -0.55240161831E+02  0.57643605772E+02  0.00000000000E+00 0. -1.
        -14    1    3    3    0    0 -0.98080160713E+02 -0.27695966391E+02 -0.18263603687E+03  0.20914757097E+03  0.00000000000E+00 0.  1.
          5    1    4    4  501    0 -0.13775212920E+02  0.37459416323E+02  0.80637413579E+02  0.90071245306E+02  0.41800000000E+01 0.  1.
         -5    1    4    4    0  501  0.12290604778E+03 -0.19199302114E+02  0.38401156473E+03  0.40367915977E+03  0.41800000000E+01 0.  1.
</event>
<event>
11    1  0.6625361E-009  0.2119101E+03  0.7561462E-02  0.1046407E+00
         22   -1    0    0    0    0  0.00000000000E+00  0.00000000000E+00  0.16627998950E+04  0.16627998950E+04  0.00000000000E+00 0. -1.
         22   -1    0    0    0    0 -0.00000000000E+00 -0.00000000000E+00 -0.31100853946E+03  0.31100853946E+03  0.00000000000E+00 0. -1.
        -24    2    1    2    0    0 -0.10423588381E+01 -0.43876975219E+02 -0.15325446803E+03  0.17899847836E+03  0.81407910036E+02 0.  0.
         25    2    1    2    0    0  0.16777605756E+03  0.41776513679E+01 -0.60457448413E+02  0.21788011662E+03  0.12510149435E+03 0.  0.
         24    2    1    2    0    0 -0.16673369873E+03  0.39699323851E+02  0.15655032720E+04  0.15769298394E+04  0.80814982678E+02 0.  0.
        -13    1    5    5    0    0 -0.45947422980E+01  0.95141335323E+01  0.36477202224E+03  0.36492500408E+03  0.00000000000E+00 0.  1.
         14    1    5    5    0    0 -0.16213895643E+03  0.30185190318E+02  0.12007312497E+04  0.12120048354E+04  0.00000000000E+00 0. -1.
         11    1    3    3    0    0 -0.28514301043E+02 -0.38225715591E+02 -0.14014881250E+03  0.14804040105E+03  0.00000000000E+00 0. -1.
        -12    1    3    3    0    0  0.27471942205E+02 -0.56512596274E+01 -0.13105655529E+02  0.30958077310E+02  0.00000000000E+00 0.  1.
          5    1    4    4  501    0  0.17372969126E+03 -0.15823002522E+02 -0.77188433152E+02  0.19080854186E+03  0.41800000000E+01 0. -1.
         -5    1    4    4    0  501 -0.59536336901E+01  0.20000653890E+02  0.16730984739E+02  0.27071574769E+02  0.41800000000E+01 0. -1.
</event>
<event>
11    1  0.6625361E-009  0.1420227E+03  0.7561462E-02  0.1105321E+00
         22   -1    0    0    0    0  0.00000000000E+00  0.00000000000E+00  0.21545701310E+04  0.21545701310E+04  0.00000000000E+00 0.  1.
         22   -1    0    0    0    0 -0.00000000000E+00 -0.00000000000E+00 -0.31901717329E+03  0.31901717329E+03  0.00000000000E+00 0. -1.
        -24    2    1    2    0    0 -0.62351051510E+02 -0.11244823895E+02 -0.28406109647E+03  0.30221745881E+03  0.81428411479E+02 0.  0.
         25    2    1    2    0    0  0.65632886608E+02  0.77399592052E+02  0.24335857063E+03  0.29183686137E+03  0.12508791749E+03 0.  0.
         24    2    1    2    0    0 -0.32818350979E+01 -0.66154768157E+02  0.18762554836E+04  0.18795329841E+04  0.89007724457E+02 0.  0.
        -11    1    5    5    0    0  0.38334749818E+02 -0.27958098043E+02  0.53877881852E+03  0.54086396033E+03  0.00000000000E+00 0.  1.
         12    1    5    5    0    0 -0.41616584916E+02 -0.38196670115E+02  0.13374766650E+04  0.13386690238E+04  0.00000000000E+00 0. -1.
         13    1    3    3    0    0 -0.33717142630E+01 -0.60728671433E+01 -0.19588748322E+03  0.19601059730E+03  0.00000000000E+00 0. -1.
        -14    1    3    3    0    0 -0.58979337247E+02 -0.51719567513E+01 -0.88173613246E+02  0.10620686151E+03  0.00000000000E+00 0.  1.
          5    1    4    4  501    0 -0.32054303026E+02 -0.21629164550E+01  0.73404434343E+02  0.80236151025E+02  0.41800000000E+01 0. -1.
         -5    1    4    4    0  501  0.97687189634E+02  0.79562508507E+02  0.16995413629E+03  0.21160071035E+03  0.41800000000E+01 0. -1.
</event>
<event>
11    1  0.6625361E-009  0.1432694E+03  0.7561462E-02  0.1103962E+00
         22   -1    0    0    0    0  0.00000000000E+00  0.00000000000E+00  0.27308976304E+03  0.27308976304E+03  0.00000000000E+00 0.  1.
         22   -1    0    0    0    0 -0.00000000000E+00 -0.00000000000E+00 -0.43510022080E+03  0.43510022080E+03  0.00000000000E+00 0.  1.
        -24    2    1    2    0    0  0.65239264519E+02  0.28625477809E+02 -0.36440784182E+03  0.38006732866E+03  0.81132727768E+02 0.  0.
         25    2    1    2    0    0 -0.29570163187E+02 -0.58175000877E+02  0.50023398684E+02  0.14971846482E+03  0.12511815622E+03 0.  0.
         24    2    1    2    0    0 -0.35669101332E+02  0.29549523068E+02  0.15237398538E+03  0.17840419036E+03  0.80403759949E+02 0.  0.
        -13    1    5    5    0    0 -0.50525326082E+02  0.47592543024E+02  0.11294612674E+03  0.13256955258E+03  0.00000000000E+00 0.  1.
         14    1    5    5    0    0  0.14856224750E+02 -0.18043019956E+02  0.39427858643E+02  0.45834637777E+02  0.00000000000E+00 0. -1.
         11    1    3    3    0    0  0.17248269663E+02 -0.21543188754E+02 -0.41903825656E+02  0.50175117266E+02  0.00000000000E+00 0. -1.
        -12    1    3    3    0    0  0.47990994856E+02  0.50168666563E+02 -0.32250401617E+03  0.32989221139E+03  0.00000000000E+00 0.  1.
          5    1    4    4  501    0 -0.75130147892E+02 -0.26700378635E+02  0.49961036043E+02  0.94186128831E+02  0.41800000000E+01 0.  1.
         -5    1    4    4    0  501  0.45559984706E+02 -0.31474622242E+02  0.62362640562E-01  0.55532335992E+02  0.41800000000E+01 0.  1.
</event>
<event>
11    1  0.6625361E-009  0.1810371E+03  0.7561462E-02  0.1068807E+00
         22   -1    0    0    0    0  0.00000000000E+00  0.00000000000E+00  0.12744998193E+04  0.12744998193E+04  0.00000000000E+00 0. -1.
         22   -1    0    0    0    0 -0.00000000000E+00 -0.00000000000E+00 -0.90965464474E+03  0.90965464474E+03  0.00000000000E+00 0.  1.
         24    2    1    2    0    0 -0.53507744555E+02  0.49299175986E+02 -0.87011630695E+03  0.87681400206E+03  0.80043232716E+02 0.  0.
         25    2    1    2    0    0 -0.67885972589E+02  0.25997283422E+02  0.14367842960E+03  0.20390124062E+03  0.12509140967E+03 0.  0.
        -24    2    1    2    0    0  0.12139371714E+03 -0.75296459408E+02  0.10912830520E+04  0.11034392214E+04  0.79204952309E+02 0.  0.
        -13    1    3    3    0    0 -0.46310422876E+02  0.34129273905E+02 -0.25254010153E+03  0.25900958570E+03  0.00000000000E+00 0.  1.
         14    1    3    3    0    0 -0.71973216790E+01  0.15169902081E+02 -0.61757620543E+03  0.61780441636E+03  0.00000000000E+00 0. -1.
         11    1    5    5    0    0  0.12268289260E+03 -0.73512326541E+02  0.83593246411E+03  0.84807914657E+03  0.00000000000E+00 0. -1.
        -12    1    5    5    0    0 -0.12891754587E+01 -0.17841328668E+01  0.25535058785E+03  0.25536007483E+03  0.00000000000E+00 0.  1.
          5    1    4    4  501    0 -0.19853872037E+02  0.71426673494E+02  0.51401301671E+02  0.90307874157E+02  0.41800000000E+01 0.  1.
         -5    1    4    4    0  501 -0.48032100552E+02 -0.45429390072E+02  0.92277127926E+02  0.11359336646E+03  0.41800000000E+01 0.  1.
</event>
<event>
11    1  0.6625361E-009  0.1418815E+03  0.7561462E-02  0.1105475E+00
         22   -1    0    0    0    0  0.00000000000E+00  0.00000000000E+00  0.53162735575E+03  0.53162735575E+03  0.00000000000E+00 0.  1.
         22   -1    0    0    0    0 -0.00000000000E+00 -0.00000000000E+00 -0.67296155558E+03  0.67296155558E+03  0.00000000000E+00 0.  1.
         24    2    1    2    0    0  0.66246535319E+02  0.52790505205E+01 -0.54833396278E+03  0.55715348542E+03  0.73030129157E+02 0.  0.
         25    2    1    2    0    0 -0.73665318154E+02  0.19897826741E+02 -0.70495015332E+02  0.16259769231E+03  0.12508381091E+03 0.  0.
        -24    2    1    2    0    0  0.74187828354E+01 -0.25176877262E+02  0.47749477828E+03  0.48483773359E+03  0.79858945241E+02 0.  0.
        -11    1    3    3    0    0  0.77540814669E+02 -0.99053658462E+01 -0.47645459104E+03  0.48282467992E+03  0.00000000000E+00 0.  1.
         12    1    3    3    0    0 -0.11294279351E+02  0.15184416367E+02 -0.71879371740E+02  0.74328805508E+02  0.00000000000E+00 0. -1.
         13    1    5    5    0    0  0.14222263627E+02 -0.30022217863E+01  0.12233222894E+02  0.18998364684E+02  0.00000000000E+00 0. -1.
        -14    1    5    5    0    0 -0.68034807912E+01 -0.22174655476E+02  0.46526155539E+03  0.46583936890E+03  0.00000000000E+00 0.  1.
          5    1    4    4  501    0 -0.33426340972E+02  0.19939441993E+02 -0.10332849808E+03  0.11049503398E+03  0.41800000000E+01 0. -1.
         -5    1    4    4    0  501 -0.40238977182E+02 -0.41615251451E-01  0.32833482749E+02  0.52102658338E+02  0.41800000000E+01 0. -1.
</event>
<event>
11    1  0.6625361E-009  0.2194216E+03  0.7561462E-02  0.1041580E+00
         22   -1    0    0    0    0  0.00000000000E+00  0.00000000000E+00  0.25784308169E+03  0.25784308169E+03  0.00000000000E+00 0.  1.
         22   -1    0    0    0    0 -0.00000000000E+00 -0.00000000000E+00 -0.87720714350E+03  0.87720714350E+03  0.00000000000E+00 0.  1.
         24    2    1    2    0    0 -0.23984179394E+02  0.26680071509E+02 -0.38674815194E+03  0.39912545246E+03  0.91869073653E+02 0.  0.
         25    2    1    2    0    0 -0.81332562779E+02 -0.17212092141E+03 -0.41138584456E+03  0.47024106838E+03  0.12509097462E+03 0.  0.
        -24    2    1    2    0    0  0.10531674217E+03  0.14544084990E+03  0.17876993470E+03  0.26568370435E+03  0.79902967422E+02 0.  0.
        -13    1    3    3    0    0  0.80238532155E+01  0.18446186137E+02 -0.34633552811E+03  0.34691921543E+03  0.00000000000E+00 0.  1.
         14    1    3    3    0    0 -0.32008032609E+02  0.82338853715E+01 -0.40412623832E+02  0.52206237030E+02  0.00000000000E+00 0. -1.
         11    1    5    5    0    0  0.25007458815E+02  0.39461427087E+02  0.51600321339E+01  0.47002161182E+02  0.00000000000E+00 0. -1.
        -12    1    5    5    0    0  0.80309283358E+02  0.10597942281E+03  0.17360990257E+03  0.21868154317E+03  0.00000000000E+00 0.  1.
          5    1    4    4  501    0  0.18307986914E+02 -0.24793022985E+01 -0.10078647548E+03  0.10255103785E+03  0.41800000000E+01 0.  1.
         -5    1    4    4    0  501 -0.99640549693E+02 -0.16964161911E+03 -0.31059936908E+03  0.36769003053E+03  0.41800000000E+01 0.  1.
</event>
<event>
11    1  0.6625361E-009  0.1713525E+03  0.7561462E-02  0.1076861E+00
         22   -1    0    0    0    0  0.00000000000E+00  0.00000000000E+00  0.67378485008E+03  0.67378485008E+03  0.00000000000E+00 0.  1.
         22   -1    0    0    0    0 -0.00000000000E+00 -0.00000000000E+00 -0.32495417721E+03  0.32495417721E+03  0.00000000000E+00 0. -1.
         24    2    1    2    0    0 -0.88404588313E+02 -0.80044933068E+02 -0.25268882706E+03  0.29091133570E+03  0.80964185755E+02 0.  0.
         25    2    1    2    0    0  0.11031632258E+03  0.25674390296E+02  0.98774724721E+02  0.19553569394E+03  0.12509554755E+03 0.  0.
        -24    2    1    2    0    0 -0.21911734271E+02  0.54370542772E+02  0.50274477521E+03  0.51229199765E+03  0.79085408535E+02 0.  0.
        -13    1    3    3    0    0 -0.54103297809E+02 -0.26044135823E+02 -0.49277531384E+02  0.77677145570E+02  0.00000000000E+00 0.  1.
         14    1    3    3    0    0 -0.34301290504E+02 -0.54000797245E+02 -0.20341129567E+03  0.21323419013E+03  0.00000000000E+00 0. -1.
         11    1    5    5    0    0  0.12146993900E+02 -0.14307617556E+02  0.57202813914E+02  0.60203150255E+02  0.00000000000E+00 0. -1.
        -12    1    5    5    0    0 -0.34058728170E+02  0.68678160328E+02  0.44554196129E+03  0.45208884740E+03  0.00000000000E+00 0.  1.
          5    1    4    4  501    0  0.50608268499E+02  0.36456715684E+01 -0.24681090755E+02  0.56578409332E+02  0.41800000000E+01 0.  1.
         -5    1    4    4    0  501  0.59708054085E+02  0.22028718728E+02  0.12345581548E+03  0.13895728461E+03  0.41800000000E+01 0.  1.
</event>
<event>
11    1  0.6625361E-009  0.1547513E+03  0.7561462E-02  0.1092120E+00
         22   -1    0    0    0    0  0.00000000000E+00  0.00000000000E+00  0.18309814205E+04  0.18309814205E+04  0.00000000000E+00 0.  1.
         22   -1    0    0    0    0 -0.00000000000E+00 -0.00000000000E+00 -0.87692697971E+02  0.87692697971E+02  0.00000000000E+00 0.  1.
         24    2    1    2    0    0 -0.19451221234E+02 -0.29303079478E+02 -0.13793817807E+02  0.88139591635E+02  0.79632265630E+02 0.  0.
         25    2    1    2    0    0 -0.43509811956E+02 -0.39528635191E+02  0.10426825222E+03  0.17312973062E+03  0.12508564453E+03 0.  0.
        -24    2    1    2    0    0  0.62961033190E+02  0.68831714669E+02  0.16528142881E+04  0.16574047962E+04  0.80583440404E+02 0.  0.
        -11    1    3    3    0    0  0.71629937366E+01 -0.49647041658E+02 -0.20124490636E+02  0.54047500849E+02  0.00000000000E+00 0.  1.
         12    1    3    3    0    0 -0.26614214971E+02  0.20343962180E+02  0.63306728293E+01  0.34092090786E+02  0.00000000000E+00 0. -1.
         11    1    5    5    0    0  0.11579192862E+02  0.35673067034E+01  0.28506669077E+02  0.30974724637E+02  0.00000000000E+00 0. -1.
        -12    1    5    5    0    0  0.51381840328E+02  0.65264407966E+02  0.16243076190E+04  0.16264300715E+04  0.00000000000E+00 0.  1.
          5    1    4    4  501    0 -0.59829551684E+02 -0.70121060216E+02  0.41230720278E+02  0.10106425201E+03  0.41800000000E+01 0. -1.
         -5    1    4    4    0  501  0.16319739728E+02  0.30592425025E+02  0.63037531937E+02  0.72065478604E+02  0.41800000000E+01 0. -1.
</event>
<event>
11    1  0.6625361E-009  0.1333961E+03  0.7561462E-02  0.1115165E+00
         22   -1    0    0    0    0  0.00000000000E+00  0.00000000000E+00  0.71219117866E+02  0.71219117866E+02  0.00000000000E+00 0.  1.
         22   -1    0    0    0    0 -0.00000000000E+00 -0.00000000000E+00 -0.95462737790E+03  0.95462737790E+03  0.00000000000E+00 0.  1.
         24    2    1    2    0    0 -0.56455985532E+02 -0.27433191733E+02 -0.50848630425E+03  0.51843530027E+03  0.79227398300E+02 0.  0.
         25    2    1    2    0    0  0.43619186416E+01  0.19040920784E+02 -0.38812103046E+03  0.40824932491E+03  0.12509194221E+03 0.  0.
        -24    2    1    2    0    0  0.52094066890E+02  0.83922709486E+01  0.13199074683E+02  0.99161870580E+02  0.82913442743E+02 0.  0.
        -13    1    3    3    0    0 -0.41906912669E+02 -0.64227570555E+01 -0.47193690924E+03  0.47383740612E+03  0.00000000000E+00 0.  1.
         14    1    3    3    0    0 -0.14549072863E+02 -0.21010434678E+02 -0.36549395011E+02  0.44597894146E+02  0.00000000000E+00 0. -1.
         13    1    5    5    0    0 -0.98957619839E+01  0.30706368604E+02  0.67795783301E+01  0.32966192689E+02  0.00000000000E+00 0. -1.
        -14    1    5    5    0    0  0.61989828874E+02 -0.22314097655E+02  0.64194963532E+01  0.66195677891E+02  0.00000000000E+00 0.  1.
          5    1    4    4  501    0 -0.24419773746E+02  0.59576987660E+02 -0.12750699613E+03  0.14290293653E+03  0.41800000000E+01 0.  1.
         -5    1    4    4    0  501  0.28781692387E+02 -0.40536066875E+02 -0.26061403433E+03  0.26534638838E+03  0.41800000000E+01 0.  1.
</event>
<event>
11    1  0.6625361E-009  0.2363609E+03  0.7561462E-02  0.1031427E+00
         22   -1    0    0    0    0  0.00000000000E+00  0.00000000000E+00  0.92266608305E+03  0.92266608305E+03  0.00000000000E+00 0.  1.
         22   -1    0    0    0    0 -0.00000000000E+00 -0.00000000000E+00 -0.17381235667E+03  0.17381235667E+03  0.00000000000E+00 0. -1.
        -24    2    1    2    0    0  0.23427251571E+02 -0.43147660601E+02 -0.86692429651E+02  0.12512465212E+03  0.75697057267E+02 0.  0.
         25    2    1    2    0    0 -0.12271573826E+03  0.20071147425E+03  0.32133234418E+03  0.41741656222E+03  0.12505144018E+03 0.  0.
         24    2    1    2    0    0  0.99288486691E+02 -0.15756381365E+03  0.51421381185E+03  0.55393722538E+03  0.88011626497E+02 0.  0.
        -11    1    5    5    0    0  0.92792011380E+02 -0.16812412080E+03  0.46299082662E+03  0.50123505754E+03  0.00000000000E+00 0.  1.
         12    1    5    5    0    0  0.64964753105E+01  0.10560307158E+02  0.51222985228E+02  0.52702167834E+02  0.00000000000E+00 0. -1.
         13    1    3    3    0    0 -0.17405967876E+02  0.85618080993E+01 -0.39731661628E+02  0.44213993388E+02  0.00000000000E+00 0. -1.
        -14    1    3    3    0    0  0.40833219447E+02 -0.51709468700E+02 -0.46960768024E+02  0.80910658736E+02  0.00000000000E+00 0.  1.
          5    1    4    4  501    0 -0.13126275539E+03  0.21320695823E+03  0.30680425221E+03  0.39602201904E+03  0.41800000000E+01 0. -1.
         -5    1    4    4    0  501  0.85470171250E+01 -0.12495483985E+02  0.14528091966E+02  0.21394543181E+02  0.41800000000E+01 0. -1.
</event>
<event>
11    1  0.6625361E-009  0.2842040E+03  0.7561462E-02  0.1007107E+00
         22   -1    0    0    0    0  0.00000000000E+00  0.00000000000E+00  0.27962087719E+04  0.27962087719E+04  0.00000000000E+00 0. -1.
         22   -1    0    0    0    0 -0.00000000000E+00 -0.00000000000E+00 -0.17546760883E+03  0.17546760883E+03  0.00000000000E+00 0.  1.
        -24    2    1    2    0    0 -0.15897194529E+03  0.10527654561E+03 -0.51256495387E+02  0.21303012221E+03  0.79996088692E+02 0.  0.
         25    2    1    2    0    0  0.36698041780E+03 -0.16167769774E+03  0.12671877892E+04  0.13350005430E+04  0.12508897521E+03 0.  0.
         24    2    1    2    0    0 -0.20800847251E+03  0.56401152133E+02  0.14048098692E+04  0.14236457155E+04  0.82630139552E+02 0.  0.
        -13    1    5    5    0    0 -0.10831270550E+03  0.67009638163E+02  0.66658397818E+03  0.67864286171E+03  0.00000000000E+00 0.  1.
         14    1    5    5    0    0 -0.99695767013E+02 -0.10608486030E+02  0.73822589104E+03  0.74500285378E+03  0.00000000000E+00 0. -1.
         11    1    3    3    0    0 -0.96469213962E+02  0.22244318576E+02 -0.45925879081E+01  0.99107067433E+02  0.00000000000E+00 0. -1.
        -12    1    3    3    0    0 -0.62502731332E+02  0.83032227031E+02 -0.46663907479E+02  0.11392305478E+03  0.00000000000E+00 0.  1.
          5    1    4    4  501    0  0.50278293200E+02 -0.35706708290E+02  0.88014624347E+02  0.10754962707E+03  0.41800000000E+01 0.  1.
         -5    1    4    4    0  501  0.31670212460E+03 -0.12597098945E+03  0.11791731649E+04  0.12274509159E+04  0.41800000000E+01 0.  1.
</event>
<event>
11    1  0.6625361E-009  0.1271127E+03  0.7561462E-02  0.1122868E+00
         22   -1    0    0    0    0  0.00000000000E+00  0.00000000000E+00  0.10456046288E+04  0.10456046288E+04  0.00000000000E+00 0. -1.
         22   -1    0    0    0    0 -0.00000000000E+00 -0.00000000000E+00 -0.23345066576E+03  0.23345066576E+03  0.00000000000E+00 0. -1.
         24    2    1    2    0    0  0.17286024835E+02 -0.15974182932E+02 -0.17824273856E+03  0.19794813554E+03  0.82819136308E+02 0.  0.
         25    2    1    2    0    0  0.10544040939E+01  0.20487830438E+02  0.48692336998E+02  0.13579181553E+03  0.12509040938E+03 0.  0.
        -24    2    1    2    0    0 -0.18340428929E+02 -0.45136475059E+01  0.94170436456E+03  0.94531534345E+03  0.80356978517E+02 0.  0.
        -13    1    3    3    0    0  0.20616553152E+02 -0.14578661598E+02 -0.63752609989E+01  0.26042726252E+02  0.00000000000E+00 0.  1.
         14    1    3    3    0    0 -0.33305283170E+01 -0.13955213342E+01 -0.17186747756E+03  0.17190540929E+03  0.00000000000E+00 0. -1.
         11    1    5    5    0    0 -0.12246033395E+02 -0.41103581970E+02  0.61947727192E+03  0.62096019213E+03  0.00000000000E+00 0. -1.
        -12    1    5    5    0    0 -0.60943955337E+01  0.36589934464E+02  0.32222709264E+03  0.32435515132E+03  0.00000000000E+00 0.  1.
          5    1    4    4  501    0 -0.57636209324E+02  0.36174883881E+01  0.46971737893E+02  0.74557597924E+02  0.41800000000E+01 0. -1.
         -5    1    4    4    0  501  0.58690613418E+02  0.16870342050E+02  0.17205991050E+01  0.61234217603E+02  0.41800000000E+01 0. -1.
</event>
<event>
11    1  0.6625361E-009  0.1847449E+03  0.7561462E-02  0.1065868E+00
         22   -1    0    0    0    0  0.00000000000E+00  0.00000000000E+00  0.70226361447E+02  0.70226361447E+02  0.00000000000E+00 0. -1.
         22   -1    0    0    0    0 -0.00000000000E+00 -0.00000000000E+00 -0.13669793415E+04  0.13669793415E+04  0.00000000000E+00 0. -1.
        -24    2    1    2    0    0  0.21656358181E+02  0.28669107952E+02 -0.68739301336E+03  0.69289100773E+03  0.79359172009E+02 0.  0.
         25    2    1    2    0    0 -0.59021125145E+02  0.10590355077E+03 -0.54574748940E+03  0.57287348035E+03  0.12507856341E+03 0.  0.
         24    2    1    2    0    0  0.37364766965E+02 -0.13457265872E+03 -0.63612477293E+02  0.17144121486E+03  0.76417384144E+02 0.  0.
        -11    1    5    5    0    0  0.42491689388E+01 -0.10907369442E+03 -0.69246529758E+02  0.12926797026E+03  0.00000000000E+00 0.  1.
         12    1    5    5    0    0  0.33115598026E+02 -0.25498964305E+02  0.56340524652E+01  0.42173244604E+02  0.00000000000E+00 0. -1.
         11    1    3    3    0    0  0.15311937095E+02  0.19161234566E+02 -0.67699391549E+03  0.67743809306E+03  0.00000000000E+00 0. -1.
        -12    1    3    3    0    0  0.63444210852E+01  0.95078733858E+01 -0.10399097873E+02  0.15452914670E+02  0.00000000000E+00 0.  1.
          5    1    4    4  501    0 -0.67823588042E+02  0.10963726578E+01 -0.24432173899E+03  0.25359776354E+03  0.41800000000E+01 0.  1.
         -5    1    4    4    0  501  0.88024628967E+01  0.10480717811E+03 -0.30142575041E+03  0.31927571682E+03  0.41800000000E+01 0.  1.
</event>
<event>
11    1  0.6625361E-009  0.2280716E+03  0.7561462E-02  0.1036276E+00
         22   -1    0    0    0    0  0.00000000000E+00  0.00000000000E+00  0.10207729120E+04  0.10207729120E+04  0.00000000000E+00 0.  1.
         22   -1    0    0    0    0 -0.00000000000E+00 -0.00000000000E+00 -0.22719520276E+04  0.22719520276E+04  0.00000000000E+00 0.  1.
         24    2    1    2    0    0  0.35659685095E+02  0.18688135247E+03 -0.22233372408E+04  0.22330271441E+04  0.83579226031E+02 0.  0.
         25    2    1    2    0    0 -0.43562053200E+02 -0.22632724349E+03  0.38207823766E+03  0.46341365523E+03  0.12508701986E+03 0.  0.
        -24    2    1    2    0    0  0.79023681058E+01  0.39445891024E+02  0.59007988751E+03  0.59628414023E+03  0.75776490455E+02 0.  0.
        -11    1    3    3    0    0 -0.16278079224E+02  0.10846842425E+03 -0.14127899329E+04  0.14170412024E+04  0.00000000000E+00 0.  1.
         12    1    3    3    0    0  0.51937764318E+02  0.78412928220E+02 -0.81054730796E+03  0.81598594174E+03  0.00000000000E+00 0. -1.
         11    1    5    5    0    0  0.67045872088E+01 -0.14371939463E+02  0.33037017300E+02  0.36646263734E+02  0.00000000000E+00 0. -1.
        -12    1    5    5    0    0  0.11977808970E+01  0.53817830487E+02  0.55704287021E+03  0.55963787649E+03  0.00000000000E+00 0.  1.
          5    1    4    4  501    0 -0.63400536452E+02 -0.22786569252E+03  0.37168556238E+03  0.44057920007E+03  0.41800000000E+01 0.  1.
         -5    1    4    4    0  501  0.19838483252E+02  0.15384490267E+01  0.10392675275E+02  0.22834455161E+02  0.41800000000E+01 0.  1.
</event>
<event>
11    1  0.6625361E-009  0.1817654E+03  0.7561462E-02  0.1068224E+00
         22   -1    0    0    0    0  0.00000000000E+00  0.00000000000E+00  0.42642859156E+03  0.42642859156E+03  0.00000000000E+00 0.  1.
         22   -1    0    0    0    0 -0.00000000000E+00 -0.00000000000E+00 -0.25658316605E+03  0.25658316605E+03  0.00000000000E+00 0.  1.
         24    2    1    2    0    0  0.50754734527E+02  0.13161973144E+03 -0.16085911208E+03  0.22912690680E+03  0.81998101804E+02 0.  0.
         25    2    1    2    0    0 -0.69196845764E+02 -0.77101188947E+02  0.73752488936E+02  0.17838071489E+03  0.12508977984E+03 0.  0.
        -24    2    1    2    0    0  0.18442111237E+02 -0.54518542490E+02  0.25695204865E+03  0.27550413592E+03  0.81029566602E+02 0.  0.
        -11    1    3    3    0    0  0.20642521382E+02  0.38601049382E+02 -0.11111952660E+03  0.11943074936E+03  0.00000000000E+00 0.  1.
         12    1    3    3    0    0  0.30112213146E+02  0.93018682055E+02 -0.49739585479E+02  0.10969615743E+03  0.00000000000E+00 0. -1.
         11    1    5    5    0    0 -0.63422618847E+00  0.20442219161E+02  0.35997998432E+02  0.41402203543E+02  0.00000000000E+00 0. -1.
        -12    1    5    5    0    0  0.19076337425E+02 -0.74960761652E+02  0.22095405022E+03  0.23410193238E+03  0.00000000000E+00 0.  1.
          5    1    4    4  501    0  0.24595243131E+02 -0.35070574344E+02  0.61107104479E+02  0.74742369425E+02  0.41800000000E+01 0. -1.
         -5    1    4    4    0  501 -0.93792088895E+02 -0.42030614603E+02  0.12645384457E+02  0.10363834547E+03  0.41800000000E+01 0. -1.
</event>
<event>
11    1  0.6625361E-009  0.1442624E+03  0.7561462E-02  0.1102890E+00
         22   -1    0    0    0    0  0.00000000000E+00  0.00000000000E+00  0.34294892672E+02  0.34294892672E+02  0.00000000000E+00 0.  1.
         22   -1    0    0    0    0 -0.00000000000E+00 -0.00000000000E+00 -0.21256657331E+04  0.21256657331E+04  0.00000000000E+00 0.  1.
        -24    2    1    2    0    0 -0.65394771968E+02 -0.70152039051E+01 -0.95635555348E+03  0.96193942403E+03  0.79911335541E+02 0.  0.
         25    2    1    2    0    0  0.79321888746E+02  0.30108741664E+02 -0.10931243160E+04  0.11035247852E+04  0.12509069882E+03 0.  0.
         24    2    1    2    0    0 -0.13927116777E+02 -0.23093537759E+02 -0.41890970928E+02  0.94496416533E+02  0.80295972653E+02 0.  0.
        -13    1    5    5    0    0 -0.35158878131E+02 -0.12900619547E+02  0.89146842933E+01  0.38497328377E+02  0.00000000000E+00 0.  1.
         14    1    5    5    0    0  0.21231761353E+02 -0.10192918212E+02 -0.50805655221E+02  0.55999088156E+02  0.00000000000E+00 0. -1.
         13    1    3    3    0    0 -0.31404395143E+02  0.28630517367E+02 -0.22842331319E+03  0.23234274804E+03  0.00000000000E+00 0. -1.
        -14    1    3    3    0    0 -0.33990376826E+02 -0.35645721272E+02 -0.72793224029E+03  0.72959667599E+03  0.00000000000E+00 0.  1.
          5    1    4    4  501    0 -0.24667620995E+02  0.25727299000E+02 -0.50292451343E+03  0.50420325668E+03  0.41800000000E+01 0.  1.
         -5    1    4    4    0  501  0.10398950974E+03  0.43814426637E+01 -0.59019980256E+03  0.59932152850E+03  0.41800000000E+01 0.  1.
</event>
<event>
11    1  0.6625361E-009  0.1321246E+03  0.7561462E-02  0.1116686E+00
         22   -1    0    0    0    0  0.00000000000E+00  0.00000000000E+00  0.17064279717E+04  0.17064279717E+04  0.00000000000E+00 0.  1.
         22   -1    0    0    0    0 -0.00000000000E+00 -0.00000000000E+00 -0.56933521321E+03  0.56933521321E+03  0.00000000000E+00 0. -1.
         24    2    1    2    0    0  0.18653262516E+02 -0.37452969842E+02 -0.53610084550E+03  0.54399654559E+03  0.82325305380E+02 0.  0.
         25    2    1    2    0    0 -0.48900686736E+02  0.56386203925E+02  0.16080713395E+03  0.21698658124E+03  0.12511419166E+03 0.  0.
        -24    2    1    2    0    0  0.30247424220E+02 -0.18933234083E+02  0.15123864700E+04  0.15147800581E+04  0.77281405019E+02 0.  0.
        -11    1    3    3    0    0 -0.26124174243E+02 -0.30979771786E+00 -0.28724893748E+03  0.28843460357E+03  0.00000000000E+00 0.  1.
         12    1    3    3    0    0  0.44777436759E+02 -0.37143172124E+02 -0.24885190802E+03  0.25556194201E+03  0.00000000000E+00 0. -1.
         11    1    5    5    0    0  0.17063060446E+02 -0.32462371254E+02  0.29820221417E+03  0.30044885441E+03  0.00000000000E+00 0. -1.
        -12    1    5    5    0    0  0.13184363774E+02  0.13529137170E+02  0.12141842558E+04  0.12143312036E+04  0.00000000000E+00 0.  1.
          5    1    4    4  501    0  0.25726740465E+02 -0.24273234065E+02  0.42895306770E+02  0.55754235802E+02  0.41800000000E+01 0.  1.
         -5    1    4    4    0  501 -0.74627427201E+02  0.80659437990E+02  0.11791182718E+03  0.16123234544E+03  0.41800000000E+01 0.  1.
</event>
<event>
11    1  0.6625361E-009  0.1859449E+03  0.7561462E-02  0.1064933E+00
         22   -1    0    0    0    0  0.00000000000E+00  0.00000000000E+00  0.58253552025E+03  0.58253552025E+03  0.00000000000E+00 0.  1.
         22   -1    0    0    0    0 -0.00000000000E+00 -0.00000000000E+00 -0.87819434050E+03  0.87819434050E+03  0.00000000000E+00 0.  1.
        -24    2    1    2    0    0 -0.92470129435E+01 -0.13675292909E+03 -0.83334048002E+03  0.84838809143E+03  0.80741112074E+02 0.  0.
         25    2    1    2    0    0  0.88298681379E+01  0.16550343365E+03  0.38608431313E+03  0.43838112638E+03  0.12509021546E+03 0.  0.
         24    2    1    2    0    0  0.41714480560E+00 -0.28750504557E+02  0.15159734664E+03  0.17396064293E+03  0.80335448329E+02 0.  0.
        -13    1    5    5    0    0  0.39197650094E+02 -0.21794105937E+02  0.94330394641E+02  0.10444932829E+03  0.00000000000E+00 0.  1.
         14    1    5    5    0    0 -0.38780505288E+02 -0.69563986202E+01  0.57266951997E+02  0.69511314642E+02  0.00000000000E+00 0. -1.
         13    1    3    3    0    0  0.24929226517E+01 -0.56511660235E+01 -0.26234374624E+03  0.26241644676E+03  0.00000000000E+00 0. -1.
        -14    1    3    3    0    0 -0.11739935595E+02 -0.13110176307E+03 -0.57099673379E+03  0.58597164467E+03  0.00000000000E+00 0.  1.
          5    1    4    4  501    0  0.63018304614E+02  0.12348189702E+03  0.26816755956E+03  0.30191124194E+03  0.41800000000E+01 0. -1.
         -5    1    4    4    0  501 -0.54188436476E+02  0.42021536629E+02  0.11791675357E+03  0.13646988444E+03  0.41800000000E+01 0. -1.
</event>
<event>
11    1  0.6625361E-009  0.2387281E+03  0.7561462E-02  0.1030081E+00
         22   -1    0    0    0    0  0.00000000000E+00  0.00000000000E+00  0.23730965344E+04  0.23730965344E+04  0.00000000000E+00 0. -1.
         22   -1    0    0    0    0 -0.00000000000E+00 -0.00000000000E+00 -0.29915264626E+03  0.29915264626E+03  0.00000000000E+00 0.  1.
        -24    2    1    2    0    0 -0.86160995613E+02 -0.17796949397E+03 -0.20994576073E+03  0.29993382524E+03  0.82378511306E+02 0.  0.
         25    2    1    2    0    0  0.21490887776E+03  0.21028874715E+03  0.61367889643E+03  0.69473901840E+03  0.12511328005E+03 0.  0.
         24    2    1    2    0    0 -0.12874788215E+03 -0.32319253181E+02  0.16702107525E+04  0.16775763371E+04  0.83891940441E+02 0.  0.
        -13    1    5    5    0    0 -0.59512587170E+02 -0.29662137397E+02  0.40099968482E+03  0.40647550683E+03  0.00000000000E+00 0.  1.
         14    1    5    5    0    0 -0.69235294981E+02 -0.26571157841E+01  0.12692110677E+04  0.12711008302E+04  0.00000000000E+00 0. -1.
         11    1    3    3    0    0 -0.36874054810E+01 -0.11263820139E+02  0.73212734384E+01  0.13930960055E+02  0.00000000000E+00 0. -1.
        -12    1    3    3    0    0 -0.82473590132E+02 -0.16670567383E+03 -0.21726703417E+03  0.28600286519E+03  0.00000000000E+00 0.  1.
          5    1    4    4  501    0  0.12757865309E+02 -0.14798006270E+02  0.66997222269E+02  0.69913119718E+02  0.41800000000E+01 0. -1.
         -5    1    4    4    0  501  0.20215101245E+03  0.22508675342E+03  0.54668167416E+03  0.62482589868E+03  0.41800000000E+01 0. -1.
</event>
<event>
11    1  0.6625361E-009  0.2074466E+03  0.7561462E-02  0.1049379E+00
         22   -1    0    0    0    0  0.00000000000E+00  0.00000000000E+00  0.11359445270E+03  0.11359445270E+03  0.00000000000E+00 0. -1.
         22   -1    0    0    0    0 -0.00000000000E+00 -0.00000000000E+00 -0.21695910420E+04  0.21695910420E+04  0.00000000000E+00 0. -1.
         24    2    1    2    0    0 -0.86275642334E+01  0.15623349091E+03 -0.14463354375E+04  0.14571141483E+04  0.82535476297E+02 0.  0.
         25    2    1    2    0    0 -0.46210711674E+02 -0.20184335414E+03 -0.66759080294E+03  0.71007278571E+03  0.12509880638E+03 0.  0.
        -24    2    1    2    0    0  0.54838275907E+02  0.45609863222E+02  0.57929651147E+02  0.11599856069E+03  0.70797778731E+02 0.  0.
        -11    1    3    3    0    0  0.13820284973E+01 -0.92669118104E+01 -0.13745301968E+03  0.13777197929E+03  0.00000000000E+00 0.  1.
         12    1    3    3    0    0 -0.10009592731E+02  0.16550040272E+03 -0.13088824178E+04  0.13193421690E+04  0.00000000000E+00 0. -1.
         11    1    5    5    0    0  0.71532927381E+02  0.37056002839E+02  0.39585654788E+02  0.89761523556E+02  0.00000000000E+00 0. -1.
        -12    1    5    5    0    0 -0.16694651474E+02  0.85538603827E+01  0.18343996359E+02  0.26237037137E+02  0.00000000000E+00 0.  1.
          5    1    4    4  501    0  0.41660898012E+02 -0.45751714057E+02 -0.14855349138E+03  0.16097969426E+03  0.41800000000E+01 0.  1.
         -5    1    4    4    0  501 -0.87871609686E+02 -0.15609164008E+03 -0.51903731156E+03  0.54909309145E+03  0.41800000000E+01 0.  1.
</event>
<event>
11    1  0.6625361E-009  0.1366987E+03  0.7561462E-02  0.1111302E+00
         22   -1    0    0    0    0  0.00000000000E+00  0.00000000000E+00  0.20504556915E+03  0.20504556915E+03  0.00000000000E+00 0.  1.
         22   -1    0    0    0    0 -0.00000000000E+00 -0.00000000000E+00 -0.19144497589E+04  0.19144497589E+04  0.00000000000E+00 0.  1.
        -24    2    1    2    0    0 -0.33839715178E+02 -0.76997834918E+01 -0.12215445908E+04  0.12246291342E+04  0.79629869258E+02 0.  0.
         25    2    1    2    0    0 -0.20833104711E+01 -0.34755542743E+02 -0.67298579198E+03  0.68539748966E+03  0.12509018621E+03 0.  0.
         24    2    1    2    0    0  0.35923025649E+02  0.42455326235E+02  0.18512619300E+03  0.20946870422E+03  0.80700137634E+02 0.  0.
        -13    1    5    5    0    0  0.52904333339E+02  0.44737303149E+02  0.17782211889E+03  0.19084286925E+03  0.00000000000E+00 0.  1.
         14    1    5    5    0    0 -0.16981307690E+02 -0.22819769141E+01  0.73040741135E+01  0.18625834965E+02  0.00000000000E+00 0. -1.
         13    1    3    3    0    0  0.45519600076E+00  0.32498259234E+02 -0.58125224931E+03  0.58216021969E+03  0.00000000000E+00 0. -1.
        -14    1    3    3    0    0 -0.34294911179E+02 -0.40198042726E+02 -0.64029234146E+03  0.64246891451E+03  0.00000000000E+00 0.  1.
          5    1    4    4  501    0 -0.51732900686E+02  0.14372819642E+02 -0.19433517272E+03  0.20165937299E+03  0.41800000000E+01 0. -1.
         -5    1    4    4    0  501  0.49649590215E+02 -0.49128362385E+02 -0.47865061926E+03  0.48373811666E+03  0.41800000000E+01 0. -1.
</event>
<event>
11    1  0.6625361E-009  0.1736436E+03  0.7561462E-02  0.1074904E+00
         22   -1    0    0    0    0  0.00000000000E+00  0.00000000000E+00  0.49080568632E+03  0.49080568632E+03  0.00000000000E+00 0.  1.
         22   -1    0    0    0    0 -0.00000000000E+00 -0.00000000000E+00 -0.51974005381E+03  0.51974005381E+03  0.00000000000E+00 0. -1.
        -24    2    1    2    0    0  0.11322806106E+03  0.41549675820E+02 -0.41126256225E+03  0.43602505625E+03  0.80212126241E+02 0.  0.
         25    2    1    2    0    0 -0.12335553476E+03 -0.81662972538E+01 -0.65799720099E+01  0.17599205672E+03  0.12508649660E+03 0.  0.
         24    2    1    2    0    0  0.10127473700E+02 -0.33383378566E+02  0.38890816677E+03  0.39852862716E+03  0.79740132903E+02 0.  0.
        -13    1    5    5    0    0  0.38641954153E+02 -0.42075293380E+02  0.24633759257E+03  0.25287495021E+03  0.00000000000E+00 0.  1.
         14    1    5    5    0    0 -0.28514480453E+02  0.86919148139E+01  0.14257057421E+03  0.14565367695E+03  0.00000000000E+00 0. -1.
         13    1    3    3    0    0  0.41401051462E+02 -0.18905793720E+02 -0.19539712480E+03  0.20062779588E+03  0.00000000000E+00 0. -1.
        -14    1    3    3    0    0  0.71827009594E+02  0.60455469540E+02 -0.21586543745E+03  0.23539726037E+03  0.00000000000E+00 0.  1.
          5    1    4    4  501    0 -0.50704248851E+02 -0.57010105595E+02 -0.34738148064E+02  0.83936191970E+02  0.41800000000E+01 0.  1.
         -5    1    4    4    0  501 -0.72651285905E+02  0.48843808341E+02  0.28158176054E+02  0.92055864754E+02  0.41800000000E+01 0.  1.
</event>
<event>
11    1  0.6625361E-009  0.2009502E+03  0.7561462E-02  0.1053854E+00
         22   -1    0    0    0    0  0.00000000000E+00  0.00000000000E+00  0.70128235181E+03  0.70128235181E+03  0.00000000000E+00 0. -1.
         22   -1    0    0    0    0 -0.00000000000E+00 -0.00000000000E+00 -0.10037827714E+04  0.10037827714E+04  0.00000000000E+00 0.  1.
         24    2    1    2    0    0  0.15326235517E+03 -0.39507170778E+02 -0.96140384014E+03  0.97741369925E+03  0.77395281494E+02 0.  0.
         25    2    1    2    0    0 -0.11555302967E+03  0.50871469384E+02  0.23236559219E+03  0.29253920168E+03  0.12508000250E+03 0.  0.
        -24    2    1    2    0    0 -0.37709325495E+02 -0.11364298605E+02  0.42653782841E+03  0.43511222223E+03  0.76400172516E+02 0.  0.
        -11    1    3    3    0    0  0.66052123107E+02 -0.32169645718E+02 -0.64358621322E+03  0.64776614833E+03  0.00000000000E+00 0.  1.
         12    1    3    3    0    0  0.87210232060E+02 -0.73375250606E+01 -0.31781762691E+03  0.32964755092E+03  0.00000000000E+00 0. -1.
         11    1    5    5    0    0 -0.61181940793E+02 -0.47843950357E+01  0.31848492005E+03  0.32434359037E+03  0.00000000000E+00 0. -1.
        -12    1    5    5    0    0  0.23472615297E+02 -0.65799035698E+01  0.10805290836E+03  0.11076863187E+03  0.00000000000E+00 0.  1.
          5    1    4    4  501    0 -0.10728354115E+03  0.85377663855E+02  0.20848438993E+03  0.24956425412E+03  0.41800000000E+01 0. -1.
         -5    1    4    4    0  501 -0.82694885184E+01 -0.34506194471E+02  0.23881202252E+02  0.42974947565E+02  0.41800000000E+01 0. -1.
</event>
<event>
11    1  0.6625361E-009  0.1734499E+03  0.7561462E-02  0.1075068E+00
         22   -1    0    0    0    0  0.00000000000E+00  0.00000000000E+00  0.73515228020E+03  0.73515228020E+03  0.00000000000E+00 0.  1.
         22   -1    0    0    0    0 -0.00000000000E+00 -0.00000000000E+00 -0.20170629369E+03  0.20170629369E+03  0.00000000000E+00 0. -1.
         24    2    1    2    0    0 -0.55895130720E+02 -0.99594502561E+02 -0.11543035011E+03  0.18138687585E+03  0.80831320817E+02 0.  0.
         25    2    1    2    0    0  0.22458767120E+02  0.17625364095E+03  0.21279452111E+03  0.30413542837E+03  0.12508840237E+03 0.  0.
        -24    2    1    2    0    0  0.33436363600E+02 -0.76659138384E+02  0.43608181551E+03  0.45133626968E+03  0.80885503010E+02 0.  0.
        -13    1    3    3    0    0 -0.48696238026E+02 -0.54289473548E+02 -0.20186538802E+02  0.75671440351E+02  0.00000000000E+00 0.  1.
         14    1    3    3    0    0 -0.71988926938E+01 -0.45305029014E+02 -0.95243811308E+02  0.10571543550E+03  0.00000000000E+00 0. -1.
         13    1    5    5    0    0 -0.14054064528E+02 -0.81537620871E+01  0.15100147243E+02  0.22181411422E+02  0.00000000000E+00 0. -1.
        -14    1    5    5    0    0  0.47490428128E+02 -0.68505376297E+02  0.42098166827E+03  0.42915485825E+03  0.00000000000E+00 0.  1.
          5    1    4    4  501    0  0.80823884162E+01  0.16433512926E+03  0.22693876455E+03  0.28033914277E+03  0.41800000000E+01 0. -1.
         -5    1    4    4    0  501  0.14376378704E+02  0.11918511685E+02 -0.14144243449E+02  0.23796285596E+02  0.41800000000E+01 0. -1.
</event>
<event>
11    1  0.6625361E-009  0.1418854E+03  0.7561462E-02  0.1105471E+00
         22   -1    0    0    0    0  0.00000000000E+00  0.00000000000E+00  0.91432851869E+03  0.91432851869E+03  0.00000000000E+00 0.  1.
         22   -1    0    0    0    0 -0.00000000000E+00 -0.00000000000E+00 -0.87318813771E+03  0.87318813771E+03  0.00000000000E+00 0.  1.
        -24    2    1    2    0    0 -0.44553513798E+02 -0.53326872372E+02 -0.82698396077E+03  0.83484096773E+03  0.90709421363E+02 0.  0.
         25    2    1    2    0    0  0.38013865222E+01 -0.38996514641E+00  0.61768021276E+02  0.13956268729E+03  0.12509137708E+03 0.  0.
         24    2    1    2    0    0  0.40752127276E+02  0.53716837518E+02  0.80635632048E+03  0.81311300137E+03  0.79975014325E+02 0.  0.
        -11    1    5    5    0    0  0.36345653815E+01  0.38999437477E+01  0.52296644688E+03  0.52299361773E+03  0.00000000000E+00 0.  1.
         12    1    5    5    0    0  0.37117561895E+02  0.49816893770E+02  0.28338987360E+03  0.29011938364E+03  0.00000000000E+00 0. -1.
         13    1    3    3    0    0  0.11870712502E+02  0.88181033304E+00 -0.15254954445E+02  0.19349548829E+02  0.00000000000E+00 0. -1.
        -14    1    3    3    0    0 -0.56424226301E+02 -0.54208682705E+02 -0.81172900633E+03  0.81549141891E+03  0.00000000000E+00 0.  1.
          5    1    4    4  501    0 -0.89774589735E+01 -0.45062806377E+01  0.99087033917E+02  0.99682566306E+02  0.41800000000E+01 0.  1.
         -5    1    4    4    0  501  0.12778845496E+02  0.41163154913E+01 -0.37319012641E+02  0.39880120987E+02  0.41800000000E+01 0.  1.
</event>
<event>
11    1  0.6625361E-009  0.1541467E+03  0.7561462E-02  0.1092715E+00
         22   -1    0    0    0    0  0.00000000000E+00  0.00000000000E+00  0.84301156631E+03  0.84301156631E+03  0.00000000000E+00 0.  1.
         22   -1    0    0    0    0 -0.00000000000E+00 -0.00000000000E+00 -0.15953299513E+03  0.15953299513E+03  0.00000000000E+00 0.  1.
        -24    2    1    2    0    0  0.32802290433E+02 -0.10141790989E+03 -0.82619054582E+02  0.15953114490E+03  0.85221448637E+02 0.  0.
         25    2    1    2    0    0 -0.51234948674E+02  0.12423492294E+02  0.10696907702E+03  0.17282591367E+03  0.12508816839E+03 0.  0.
         24    2    1    2    0    0  0.18432658241E+02  0.88994417600E+02  0.65912854873E+03  0.67018750287E+03  0.80256314328E+02 0.  0.
        -13    1    5    5    0    0  0.71037373519E+01  0.58530019334E+02  0.59849196060E+03  0.60138910296E+03  0.00000000000E+00 0.  1.
         14    1    5    5    0    0  0.11328920889E+02  0.30464398266E+02  0.60636588130E+02  0.68798399911E+02  0.00000000000E+00 0. -1.
         11    1    3    3    0    0  0.14385215882E+02  0.11868165340E+02 -0.24763376537E+02  0.31000203258E+02  0.00000000000E+00 0. -1.
        -12    1    3    3    0    0  0.18417074551E+02 -0.11328607523E+03 -0.57855678044E+02  0.12853094164E+03  0.00000000000E+00 0.  1.
          5    1    4    4  501    0 -0.69287578874E+02  0.53323155040E+02  0.51859411156E+02  0.10173985637E+03  0.41800000000E+01 0.  1.
         -5    1    4    4    0  501  0.18052630200E+02 -0.40899662746E+02  0.55109665868E+02  0.71086057296E+02  0.41800000000E+01 0.  1.
</event>
<event>
11    1  0.6625361E-009  0.1392239E+03  0.7561462E-02  0.1108428E+00
         22   -1    0    0    0    0  0.00000000000E+00  0.00000000000E+00  0.47802111448E+02  0.47802111448E+02  0.00000000000E+00 0.  1.
         22   -1    0    0    0    0 -0.00000000000E+00 -0.00000000000E+00 -0.11288643006E+04  0.11288643006E+04  0.00000000000E+00 0.  1.
         24    2    1    2    0    0 -0.78709738963E+01 -0.35700008809E+02 -0.80635972143E+03  0.81130643373E+03  0.81643653825E+02 0.  0.
         25    2    1    2    0    0  0.61986050679E+02 -0.59893116965E+00 -0.15258461861E+03  0.20680403162E+03  0.12507282863E+03 0.  0.
        -24    2    1    2    0    0 -0.54115076783E+02  0.36298939979E+02 -0.12211784916E+03  0.15855594674E+03  0.77337989272E+02 0.  0.
        -11    1    3    3    0    0  0.86066770519E+01 -0.57282598084E+02 -0.65275448624E+03  0.65531960923E+03  0.00000000000E+00 0.  1.
         12    1    3    3    0    0 -0.16477650948E+02  0.21582589275E+02 -0.15360523519E+03  0.15598682450E+03  0.00000000000E+00 0. -1.
         11    1    5    5    0    0  0.16732527345E+02  0.22855883013E+02 -0.43148402140E+02  0.51615438261E+02  0.00000000000E+00 0. -1.
        -12    1    5    5    0    0 -0.70847604128E+02  0.13443056966E+02 -0.78969447015E+02  0.10694050848E+03  0.00000000000E+00 0.  1.
          5    1    4    4  501    0  0.21074807569E+02  0.61370355578E+02 -0.65727346468E+02  0.92455527318E+02  0.41800000000E+01 0.  1.
         -5    1    4    4    0  501  0.40911243110E+02 -0.61969286748E+02 -0.86857272142E+02  0.11434850431E+03  0.41800000000E+01 0.  1.
</event>
<event>
11    1  0.6625361E-009  0.1674281E+03  0.7561462E-02  0.1080292E+00
         22   -1    0    0    0    0  0.00000000000E+00  0.00000000000E+00  0.16210058354E+04  0.16210058354E+04  0.00000000000E+00 0. -1.
         22   -1    0    0    0    0 -0.00000000000E+00 -0.00000000000E+00 -0.11207529980E+04  0.11207529980E+04  0.00000000000E+00 0.  1.
        -24    2    1    2    0    0 -0.72472360471E+02  0.84044737599E+02 -0.10959019515E+04  0.11046277569E+04  0.82979714563E+02 0.  0.
         25    2    1    2    0    0  0.16162084473E+03 -0.85229763097E+02  0.73479551428E+03  0.76743091908E+03  0.12506141603E+03 0.  0.
         24    2    1    2    0    0 -0.89148484256E+02  0.11850254977E+01  0.86135927460E+03  0.86970015750E+03  0.80558720634E+02 0.  0.
        -11    1    5    5    0    0 -0.58369222087E+02  0.14000713819E+02  0.77189320889E+03  0.77422355428E+03  0.00000000000E+00 0.  1.
         12    1    5    5    0    0 -0.30779262169E+02 -0.12815688321E+02  0.89466065716E+02  0.95476603215E+02  0.00000000000E+00 0. -1.
         13    1    3    3    0    0 -0.29189221889E+02  0.36527116073E+02 -0.16465211522E+03  0.17116237884E+03  0.00000000000E+00 0. -1.
        -14    1    3    3    0    0 -0.43283138583E+02  0.47517621526E+02 -0.93124983627E+03  0.93346537804E+03  0.00000000000E+00 0.  1.
          5    1    4    4  501    0  0.11296760403E+03 -0.12321364233E+02  0.24850972539E+03  0.27329114803E+03  0.41800000000E+01 0.  1.
         -5    1    4    4    0  501  0.48653240695E+02 -0.72908398864E+02  0.48628578889E+03  0.49413977105E+03  0.41800000000E+01 0.  1.
</event>
<event>
11    1  0.6625361E-009  0.2072831E+03  0.7561462E-02  0.1049490E+00
         22   -1    0    0    0    0  0.00000000000E+00  0.00000000000E+00  0.88348785586E+03  0.88348785586E+03  0.00000000000E+00 0. -1.
         22   -1    0    0    0    0 -0.00000000000E+00 -0.00000000000E+00 -0.46923483637E+03  0.46923483637E+03  0.00000000000E+00 0.  1.
        -24    2    1    2    0    0 -0.16329164186E+03 -0.10989517467E+01 -0.38027979737E+03  0.42117669215E+03  0.78177450286E+02 0.  0.
         25    2    1    2    0    0  0.18555589101E+03  0.88887938153E+02  0.17148591195E+03  0.29561173905E+03  0.12508728163E+03 0.  0.
         24    2    1    2    0    0 -0.22264249157E+02 -0.87788986406E+02  0.62304690490E+03  0.63593426103E+03  0.89567492522E+02 0.  0.
        -13    1    5    5    0    0  0.16590320263E+02 -0.21463957788E+01  0.22333843299E+02  0.27904234405E+02  0.00000000000E+00 0.  1.
         14    1    5    5    0    0 -0.38854569420E+02 -0.85642590627E+02  0.60071306160E+03  0.60803002662E+03  0.00000000000E+00 0. -1.
         11    1    3    3    0    0 -0.88343413186E+02 -0.31039132367E+02 -0.14660401267E+03  0.17395609481E+03  0.00000000000E+00 0. -1.
        -12    1    3    3    0    0 -0.74948228671E+02  0.29940180620E+02 -0.23367578469E+03  0.24722059734E+03  0.00000000000E+00 0.  1.
          5    1    4    4  501    0  0.58121450657E+02 -0.22424580127E+02  0.85205316648E+02  0.10563324858E+03  0.41800000000E+01 0. -1.
         -5    1    4    4    0  501  0.12743444036E+03  0.11131251828E+03  0.86280595300E+02  0.18997849047E+03  0.41800000000E+01 0. -1.
</event>
<event>
11    1  0.6625361E-009  0.1602088E+03  0.7561462E-02  0.1086881E+00
         22   -1    0    0    0    0  0.00000000000E+00  0.00000000000E+00  0.38808689168E+03  0.38808689168E+03  0.00000000000E+00 0.  1.
         22   -1    0    0    0    0 -0.00000000000E+00 -0.00000000000E+00 -0.24679700424E+03  0.24679700424E+03  0.00000000000E+00 0. -1.
         24    2    1    2    0    0 -0.72344968550E+02  0.81584385905E+02 -0.17571657890E+03  0.22185362671E+03  0.80330001154E+02 0.  0.
         25    2    1    2    0    0  0.36764387752E+02 -0.38077424771E+02  0.83875102387E+02  0.15963779459E+03  0.12509069580E+03 0.  0.
        -24    2    1    2    0    0  0.35580580798E+02 -0.43506961134E+02  0.23313136395E+03  0.25339247462E+03  0.81845463753E+02 0.  0.
        -13    1    3    3    0    0 -0.30756405372E+02  0.84731294776E+02 -0.94761579537E+02  0.13078648914E+03  0.00000000000E+00 0.  1.
         14    1    3    3    0    0 -0.41588563178E+02 -0.31469088707E+01 -0.80954999364E+02  0.91067137567E+02  0.00000000000E+00 0. -1.
         11    1    5    5    0    0  0.45137066933E+02 -0.80921825674E+01  0.55406325443E+02  0.71921478914E+02  0.00000000000E+00 0. -1.
        -12    1    5    5    0    0 -0.95564861351E+01 -0.35414778567E+02  0.17772503851E+03  0.18147099570E+03  0.00000000000E+00 0.  1.
          5    1    4    4  501    0 -0.37727152533E+02 -0.44868167890E+02  0.23017097240E+02  0.63116952504E+02  0.41800000000E+01 0. -1.
         -5    1    4    4    0  501  0.74491540285E+02  0.67907431187E+01  0.60858005146E+02  0.96520842084E+02  0.41800000000E+01 0. -1.
</event>
<event>
11    1  0.6625361E-009  0.3320126E+03  0.7561462E-02  0.9874848E-01
         22   -1    0    0    0    0  0.00000000000E+00  0.00000000000E+00  0.12514548328E+04  0.12514548328E+04  0.00000000000E+00 0. -1.
         22   -1    0    0    0    0 -0.00000000000E+00 -0.00000000000E+00 -0.75822982680E+03  0.75822982680E+03  0.00000000000E+00 0.  1.
        -24    2    1    2    0    0 -0.51204602613E+02  0.17528859929E+03 -0.64834666368E+03  0.67835172434E+03  0.80372017761E+02 0.  0.
         25    2    1    2    0    0  0.31577986074E+03  0.10326715097E+02  0.45112618117E+03  0.56478724110E+03  0.12508491070E+03 0.  0.
         24    2    1    2    0    0 -0.26457525813E+03 -0.18561531439E+03  0.69044548854E+03  0.76654569418E+03  0.80151210010E+02 0.  0.
        -11    1    5    5    0    0 -0.50273026079E+01  0.33953120058E+01  0.47521115237E+02  0.47906766834E+02  0.00000000000E+00 0.  1.
         12    1    5    5    0    0 -0.25954795552E+03 -0.18901062639E+03  0.64292437331E+03  0.71863892735E+03  0.00000000000E+00 0. -1.
         13    1    3    3    0    0 -0.35322930633E+02  0.82055082433E+02 -0.18486276123E+03  0.20531679539E+03  0.00000000000E+00 0. -1.
        -14    1    3    3    0    0 -0.15881671980E+02  0.93233516855E+02 -0.46348390246E+03  0.47303492895E+03  0.00000000000E+00 0.  1.
          5    1    4    4  501    0  0.90448117606E+02 -0.41394955504E+02  0.80894790179E+02  0.12828033286E+03  0.41800000000E+01 0. -1.
         -5    1    4    4    0  501  0.22533174314E+03  0.51721670601E+02  0.37023139099E+03  0.43650690825E+03  0.41800000000E+01 0. -1.
</event>
<event>
11    1  0.6625361E-009  0.2278956E+03  0.7561462E-02  0.1036381E+00
         22   -1    0    0    0    0  0.00000000000E+00  0.00000000000E+00  0.84948507584E+03  0.84948507584E+03  0.00000000000E+00 0.  1.
         22   -1    0    0    0    0 -0.00000000000E+00 -0.00000000000E+00 -0.12541432214E+04  0.12541432214E+04  0.00000000000E+00 0.  1.
         24    2    1    2    0    0  0.70016295000E+02  0.84037279682E+02 -0.11788792077E+04  0.11866223859E+04  0.79699150308E+02 0.  0.
         25    2    1    2    0    0  0.76128366204E+02 -0.20306865659E+03  0.24955209668E+03  0.35349359183E+03  0.12509621530E+03 0.  0.
        -24    2    1    2    0    0 -0.14614466120E+03  0.11903137691E+03  0.52466896542E+03  0.56351231948E+03  0.82108953487E+02 0.  0.
        -11    1    3    3    0    0  0.44056526656E+01  0.58092780026E+02 -0.71972312019E+03  0.72207724698E+03  0.00000000000E+00 0.  1.
         12    1    3    3    0    0  0.65610642334E+02  0.25944499655E+02 -0.45915608750E+03  0.46454513897E+03  0.00000000000E+00 0. -1.
         13    1    5    5    0    0 -0.44845486739E+02  0.88155883081E+00  0.71914012821E+02  0.84755649174E+02  0.00000000000E+00 0. -1.
        -14    1    5    5    0    0 -0.10129917447E+03  0.11814981808E+03  0.45275495260E+03  0.47875667031E+03  0.00000000000E+00 0.  1.
          5    1    4    4  501    0 -0.33526577528E+02 -0.66920553499E+02  0.64540768361E+02  0.98921054695E+02  0.41800000000E+01 0. -1.
         -5    1    4    4    0  501  0.10965494373E+03 -0.13614810309E+03  0.18501132832E+03  0.25457253714E+03  0.41800000000E+01 0. -1.
</event>
<event>
11    1  0.6625361E-009  0.2711716E+03  0.7561462E-02  0.1013189E+00
         22   -1    0    0    0    0  0.00000000000E+00  0.00000000000E+00  0.19150080843E+04  0.19150080843E+04  0.00000000000E+00 0. -1.
         22   -1    0    0    0    0 -0.00000000000E+00 -0.00000000000E+00 -0.13271207849E+03  0.13271207849E+03  0.00000000000E+00 0.  1.
        -24    2    1    2    0    0  0.42827623115E+02  0.99774347558E+02 -0.51239695925E+01  0.13566812363E+03  0.81181641849E+02 0.  0.
         25    2    1    2    0    0 -0.20402750719E+03  0.89939476738E+02  0.27199008571E+03  0.37328547605E+03  0.12508839569E+03 0.  0.
         24    2    1    2    0    0  0.16119988408E+03 -0.18971382430E+03  0.15154298897E+04  0.15387665631E+04  0.96426383330E+02 0.  0.
        -11    1    5    5    0    0  0.57143797003E+01 -0.33603212544E+01  0.35295894234E+01  0.75102527114E+01  0.00000000000E+00 0.  1.
         12    1    5    5    0    0  0.15548550438E+03 -0.18635350304E+03  0.15119003003E+04  0.15312563104E+04  0.00000000000E+00 0. -1.
         11    1    3    3    0    0 -0.11247325325E+02  0.68921581282E+02  0.12546764639E+02  0.70951448162E+02  0.00000000000E+00 0. -1.
        -12    1    3    3    0    0  0.54074948440E+02  0.30852766276E+02 -0.17670734232E+02  0.64716675470E+02  0.00000000000E+00 0.  1.
          5    1    4    4  501    0 -0.10555377585E+03  0.13025898413E+02  0.20610692592E+03  0.23196726265E+03  0.41800000000E+01 0.  1.
         -5    1    4    4    0  501 -0.98473731341E+02  0.76913578325E+02  0.65883159783E+02  0.14131821340E+03  0.41800000000E+01 0.  1.
</event>
<event>
11    1  0.6625361E-009  0.1518605E+03  0.7561462E-02  0.1094993E+00
         22   -1    0    0    0    0  0.00000000000E+00  0.00000000000E+00  0.14165899567E+04  0.14165899567E+04  0.00000000000E+00 0.  1.
         22   -1    0    0    0    0 -0.00000000000E+00 -0.00000000000E+00 -0.18615622022E+04  0.18615622022E+04  0.00000000000E+00 0. -1.
         24    2    1    2    0    0 -0.58040484138E+02  0.63400025330E+02 -0.18437923232E+04  0.18475474835E+04  0.80456893085E+02 0.  0.
         25    2    1    2    0    0  0.12451719839E+03 -0.76358858490E+02  0.67979647320E+03  0.70647469269E+03  0.12509211998E+03 0.  0.
        -24    2    1    2    0    0 -0.66476714254E+02  0.12958833160E+02  0.71902360449E+03  0.72412998274E+03  0.52746594179E+02 0.  0.
        -11    1    3    3    0    0 -0.58881305448E+02  0.76669878193E+02 -0.12986804619E+04  0.13022734814E+04  0.00000000000E+00 0.  1.
         12    1    3    3    0    0  0.84082131002E+00 -0.13269852862E+02 -0.54511186134E+03  0.54527400209E+03  0.00000000000E+00 0. -1.
         11    1    5    5    0    0 -0.31389141766E+02 -0.34486889764E+01  0.12797070342E+03  0.13180922809E+03  0.00000000000E+00 0. -1.
        -12    1    5    5    0    0 -0.35087572488E+02  0.16407522136E+02  0.59105290107E+03  0.59232075465E+03  0.00000000000E+00 0.  1.
          5    1    4    4  501    0  0.93440002033E+01 -0.46011496105E+02  0.65342379861E+02  0.80569641426E+02  0.41800000000E+01 0.  1.
         -5    1    4    4    0  501  0.11517319819E+03 -0.30347362385E+02  0.61445409333E+03  0.62590505127E+03  0.41800000000E+01 0.  1.
</event>
<event>
11    1  0.6625361E-009  0.2354339E+03  0.7561462E-02  0.1031958E+00
         22   -1    0    0    0    0  0.00000000000E+00  0.00000000000E+00  0.30610663331E+03  0.30610663331E+03  0.00000000000E+00 0.  1.
         22   -1    0    0    0    0 -0.00000000000E+00 -0.00000000000E+00 -0.68426788535E+03  0.68426788535E+03  0.00000000000E+00 0.  1.
        -24    2    1    2    0    0 -0.15151059465E+02  0.18161251593E+02 -0.42917559669E+03  0.44025950764E+03  0.95275157339E+02 0.  0.
         25    2    1    2    0    0  0.34930685140E+02 -0.21244750529E+03 -0.11798498714E+03  0.27553707171E+03  0.12508447317E+03 0.  0.
         24    2    1    2    0    0 -0.19779625675E+02  0.19428625370E+03  0.16899933180E+03  0.27457793932E+03  0.93241024465E+02 0.  0.
        -11    1    5    5    0    0 -0.39330242207E+02  0.10183677997E+03  0.43578357898E+02  0.11754433624E+03  0.00000000000E+00 0.  1.
         12    1    5    5    0    0  0.19550616532E+02  0.92449473732E+02  0.12542097390E+03  0.15703360307E+03  0.00000000000E+00 0. -1.
         11    1    3    3    0    0  0.23451483319E+02 -0.56925824664E+01 -0.29947523311E+02  0.38460781551E+02  0.00000000000E+00 0. -1.
        -12    1    3    3    0    0 -0.38602542785E+02  0.23853834059E+02 -0.39922807338E+03  0.40179872609E+03  0.00000000000E+00 0.  1.
          5    1    4    4  501    0  0.72638943828E+02 -0.67796350549E+02 -0.46269057826E+02  0.10968618610E+03  0.41800000000E+01 0. -1.
         -5    1    4    4    0  501 -0.37708258688E+02 -0.14465115474E+03 -0.71715929318E+02  0.16585088562E+03  0.41800000000E+01 0. -1.
</event>
<event>
11    1  0.6625361E-009  0.1771089E+03  0.7561462E-02  0.1072006E+00
         22   -1    0    0    0    0  0.00000000000E+00  0.00000000000E+00  0.19159149888E+04  0.19159149888E+04  0.00000000000E+00 0. -1.
         22   -1    0    0    0    0 -0.00000000000E+00 -0.00000000000E+00 -0.69055481896E+02  0.69055481896E+02  0.00000000000E+00 0.  1.
        -24    2    1    2    0    0  0.14372700487E+02  0.33313622221E+02  0.55506899733E+01  0.88884746350E+02  0.80952554189E+02 0.  0.
         25    2    1    2    0    0 -0.13719364250E+03 -0.16395642812E+02  0.34297960631E+03  0.39035016127E+03  0.12508926980E+03 0.  0.
         24    2    1    2    0    0  0.12282094202E+03 -0.16917979409E+02  0.14983292106E+04  0.15057355631E+04  0.82933471312E+02 0.  0.
        -13    1    5    5    0    0  0.26397547903E+02 -0.18060030042E+02  0.12507244429E+03  0.12909729486E+03  0.00000000000E+00 0.  1.
         14    1    5    5    0    0  0.96423394114E+02  0.11420506336E+01  0.13732567663E+04  0.13766382682E+04  0.00000000000E+00 0. -1.
         13    1    3    3    0    0  0.24083626812E+02  0.33636148040E+02  0.37287737904E+02  0.55693688452E+02  0.00000000000E+00 0. -1.
        -14    1    3    3    0    0 -0.97109263246E+01 -0.32252581931E+00 -0.31737047931E+02  0.33191057898E+02  0.00000000000E+00 0.  1.
          5    1    4    4  501    0  0.12622519040E+02  0.68851625476E+01 -0.38544675552E+00  0.14978465189E+02  0.41800000000E+01 0.  1.
         -5    1    4    4    0  501 -0.14981616154E+03 -0.23280805359E+02  0.34336505306E+03  0.37537169608E+03  0.41800000000E+01 0.  1.
</event>
<event>
11    1  0.1377085E-008  0.1616112E+03  0.7561462E-02  0.1085572E+00
         22   -1    0    0    0    0  0.00000000000E+00  0.00000000000E+00  0.15480905747E+04  0.15480905747E+04  0.00000000000E+00 0. -1.
         22   -1    0    0    0    0 -0.00000000000E+00 -0.00000000000E+00 -0.87969775352E+03  0.87969775352E+03  0.00000000000E+00 0.  1.
         24    2    1    2    0    0  0.83447258912E+02  0.30694710711E+02 -0.65010611097E+03  0.66120043919E+03  0.81501257561E+02 0.  0.
         25    2    1    2    0    0  0.19890770310E+02 -0.32385706437E+02 -0.20197429886E+03  0.24059245862E+03  0.12508651814E+03 0.  0.
        -24    2    1    2    0    0 -0.10333802922E+03  0.16909957264E+01  0.15204732310E+04  0.15259954304E+04  0.78368358608E+02 0.  0.
        -11    1    3    3    0    0  0.92144150883E+02  0.45790596701E+02 -0.53842006027E+03  0.54816373885E+03  0.00000000000E+00 0.  1.
         12    1    3    3    0    0 -0.86968919713E+01 -0.15095885990E+02 -0.11168605070E+03  0.11303670034E+03  0.00000000000E+00 0. -1.
         11    1    5    5    0    0 -0.18306804037E+01  0.85060721874E+01  0.57474699485E+03  0.57481285019E+03  0.00000000000E+00 0. -1.
        -12    1    5    5    0    0 -0.10150734882E+03 -0.68150764610E+01  0.94572623616E+03  0.95118258021E+03  0.00000000000E+00 0.  1.
          5    1    4    4  501    0 -0.24722503937E+02  0.38534939505E+02 -0.58642552336E+02  0.74515536018E+02  0.41800000000E+01 0. -1.
         -5    1    4    4    0  501  0.44613274247E+02 -0.70920645942E+02 -0.14333174653E+03  0.16607692261E+03  0.41800000000E+01 0. -1.
</event>
<event>
11    1  0.6625361E-009  0.1305386E+03  0.7561462E-02  0.1118609E+00
         22   -1    0    0    0    0  0.00000000000E+00  0.00000000000E+00  0.85458913981E+03  0.85458913981E+03  0.00000000000E+00 0. -1.
         22   -1    0    0    0    0 -0.00000000000E+00 -0.00000000000E+00 -0.70864935913E+03  0.70864935913E+03  0.00000000000E+00 0.  1.
         24    2    1    2    0    0 -0.36411968846E+02  0.14130544723E+01 -0.64341140170E+03  0.65043448695E+03  0.88084969047E+02 0.  0.
         25    2    1    2    0    0  0.57083518583E+02 -0.37758153000E+02  0.27460504561E+02  0.14520762795E+03  0.12508784790E+03 0.  0.
        -24    2    1    2    0    0 -0.20671549737E+02  0.36345098528E+02  0.76189067783E+03  0.76759638404E+03  0.83537564491E+02 0.  0.
        -11    1    3    3    0    0 -0.51538404031E+02 -0.12918960766E+02 -0.59928034505E+03  0.60163114830E+03  0.00000000000E+00 0.  1.
         12    1    3    3    0    0  0.15126435185E+02  0.14332015239E+02 -0.44131056648E+02  0.48803338647E+02  0.00000000000E+00 0. -1.
         13    1    5    5    0    0 -0.19405983593E+02  0.34076704119E+01  0.66424978595E+03  0.66454193438E+03  0.00000000000E+00 0. -1.
        -14    1    5    5    0    0 -0.12655661436E+01  0.32937428116E+02  0.97640891878E+02  0.10305444966E+03  0.00000000000E+00 0.  1.
          5    1    4    4  501    0  0.85946366665E+02 -0.60562516959E+02  0.15866956234E+02  0.10641348177E+03  0.41800000000E+01 0. -1.
         -5    1    4    4    0  501 -0.28862848082E+02  0.22804363958E+02  0.11593548327E+02  0.38794146179E+02  0.41800000000E+01 0. -1.
</event>
<event>
11    1  0.6625361E-009  0.1731481E+03  0.7561462E-02  0.1075324E+00
         22   -1    0    0    0    0  0.00000000000E+00  0.00000000000E+00  0.52195923475E+03  0.52195923475E+03  0.00000000000E+00 0.  1.
         22   -1    0    0    0    0 -0.00000000000E+00 -0.00000000000E+00 -0.14555597477E+04  0.14555597477E+04  0.00000000000E+00 0.  1.
         24    2    1    2    0    0 -0.56292320196E+02 -0.10374609287E+03 -0.13077706690E+04  0.13154489386E+04  0.78801715983E+02 0.  0.
         25    2    1    2    0    0 -0.13794261888E+02  0.19131664152E+03 -0.33148434989E+02  0.23138399474E+03  0.12508954909E+03 0.  0.
        -24    2    1    2    0    0  0.70086582084E+02 -0.87570548650E+02  0.40731859103E+03  0.43068604905E+03  0.83673820687E+02 0.  0.
        -13    1    3    3    0    0 -0.62305506522E+02 -0.11049945091E+03 -0.10679282224E+04  0.10754360944E+04  0.00000000000E+00 0.  1.
         14    1    3    3    0    0  0.60131863262E+01  0.67533580339E+01 -0.23984244651E+03  0.24001284425E+03  0.00000000000E+00 0. -1.
         11    1    5    5    0    0  0.17521353835E+01 -0.15273531975E+02  0.48732427517E+01  0.16127592886E+02  0.00000000000E+00 0. -1.
        -12    1    5    5    0    0  0.68334446701E+02 -0.72297016675E+02  0.40244534828E+03  0.41455845617E+03  0.00000000000E+00 0.  1.
          5    1    4    4  501    0 -0.22588548675E+02  0.18012584705E+03  0.13838271181E+02  0.18211132160E+03  0.41800000000E+01 0.  1.
         -5    1    4    4    0  501  0.87942867866E+01  0.11190794477E+02 -0.46986706170E+02  0.49272673135E+02  0.41800000000E+01 0.  1.
</event>
<event>
11    1  0.9634539E-009  0.2009442E+03  0.7561462E-02  0.1053858E+00
         22   -1    0    0    0    0  0.00000000000E+00  0.00000000000E+00  0.13519301850E+04  0.13519301850E+04  0.00000000000E+00 0. -1.
         22   -1    0    0    0    0 -0.00000000000E+00 -0.00000000000E+00 -0.71099004324E+03  0.71099004324E+03  0.00000000000E+00 0.  1.
         24    2    1    2    0    0 -0.18188022826E+02  0.85985311424E+01 -0.53103530613E+03  0.53685173330E+03  0.76200710437E+02 0.  0.
         25    2    1    2    0    0 -0.45595880967E+02 -0.15232392116E+03 -0.11115917090E+03  0.23083646023E+03  0.12509016259E+03 0.  0.
        -24    2    1    2    0    0  0.63783903793E+02  0.14372539002E+03  0.12831346188E+04  0.12952320347E+04  0.80412683620E+02 0.  0.
        -11    1    3    3    0    0 -0.48004822866E+02  0.29770023354E+01 -0.35045107007E+03  0.35373617015E+03  0.00000000000E+00 0.  1.
         12    1    3    3    0    0  0.29816800040E+02  0.56215288071E+01 -0.18058423607E+03  0.18311556315E+03  0.00000000000E+00 0. -1.
         11    1    5    5    0    0  0.33135916835E+02  0.12916546147E+03  0.81193549973E+03  0.82281283482E+03  0.00000000000E+00 0. -1.
        -12    1    5    5    0    0  0.30647986958E+02  0.14559928547E+02  0.47119911908E+03  0.47241919991E+03  0.00000000000E+00 0.  1.
          5    1    4    4  501    0 -0.41949820640E+02  0.39354270880E+01 -0.42748234008E+02  0.60167756721E+02  0.41800000000E+01 0.  1.
         -5    1    4    4    0  501 -0.36460603273E+01 -0.15625934825E+03 -0.68410936893E+02  0.17066870351E+03  0.41800000000E+01 0.  1.
</event>
<event>
11    1  0.6625361E-009  0.1446989E+03  0.7561462E-02  0.1102422E+00
         22   -1    0    0    0    0  0.00000000000E+00  0.00000000000E+00  0.84069086456E+03  0.84069086456E+03  0.00000000000E+00 0.  1.
         22   -1    0    0    0    0 -0.00000000000E+00 -0.00000000000E+00 -0.30189429598E+03  0.30189429598E+03  0.00000000000E+00 0.  1.
         24    2    1    2    0    0  0.31426646864E+01 -0.34470293757E+02 -0.23175427790E+03  0.24741353826E+03  0.79406146462E+02 0.  0.
         25    2    1    2    0    0 -0.31745306246E+02  0.98927377044E+02  0.55661425641E+02  0.17187224603E+03  0.12508990468E+03 0.  0.
        -24    2    1    2    0    0  0.28602641560E+02 -0.64457083287E+02  0.71488942084E+03  0.72329937626E+03  0.84393583756E+02 0.  0.
        -13    1    3    3    0    0  0.38048725726E+02 -0.30207581204E+02 -0.16445413343E+03  0.17147992738E+03  0.00000000000E+00 0.  1.
         14    1    3    3    0    0 -0.34906061040E+02 -0.42627125531E+01 -0.67300144468E+02  0.75933610878E+02  0.00000000000E+00 0. -1.
         11    1    5    5    0    0 -0.12273084273E+02  0.91431503660E+01  0.34771863504E+02  0.37990897433E+02  0.00000000000E+00 0. -1.
        -12    1    5    5    0    0  0.40875725833E+02 -0.73600233653E+02  0.68011755733E+03  0.68530847883E+03  0.00000000000E+00 0.  1.
          5    1    4    4  501    0 -0.45165121531E+02  0.10536865656E+03  0.63867842135E+00  0.11471844794E+03  0.41800000000E+01 0.  1.
         -5    1    4    4    0  501  0.13419815284E+02 -0.64412795169E+01  0.55022747220E+02  0.57153798086E+02  0.41800000000E+01 0.  1.
</event>
<event>
11    1  0.6625361E-009  0.1571800E+03  0.7561462E-02  0.1089760E+00
         22   -1    0    0    0    0  0.00000000000E+00  0.00000000000E+00  0.12181893708E+03  0.12181893708E+03  0.00000000000E+00 0. -1.
         22   -1    0    0    0    0 -0.00000000000E+00 -0.00000000000E+00 -0.75166277951E+03  0.75166277951E+03  0.00000000000E+00 0.  1.
        -24    2    1    2    0    0 -0.67330340941E+02 -0.76386597609E+02 -0.51240434499E+03  0.52864098530E+03  0.80838057040E+02 0.  0.
         25    2    1    2    0    0  0.67589717896E+02  0.37965705129E+02 -0.18324136746E+03  0.23501747538E+03  0.12508417268E+03 0.  0.
         24    2    1    2    0    0 -0.25937695558E+00  0.38420892479E+02  0.65801870024E+02  0.10982325590E+03  0.79088742453E+02 0.  0.
        -11    1    5    5    0    0  0.10762168966E+02  0.32735962380E+02 -0.76776462725E+01  0.35304585624E+02  0.00000000000E+00 0.  1.
         12    1    5    5    0    0 -0.11021545922E+02  0.56849300993E+01  0.73479516297E+02  0.74518670278E+02  0.00000000000E+00 0. -1.
         11    1    3    3    0    0  0.14331505433E+02  0.18631015876E+01 -0.32152795456E+02  0.35251460269E+02  0.00000000000E+00 0. -1.
        -12    1    3    3    0    0 -0.81661846373E+02 -0.78249699196E+02 -0.48025154954E+03  0.49338952503E+03  0.00000000000E+00 0.  1.
          5    1    4    4  501    0  0.10040458685E+03  0.41675908470E+02 -0.16328076412E+03  0.19620408441E+03  0.41800000000E+01 0.  1.
         -5    1    4    4    0  501 -0.32814868950E+02 -0.37102033409E+01 -0.19960603339E+02  0.38813390972E+02  0.41800000000E+01 0.  1.
</event>
<event>
11    1  0.6625361E-009  0.1422299E+03  0.7561462E-02  0.1105094E+00
         22   -1    0    0    0    0  0.00000000000E+00  0.00000000000E+00  0.97644361769E+02  0.97644361769E+02  0.00000000000E+00 0.  1.
         22   -1    0    0    0    0 -0.00000000000E+00 -0.00000000000E+00 -0.61439036086E+03  0.61439036086E+03  0.00000000000E+00 0.  1.
        -24    2    1    2    0    0  0.68696536126E+02 -0.68620233378E+01 -0.38576973932E+03  0.40013843794E+03  0.80784752942E+02 0.  0.
         25    2    1    2    0    0 -0.54270471664E+02  0.51916471226E+02 -0.15804513388E+03  0.21509462685E+03  0.12508728984E+03 0.  0.
         24    2    1    2    0    0 -0.14426064462E+02 -0.45054447888E+02  0.27068874101E+02  0.96801657836E+02  0.79998890019E+02 0.  0.
        -13    1    5    5    0    0  0.12726651387E+02 -0.58420148273E+02  0.63536001128E+01  0.60126945824E+02  0.00000000000E+00 0.  1.
         14    1    5    5    0    0 -0.27152715849E+02  0.13365700384E+02  0.20715273988E+02  0.36674712012E+02  0.00000000000E+00 0. -1.
         11    1    3    3    0    0  0.68605298429E+02  0.25672484572E+02 -0.24891042137E+03  0.25946514468E+03  0.00000000000E+00 0. -1.
        -12    1    3    3    0    0  0.91237697044E-01 -0.32534507910E+02 -0.13685931795E+03  0.14067329326E+03  0.00000000000E+00 0.  1.
          5    1    4    4  501    0  0.22452328577E+01 -0.26398752321E+01 -0.13217529021E+03  0.13228677090E+03  0.41800000000E+01 0. -1.
         -5    1    4    4    0  501 -0.56515704522E+02  0.54556346458E+02 -0.25869843667E+02  0.82807855955E+02  0.41800000000E+01 0. -1.
</event>
<event>
11    1  0.6625361E-009  0.1880783E+03  0.7561462E-02  0.1063290E+00
         22   -1    0    0    0    0  0.00000000000E+00  0.00000000000E+00  0.16224642309E+04  0.16224642309E+04  0.00000000000E+00 0.  1.
         22   -1    0    0    0    0 -0.00000000000E+00 -0.00000000000E+00 -0.20657599365E+03  0.20657599365E+03  0.00000000000E+00 0.  1.
         24    2    1    2    0    0 -0.52314130335E+01  0.14475991498E+03 -0.11190218029E+03  0.19949720090E+03  0.79336212062E+02 0.  0.
         25    2    1    2    0    0  0.18581842931E+01 -0.12467342345E+03  0.10731651924E+03  0.20666605926E+03  0.12508840629E+03 0.  0.
        -24    2    1    2    0    0  0.33732287404E+01 -0.20086491531E+02  0.14204738983E+04  0.14228769644E+04  0.80111885747E+02 0.  0.
        -11    1    3    3    0    0 -0.86654067987E+01  0.12576983049E+03 -0.51664431255E+02  0.13624372644E+03  0.00000000000E+00 0.  1.
         12    1    3    3    0    0  0.34339937652E+01  0.18990084487E+02 -0.60237749037E+02  0.63253474458E+02  0.00000000000E+00 0. -1.
         11    1    5    5    0    0 -0.14990389753E+02  0.84924213272E+01  0.74177066422E+02  0.76151626299E+02  0.00000000000E+00 0. -1.
        -12    1    5    5    0    0  0.18363618493E+02 -0.28578912858E+02  0.13462968319E+04  0.13467253381E+04  0.00000000000E+00 0.  1.
          5    1    4    4  501    0  0.55205988896E+02 -0.84117733342E+02  0.31771528066E+02  0.10559543867E+03  0.41800000000E+01 0. -1.
         -5    1    4    4    0  501 -0.53347804603E+02 -0.40555690105E+02  0.75544991172E+02  0.10107062059E+03  0.41800000000E+01 0. -1.
</event>
<event>
11    1  0.6625361E-009  0.1435465E+03  0.7561462E-02  0.1103662E+00
         22   -1    0    0    0    0  0.00000000000E+00  0.00000000000E+00  0.34231675257E+03  0.34231675257E+03  0.00000000000E+00 0.  1.
         22   -1    0    0    0    0 -0.00000000000E+00 -0.00000000000E+00 -0.15461784531E+04  0.15461784531E+04  0.00000000000E+00 0.  1.
        -24    2    1    2    0    0  0.14377657961E+02 -0.12093688642E+02 -0.10902575081E+04  0.10931048579E+04  0.76575596793E+02 0.  0.
         25    2    1    2    0    0 -0.80281475349E+02 -0.12159475828E+02 -0.43289561078E+03  0.45786378560E+03  0.12509063992E+03 0.  0.
         24    2    1    2    0    0  0.65903817388E+02  0.24253164469E+02  0.31929141835E+03  0.33752656218E+03  0.83938317911E+02 0.  0.
        -11    1    5    5    0    0  0.53315155693E+02 -0.16438128818E+02  0.25032645553E+03  0.25646842348E+03  0.00000000000E+00 0.  1.
         12    1    5    5    0    0  0.12588661695E+02  0.40691293287E+02  0.68964962817E+02  0.81058138697E+02  0.00000000000E+00 0. -1.
         11    1    3    3    0    0  0.23865656783E+01  0.32108821824E+02 -0.37329638891E+03  0.37468235361E+03  0.00000000000E+00 0. -1.
        -12    1    3    3    0    0  0.11991092283E+02 -0.44202510466E+02 -0.71696111919E+03  0.71842250428E+03  0.00000000000E+00 0.  1.
          5    1    4    4  501    0 -0.65363682150E+02  0.45223052515E+02 -0.16165108273E+03  0.18018346309E+03  0.41800000000E+01 0.  1.
         -5    1    4    4    0  501 -0.14917793200E+02 -0.57382528343E+02 -0.27124452806E+03  0.27768032252E+03  0.41800000000E+01 0.  1.
</event>
<event>
11    1  0.6625361E-009  0.1288410E+03  0.7561462E-02  0.1120701E+00
         22   -1    0    0    0    0  0.00000000000E+00  0.00000000000E+00  0.39592617005E+03  0.39592617005E+03  0.00000000000E+00 0. -1.
         22   -1    0    0    0    0 -0.00000000000E+00 -0.00000000000E+00 -0.53661969870E+03  0.53661969870E+03  0.00000000000E+00 0.  1.
         24    2    1    2    0    0  0.27920632845E+02  0.15484335193E+02 -0.49405954573E+03  0.50193113886E+03  0.82587572046E+02 0.  0.
         25    2    1    2    0    0  0.11410909256E+02 -0.14491742989E+02  0.93058789544E+02  0.15699474754E+03  0.12508874042E+03 0.  0.
        -24    2    1    2    0    0 -0.39331542101E+02 -0.99259220318E+00  0.26030722754E+03  0.27361998234E+03  0.74565988124E+02 0.  0.
        -11    1    3    3    0    0  0.22514446414E+02  0.28769186738E+01 -0.48491268943E+03  0.48544360469E+03  0.00000000000E+00 0.  1.
         12    1    3    3    0    0  0.54061864309E+01  0.12607416519E+02 -0.91468562962E+01  0.16487534173E+02  0.00000000000E+00 0. -1.
         11    1    5    5    0    0 -0.55253031614E+02 -0.54157261850E+01  0.11858331795E+03  0.13093598011E+03  0.00000000000E+00 0. -1.
        -12    1    5    5    0    0  0.15921489513E+02  0.44231339818E+01  0.14172390959E+03  0.14268400223E+03  0.00000000000E+00 0.  1.
          5    1    4    4  501    0 -0.23539201178E+01  0.35930352568E+02  0.97843838856E+02  0.10434280223E+03  0.41800000000E+01 0. -1.
         -5    1    4    4    0  501  0.13764829374E+02 -0.50422095557E+02 -0.47850493126E+01  0.52651945311E+02  0.41800000000E+01 0. -1.
</event>
<event>
11    1  0.6625361E-009  0.1616696E+03  0.7561462E-02  0.1085517E+00
         22   -1    0    0    0    0  0.00000000000E+00  0.00000000000E+00  0.14272383681E+03  0.14272383681E+03  0.00000000000E+00 0. -1.
         22   -1    0    0    0    0 -0.00000000000E+00 -0.00000000000E+00 -0.15677775139E+04  0.15677775139E+04  0.00000000000E+00 0. -1.
        -24    2    1    2    0    0 -0.97327848521E+02  0.27707725227E+02 -0.13959857672E+04  0.14019195798E+04  0.79761005163E+02 0.  0.
         25    2    1    2    0    0  0.11173454726E+03 -0.99871412156E+02 -0.38678204944E+02  0.19900211537E+03  0.12508769070E+03 0.  0.
         24    2    1    2    0    0 -0.14406698741E+02  0.72163686929E+02  0.96102950396E+01  0.10957965553E+03  0.80623771029E+02 0.  0.
        -11    1    5    5    0    0 -0.46121117260E+02  0.27154574083E+02 -0.88256741833E+00  0.53528565049E+02  0.00000000000E+00 0.  1.
         12    1    5    5    0    0  0.31714418519E+02  0.45009112845E+02  0.10492862458E+02  0.56051090478E+02  0.00000000000E+00 0. -1.
         11    1    3    3    0    0 -0.68203554849E+02  0.91826966647E+01 -0.12506203969E+04  0.12525124446E+04  0.00000000000E+00 0. -1.
        -12    1    3    3    0    0 -0.29124293671E+02  0.18525028563E+02 -0.14536537026E+03  0.14940713516E+03  0.00000000000E+00 0.  1.
          5    1    4    4  501    0 -0.12261158786E+02 -0.55162993210E+02 -0.35935181946E+02  0.67097701422E+02  0.41800000000E+01 0.  1.
         -5    1    4    4    0  501  0.12399570605E+03 -0.44708418947E+02 -0.27430229979E+01  0.13190441394E+03  0.41800000000E+01 0.  1.
</event>
<event>
11    1  0.6625361E-009  0.2548741E+03  0.7561462E-02  0.1021334E+00
         22   -1    0    0    0    0  0.00000000000E+00  0.00000000000E+00  0.10514914932E+04  0.10514914932E+04  0.00000000000E+00 0.  1.
         22   -1    0    0    0    0 -0.00000000000E+00 -0.00000000000E+00 -0.44206903925E+03  0.44206903925E+03  0.00000000000E+00 0. -1.
        -24    2    1    2    0    0  0.81958572985E+02  0.46956516611E+02 -0.25088826259E+03  0.27932846904E+03  0.78468791076E+02 0.  0.
         25    2    1    2    0    0  0.32835253585E+02 -0.23709966031E+03 -0.49208646294E+02  0.27452068578E+03  0.12508282557E+03 0.  0.
         24    2    1    2    0    0 -0.11479382657E+03  0.19014314370E+03  0.90951936286E+03  0.93971137765E+03  0.80622355136E+02 0.  0.
        -11    1    5    5    0    0 -0.10145481044E+03  0.19087143765E+03  0.89119070753E+03  0.91703100355E+03  0.00000000000E+00 0.  1.
         12    1    5    5    0    0 -0.13339016127E+02 -0.72829394317E+00  0.18328655327E+02  0.22680374102E+02  0.00000000000E+00 0. -1.
         11    1    3    3    0    0  0.70555497349E+02  0.68512114215E+02 -0.20462037117E+03  0.22702749679E+03  0.00000000000E+00 0. -1.
        -12    1    3    3    0    0  0.11403075636E+02 -0.21555597603E+02 -0.46267891421E+02  0.52300972253E+02  0.00000000000E+00 0.  1.
          5    1    4    4  501    0  0.42702661220E+02 -0.22469131216E+03 -0.65778922929E+01  0.22884589597E+03  0.41800000000E+01 0. -1.
         -5    1    4    4    0  501 -0.98674076348E+01 -0.12408348152E+02 -0.42630754001E+02  0.45674789808E+02  0.41800000000E+01 0. -1.
</event>
<event>
11    1  0.6625361E-009  0.1826015E+03  0.7561462E-02  0.1067558E+00
         22   -1    0    0    0    0  0.00000000000E+00  0.00000000000E+00  0.10953722868E+04  0.10953722868E+04  0.00000000000E+00 0.  1.
         22   -1    0    0    0    0 -0.00000000000E+00 -0.00000000000E+00 -0.12667620520E+04  0.12667620520E+04  0.00000000000E+00 0.  1.
         24    2    1    2    0    0  0.10358631934E+03 -0.84400035496E+02 -0.12315985266E+04  0.12414331219E+04  0.80422472098E+02 0.  0.
         25    2    1    2    0    0 -0.86605995421E+02  0.58933304965E+02  0.20886974245E+03  0.26504463032E+03  0.12509338062E+03 0.  0.
        -24    2    1    2    0    0 -0.16980323920E+02  0.25466730530E+02  0.85133901888E+03  0.85565658655E+03  0.80207127348E+02 0.  0.
        -11    1    3    3    0    0  0.10768777827E+03 -0.94202368478E+02 -0.10757732895E+04  0.10852460156E+04  0.00000000000E+00 0.  1.
         12    1    3    3    0    0 -0.41014589314E+01  0.98023329826E+01 -0.15582523702E+03  0.15618710635E+03  0.00000000000E+00 0. -1.
         13    1    5    5    0    0 -0.27482137046E+02  0.12987157885E+02  0.10956373295E+03  0.11370200396E+03  0.00000000000E+00 0. -1.
        -14    1    5    5    0    0  0.10501813126E+02  0.12479572645E+02  0.74177528593E+03  0.74195458259E+03  0.00000000000E+00 0.  1.
          5    1    4    4  501    0 -0.14708059606E+02  0.81115832682E+02  0.75540169298E+02  0.11189233623E+03  0.41800000000E+01 0. -1.
         -5    1    4    4    0  501 -0.71897935815E+02 -0.22182527717E+02  0.13332957315E+03  0.15315229409E+03  0.41800000000E+01 0. -1.
</event>
<event>
11    1  0.6625361E-009  0.1545864E+03  0.7561462E-02  0.1092282E+00
         22   -1    0    0    0    0  0.00000000000E+00  0.00000000000E+00  0.10981089959E+04  0.10981089959E+04  0.00000000000E+00 0.  1.
         22   -1    0    0    0    0 -0.00000000000E+00 -0.00000000000E+00 -0.85289501720E+03  0.85289501720E+03  0.00000000000E+00 0. -1.
         24    2    1    2    0    0  0.74291206866E+02  0.56786264108E+02 -0.79250063846E+03  0.80201850528E+03  0.80203227217E+02 0.  0.
         25    2    1    2    0    0 -0.31171877622E+02 -0.31971995159E+02  0.29266383673E+02  0.13600913306E+03  0.12509224050E+03 0.  0.
        -24    2    1    2    0    0 -0.43119329244E+02 -0.24814268949E+02  0.10084482335E+04  0.10129763748E+04  0.81720693172E+02 0.  0.
        -11    1    3    3    0    0 -0.97184555546E+01 -0.73279009297E+01 -0.18456001241E+03  0.18496092747E+03  0.00000000000E+00 0.  1.
         12    1    3    3    0    0  0.84009662420E+02  0.64114165038E+02 -0.60794062604E+03  0.61705757781E+03  0.00000000000E+00 0. -1.
         11    1    5    5    0    0 -0.40787834189E+01 -0.10296430840E+02  0.14949345039E+02  0.18604727338E+02  0.00000000000E+00 0. -1.
        -12    1    5    5    0    0 -0.39040545825E+02 -0.14517838109E+02  0.99349888848E+03  0.99437164745E+03  0.00000000000E+00 0.  1.
          5    1    4    4  501    0 -0.27657273773E+02 -0.22837784296E+02  0.78092211217E+02  0.86036939955E+02  0.41800000000E+01 0.  1.
         -5    1    4    4    0  501 -0.35146038486E+01 -0.91342108631E+01 -0.48825827543E+02  0.49972193104E+02  0.41800000000E+01 0.  1.
</event>
<event>
11    1  0.6625361E-009  0.1384977E+03  0.7561462E-02  0.1109248E+00
         22   -1    0    0    0    0  0.00000000000E+00  0.00000000000E+00  0.48906254727E+03  0.48906254727E+03  0.00000000000E+00 0. -1.
         22   -1    0    0    0    0 -0.00000000000E+00 -0.00000000000E+00 -0.23266545577E+03  0.23266545577E+03  0.00000000000E+00 0.  1.
        -24    2    1    2    0    0  0.40374181386E+02  0.19432211140E+01 -0.15120595582E+03  0.17858241047E+03  0.85991776478E+02 0.  0.
         25    2    1    2    0    0  0.14229627752E+02 -0.32547339272E+02  0.72797813996E+01  0.13023983985E+03  0.12509040357E+03 0.  0.
         24    2    1    2    0    0 -0.54603809137E+02  0.30604118158E+02  0.40032326593E+03  0.41290575273E+03  0.79462289001E+02 0.  0.
        -13    1    5    5    0    0 -0.61974065947E+02 -0.74259485969E+01  0.24764498878E+03  0.25538983933E+03  0.00000000000E+00 0.  1.
         14    1    5    5    0    0  0.73702568095E+01  0.38030066754E+02  0.15267827714E+03  0.15751591340E+03  0.00000000000E+00 0. -1.
         13    1    3    3    0    0  0.26695125859E+02 -0.37719068267E+02 -0.45481702822E+02  0.64837821888E+02  0.00000000000E+00 0. -1.
        -14    1    3    3    0    0  0.13679055527E+02  0.39662289381E+02 -0.10572425300E+03  0.11374458858E+03  0.00000000000E+00 0.  1.
          5    1    4    4  501    0 -0.41490774316E+02 -0.55214028393E+02 -0.20527878836E+01  0.69222536957E+02  0.41800000000E+01 0.  1.
         -5    1    4    4    0  501  0.55720402068E+02  0.22666689121E+02  0.93325692832E+01  0.61017302888E+02  0.41800000000E+01 0.  1.
</event>
<event>
11    1  0.6625361E-009  0.2029234E+03  0.7561462E-02  0.1052475E+00
         22   -1    0    0    0    0  0.00000000000E+00  0.00000000000E+00  0.57897120464E+03  0.57897120464E+03  0.00000000000E+00 0. -1.
         22   -1    0    0    0    0 -0.00000000000E+00 -0.00000000000E+00 -0.70320350633E+03  0.70320350633E+03  0.00000000000E+00 0. -1.
        -24    2    1    2    0    0  0.79932462125E+02 -0.35406636133E+02 -0.62223813338E+03  0.63352284364E+03  0.80796475110E+02 0.  0.
         25    2    1    2    0    0 -0.21554047382E+03  0.20481002262E+02  0.24457722670E+03  0.34977721283E+03  0.12509560937E+03 0.  0.
         24    2    1    2    0    0  0.13560801169E+03  0.14925633872E+02  0.25342860499E+03  0.29887465451E+03  0.80546222132E+02 0.  0.
        -13    1    5    5    0    0  0.98384320562E+02 -0.13217472616E+02  0.11059683049E+03  0.14861303788E+03  0.00000000000E+00 0.  1.
         14    1    5    5    0    0  0.37223691129E+02  0.28143106488E+02  0.14283177450E+03  0.15026161662E+03  0.00000000000E+00 0. -1.
         13    1    3    3    0    0  0.33597744511E+02 -0.57754984464E+02 -0.38698728069E+03  0.39271312950E+03  0.00000000000E+00 0. -1.
        -14    1    3    3    0    0  0.46334717614E+02  0.22348348330E+02 -0.23525085269E+03  0.24080971414E+03  0.00000000000E+00 0.  1.
          5    1    4    4  501    0 -0.12173988139E+03  0.16974879890E+01  0.21910187720E+03  0.25069221205E+03  0.41800000000E+01 0. -1.
         -5    1    4    4    0  501 -0.93800592422E+02  0.18783514273E+02  0.25475349504E+02  0.99085000780E+02  0.41800000000E+01 0. -1.
</event>
<event>
11    1  0.6625361E-009  0.1827384E+03  0.7561462E-02  0.1067449E+00
         22   -1    0    0    0    0  0.00000000000E+00  0.00000000000E+00  0.12924791728E+04  0.12924791728E+04  0.00000000000E+00 0.  1.
         22   -1    0    0    0    0 -0.00000000000E+00 -0.00000000000E+00 -0.81145010767E+03  0.81145010767E+03  0.00000000000E+00 0. -1.
         24    2    1    2    0    0  0.13342873321E+03 -0.11860279903E+02 -0.77684314202E+03  0.79247165128E+03  0.81130497884E+02 0.  0.
         25    2    1    2    0    0 -0.10729020898E+03 -0.60704364040E+02  0.30504298415E+03  0.35198823844E+03  0.12509312156E+03 0.  0.
        -24    2    1    2    0    0 -0.26138524226E+02  0.72564643942E+02  0.95282922299E+03  0.95946939075E+03  0.82153110737E+02 0.  0.
        -11    1    3    3    0    0  0.26635705142E+02 -0.22441624491E+02 -0.77818679491E+02  0.85257458183E+02  0.00000000000E+00 0.  1.
         12    1    3    3    0    0  0.10679302807E+03  0.10581344588E+02 -0.69902446253E+03  0.70721419309E+03  0.00000000000E+00 0. -1.
         11    1    5    5    0    0  0.25565432397E+02  0.50408308470E+01  0.16227201853E+03  0.16435087254E+03  0.00000000000E+00 0. -1.
        -12    1    5    5    0    0 -0.51703956624E+02  0.67523813095E+02  0.79055720447E+03  0.79511851821E+03  0.00000000000E+00 0.  1.
          5    1    4    4  501    0 -0.28848179227E+02 -0.54039818214E+02  0.35004818459E+02  0.70677642240E+02  0.41800000000E+01 0.  1.
         -5    1    4    4    0  501 -0.78442029758E+02 -0.66645458254E+01  0.27003816569E+03  0.28131059620E+03  0.41800000000E+01 0.  1.
</event>
<event>
11    1  0.6625361E-009  0.1298538E+03  0.7561462E-02  0.1119449E+00
         22   -1    0    0    0    0  0.00000000000E+00  0.00000000000E+00  0.35800862416E+03  0.35800862416E+03  0.00000000000E+00 0. -1.
         22   -1    0    0    0    0 -0.00000000000E+00 -0.00000000000E+00 -0.58800442134E+03  0.58800442134E+03  0.00000000000E+00 0.  1.
         24    2    1    2    0    0  0.30986397070E+00  0.28476449911E+02 -0.48170704177E+03  0.48907226216E+03  0.79617832870E+02 0.  0.
         25    2    1    2    0    0  0.33671251547E+02 -0.19158919892E+02 -0.52285237029E+02  0.14101199527E+03  0.12509923824E+03 0.  0.
        -24    2    1    2    0    0 -0.33981115517E+02 -0.93175300195E+01  0.30399648162E+03  0.31592878806E+03  0.78457668242E+02 0.  0.
        -13    1    3    3    0    0  0.27001858068E+02  0.44586442759E+02 -0.25896264597E+03  0.26415658846E+03  0.00000000000E+00 0.  1.
         14    1    3    3    0    0 -0.26691994098E+02 -0.16109992848E+02 -0.22274439580E+03  0.22491567371E+03  0.00000000000E+00 0. -1.
         13    1    5    5    0    0  0.65007310962E+01 -0.33211986057E+02  0.18336579812E+03  0.18646262747E+03  0.00000000000E+00 0. -1.
        -14    1    5    5    0    0 -0.40481846614E+02  0.23894456038E+02  0.12063068350E+03  0.12946616059E+03  0.00000000000E+00 0.  1.
          5    1    4    4  501    0  0.16634462412E+02  0.53179090217E+02 -0.15515308837E+02  0.57990673253E+02  0.41800000000E+01 0. -1.
         -5    1    4    4    0  501  0.17036789134E+02 -0.72338010109E+02 -0.36769928193E+02  0.83021322019E+02  0.41800000000E+01 0. -1.
</event>
<event>
11    1  0.6625361E-009  0.1946345E+03  0.7561462E-02  0.1058384E+00
         22   -1    0    0    0    0  0.00000000000E+00  0.00000000000E+00  0.14231423181E+04  0.14231423181E+04  0.00000000000E+00 0. -1.
         22   -1    0    0    0    0 -0.00000000000E+00 -0.00000000000E+00 -0.11872887901E+03  0.11872887901E+03  0.00000000000E+00 0. -1.
        -24    2    1    2    0    0  0.79929423736E+02 -0.12882082028E+03 -0.71812769190E+00  0.17206117967E+03  0.81369633934E+02 0.  0.
         25    2    1    2    0    0 -0.77370419502E+02  0.11758027288E+03  0.25694220046E+03  0.31856072120E+03  0.12510130428E+03 0.  0.
         24    2    1    2    0    0 -0.25590042337E+01  0.11240547396E+02  0.10481893663E+04  0.10512492963E+04  0.79317316887E+02 0.  0.
        -11    1    5    5    0    0  0.17870504638E+02 -0.23999084581E+01  0.57618369588E+02  0.60373760944E+02  0.00000000000E+00 0.  1.
         12    1    5    5    0    0 -0.20429508872E+02  0.13640455855E+02  0.99057099676E+03  0.99087553532E+03  0.00000000000E+00 0. -1.
         11    1    3    3    0    0  0.75364273509E+02 -0.11974686011E+03  0.25658283955E+02  0.14379649427E+03  0.00000000000E+00 0. -1.
        -12    1    3    3    0    0  0.45651502268E+01 -0.90739601707E+01 -0.26376411647E+02  0.28264685407E+02  0.00000000000E+00 0.  1.
          5    1    4    4  501    0 -0.16827805495E+02 -0.59438927718E+01 -0.80043880610E+01  0.20001188147E+02  0.41800000000E+01 0. -1.
         -5    1    4    4    0  501 -0.60542614008E+02  0.12352416566E+03  0.26494658852E+03  0.29855953306E+03  0.41800000000E+01 0. -1.
</event>
<event>
11    1  0.6625361E-009  0.1372805E+03  0.7561462E-02  0.1110634E+00
         22   -1    0    0    0    0  0.00000000000E+00  0.00000000000E+00  0.63975894918E+02  0.63975894918E+02  0.00000000000E+00 0.  1.
         22   -1    0    0    0    0 -0.00000000000E+00 -0.00000000000E+00 -0.24952128832E+04  0.24952128832E+04  0.00000000000E+00 0. -1.
        -24    2    1    2    0    0  0.76183297793E+00 -0.70029300110E+00 -0.21928240807E+04  0.21942924791E+04  0.80255617952E+02 0.  0.
         25    2    1    2    0    0 -0.34284641593E+02  0.46018412198E+02 -0.22729852657E+03  0.26571639161E+03  0.12508976649E+03 0.  0.
         24    2    1    2    0    0  0.33522808615E+02 -0.45318119197E+02 -0.11114380990E+02  0.99179907368E+02  0.80843144025E+02 0.  0.
        -13    1    5    5    0    0  0.17728802764E+02 -0.21056640760E+02  0.35125028065E+02  0.44625779143E+02  0.00000000000E+00 0.  1.
         14    1    5    5    0    0  0.15794005851E+02 -0.24261478437E+02 -0.46239409054E+02  0.54554128226E+02  0.00000000000E+00 0. -1.
         13    1    3    3    0    0 -0.25530144637E+01 -0.38242004158E+02 -0.75251728446E+03  0.75349268886E+03  0.00000000000E+00 0. -1.
        -14    1    3    3    0    0  0.33148474416E+01  0.37541711157E+02 -0.14403067963E+04  0.14407997903E+04  0.00000000000E+00 0.  1.
          5    1    4    4  501    0 -0.20719781234E+00  0.52075054531E+02 -0.20695890484E+02  0.56192940111E+02  0.41800000000E+01 0. -1.
         -5    1    4    4    0  501 -0.34077443781E+02 -0.60566423329E+01 -0.20660263609E+03  0.20952345150E+03  0.41800000000E+01 0. -1.
</event>
<event>
11    1  0.6625361E-009  0.1475979E+03  0.7561462E-02  0.1099359E+00
         22   -1    0    0    0    0  0.00000000000E+00  0.00000000000E+00  0.24300697684E+04  0.24300697684E+04  0.00000000000E+00 0. -1.
         22   -1    0    0    0    0 -0.00000000000E+00 -0.00000000000E+00 -0.42763690209E+03  0.42763690209E+03  0.00000000000E+00 0. -1.
         24    2    1    2    0    0 -0.83864489311E+02  0.19358566002E+02 -0.35960214775E+03  0.37928646870E+03  0.84477890723E+02 0.  0.
         25    2    1    2    0    0  0.16388479143E+02 -0.24575964409E+02  0.15647253927E+02  0.12944890867E+03  0.12505847882E+03 0.  0.
        -24    2    1    2    0    0  0.67476010169E+02  0.52173984071E+01  0.23463877601E+04  0.23489712931E+04  0.86892933364E+02 0.  0.
        -11    1    3    3    0    0 -0.97962058675E+01  0.22044371647E+02 -0.18982008507E+02  0.30695872975E+02  0.00000000000E+00 0.  1.
         12    1    3    3    0    0 -0.74068283444E+02 -0.26858056455E+01 -0.34062013925E+03  0.34859059572E+03  0.00000000000E+00 0. -1.
         11    1    5    5    0    0  0.48849851744E+02 -0.92795724691E+01  0.22097895610E+04  0.22103489142E+04  0.00000000000E+00 0. -1.
        -12    1    5    5    0    0  0.18626158425E+02  0.14496970876E+02  0.13659819911E+03  0.13862237894E+03  0.00000000000E+00 0.  1.
          5    1    4    4  501    0  0.43243858835E+02 -0.33707800571E+02  0.56953408318E+02  0.79166977114E+02  0.41800000000E+01 0.  1.
         -5    1    4    4    0  501 -0.26855379693E+02  0.91318361625E+01 -0.41306154391E+02  0.50281931553E+02  0.41800000000E+01 0.  1.
</event>
<event>
11    1  0.6625361E-009  0.1608457E+03  0.7561462E-02  0.1086285E+00
         22   -1    0    0    0    0  0.00000000000E+00  0.00000000000E+00  0.34340314449E+03  0.34340314449E+03  0.00000000000E+00 0. -1.
         22   -1    0    0    0    0 -0.00000000000E+00 -0.00000000000E+00 -0.26573949462E+03  0.26573949462E+03  0.00000000000E+00 0. -1.
        -24    2    1    2    0    0 -0.11028709046E+02  0.27523839913E+02 -0.13870058830E+03  0.16303348343E+03  0.80391973095E+02 0.  0.
         25    2    1    2    0    0 -0.77893636751E+02 -0.74587999563E+02 -0.30669769046E+02  0.16798596620E+03  0.12509141370E+03 0.  0.
         24    2    1    2    0    0  0.88922345797E+02  0.47064159650E+02  0.24703400721E+03  0.27812318949E+03  0.78768579436E+02 0.  0.
        -11    1    5    5    0    0  0.17768337369E+02  0.13511552239E+02  0.40044857877E+01  0.22678442697E+02  0.00000000000E+00 0.  1.
         12    1    5    5    0    0  0.71154008428E+02  0.33552607412E+02  0.24302952142E+03  0.25544474679E+03  0.00000000000E+00 0. -1.
         11    1    3    3    0    0  0.34275161221E+02  0.15349176769E+02 -0.48263348374E+02  0.61153370311E+02  0.00000000000E+00 0. -1.
        -12    1    3    3    0    0 -0.45303870267E+02  0.12174663144E+02 -0.90437239921E+02  0.10188011312E+03  0.00000000000E+00 0.  1.
          5    1    4    4  501    0 -0.23799155453E+02 -0.47950763454E+02  0.45757402728E+02  0.70547061033E+02  0.41800000000E+01 0. -1.
         -5    1    4    4    0  501 -0.54094481297E+02 -0.26637236109E+02 -0.76427171773E+02  0.97438905164E+02  0.41800000000E+01 0. -1.
</event>
<event>
11    1  0.6625361E-009  0.1457080E+03  0.7561462E-02  0.1101347E+00
         22   -1    0    0    0    0  0.00000000000E+00  0.00000000000E+00  0.80562054816E+03  0.80562054816E+03  0.00000000000E+00 0. -1.
         22   -1    0    0    0    0 -0.00000000000E+00 -0.00000000000E+00 -0.57289346257E+03  0.57289346257E+03  0.00000000000E+00 0.  1.
         24    2    1    2    0    0 -0.11941672089E+02  0.20061804275E+02 -0.28272691495E+03  0.29495708880E+03  0.80747113084E+02 0.  0.
         25    2    1    2    0    0 -0.35683609319E+02 -0.77503198687E+02 -0.25992598784E+03  0.30081475749E+03  0.12509169991E+03 0.  0.
        -24    2    1    2    0    0  0.47625281408E+02  0.57441394412E+02  0.77537998838E+03  0.78274216444E+03  0.76834161689E+02 0.  0.
        -13    1    3    3    0    0  0.15987424762E+02 -0.12906461728E+02 -0.20500580341E+03  0.20603289527E+03  0.00000000000E+00 0.  1.
         14    1    3    3    0    0 -0.27929096850E+02  0.32968266003E+02 -0.77721111547E+02  0.88924193526E+02  0.00000000000E+00 0. -1.
         11    1    5    5    0    0  0.42215037295E+02  0.74738035704E+02  0.69853407810E+03  0.70378813689E+03  0.00000000000E+00 0. -1.
        -12    1    5    5    0    0  0.54102441130E+01 -0.17296641292E+02  0.76845910275E+02  0.78954027556E+02  0.00000000000E+00 0.  1.
          5    1    4    4  501    0  0.40204197432E+02 -0.10855175766E+02 -0.12764598205E+03  0.13433235450E+03  0.41800000000E+01 0.  1.
         -5    1    4    4    0  501 -0.75887806751E+02 -0.66648022921E+02 -0.13228000579E+03  0.16648240299E+03  0.41800000000E+01 0.  1.
</event>
<event>
11    1  0.6625361E-009  0.1365868E+03  0.7561462E-02  0.1111431E+00
         22   -1    0    0    0    0  0.00000000000E+00  0.00000000000E+00  0.56043894097E+03  0.56043894097E+03  0.00000000000E+00 0.  1.
         22   -1    0    0    0    0 -0.00000000000E+00 -0.00000000000E+00 -0.53033041677E+03  0.53033041677E+03  0.00000000000E+00 0. -1.
         24    2    1    2    0    0 -0.36820390285E+02  0.42100567500E+01 -0.34977063554E+03  0.36048374416E+03  0.78965603889E+02 0.  0.
         25    2    1    2    0    0  0.83324257280E+02 -0.31644156231E+02 -0.13625442880E+03  0.20532241063E+03  0.12509092079E+03 0.  0.
        -24    2    1    2    0    0 -0.46503866995E+02  0.27434099481E+02  0.51613358853E+03  0.52496320295E+03  0.79229058902E+02 0.  0.
        -11    1    3    3    0    0  0.18234749069E+02 -0.15463899432E+02 -0.55014073549E+02  0.59984885994E+02  0.00000000000E+00 0.  1.
         12    1    3    3    0    0 -0.55055139354E+02  0.19673956182E+02 -0.29475656199E+03  0.30049885817E+03  0.00000000000E+00 0. -1.
         13    1    5    5    0    0 -0.12203825833E+02 -0.27048447017E+02  0.21391215589E+03  0.21596055725E+03  0.00000000000E+00 0. -1.
        -14    1    5    5    0    0 -0.34300041162E+02  0.54482546498E+02  0.30222143265E+03  0.30900264570E+03  0.00000000000E+00 0.  1.
          5    1    4    4  501    0 -0.24359210780E+02  0.21153942207E+02 -0.19694139336E+02  0.38028830444E+02  0.41800000000E+01 0.  1.
         -5    1    4    4    0  501  0.10768346806E+03 -0.52798098438E+02 -0.11656028946E+03  0.16729358019E+03  0.41800000000E+01 0.  1.
</event>
<event>
11    1  0.6625361E-009  0.1487697E+03  0.7561462E-02  0.1098143E+00
         22   -1    0    0    0    0  0.00000000000E+00  0.00000000000E+00  0.45749551936E+03  0.45749551936E+03  0.00000000000E+00 0.  1.
         22   -1    0    0    0    0 -0.00000000000E+00 -0.00000000000E+00 -0.16338075021E+03  0.16338075021E+03  0.00000000000E+00 0. -1.
         24    2    1    2    0    0  0.45050062205E+02  0.22575081681E+02 -0.10177460899E+03  0.13882952766E+03  0.79852515917E+02 0.  0.
         25    2    1    2    0    0  0.26523939196E+01 -0.88709289029E+02  0.16612456433E+03  0.22609985164E+03  0.12508956345E+03 0.  0.
        -24    2    1    2    0    0 -0.47702456125E+02  0.66134207347E+02  0.22976481382E+03  0.25594689027E+03  0.77895335328E+02 0.  0.
        -11    1    3    3    0    0 -0.14043178206E+02 -0.17552528341E+02 -0.30831017937E+02  0.38155651906E+02  0.00000000000E+00 0.  1.
         12    1    3    3    0    0  0.59093240412E+02  0.40127610022E+02 -0.70943591054E+02  0.10067387576E+03  0.00000000000E+00 0. -1.
         11    1    5    5    0    0 -0.16775905265E+01  0.25293754283E+02  0.92117844364E+01  0.26971193674E+02  0.00000000000E+00 0. -1.
        -12    1    5    5    0    0 -0.46024865598E+02  0.40840453064E+02  0.22055302939E+03  0.22897569660E+03  0.00000000000E+00 0.  1.
          5    1    4    4  501    0 -0.36867244352E+02 -0.10172855512E+03  0.97355474298E+02  0.14561405636E+03  0.41800000000E+01 0. -1.
         -5    1    4    4    0  501  0.39519638272E+02  0.13019266092E+02  0.68769090029E+02  0.80485795281E+02  0.41800000000E+01 0. -1.
</event>
<event>
11    1  0.1038750E-008  0.1560995E+03  0.7561462E-02  0.1090804E+00
         22   -1    0    0    0    0  0.00000000000E+00  0.00000000000E+00  0.79914596086E+03  0.79914596086E+03  0.00000000000E+00 0.  1.
         22   -1    0    0    0    0 -0.00000000000E+00 -0.00000000000E+00 -0.26474018615E+03  0.26474018615E+03  0.00000000000E+00 0. -1.
        -24    2    1    2    0    0  0.43588529450E+01 -0.38700305131E+02 -0.16203606801E+03  0.18499512487E+03  0.80316845518E+02 0.  0.
         25    2    1    2    0    0 -0.89539664404E+02  0.74038119922E+02 -0.68094762450E+00  0.17072155536E+03  0.12508553503E+03 0.  0.
         24    2    1    2    0    0  0.85180811459E+02 -0.35337814791E+02  0.69712279035E+03  0.70816946677E+03  0.83781125818E+02 0.  0.
        -13    1    5    5    0    0  0.55659821908E+02  0.16754087088E+02  0.45756904284E+03  0.46124629449E+03  0.00000000000E+00 0.  1.
         14    1    5    5    0    0  0.29520989552E+02 -0.52091901879E+02  0.23955374750E+03  0.24692317228E+03  0.00000000000E+00 0. -1.
         13    1    3    3    0    0  0.29666330283E+02 -0.35580174620E+02 -0.14963218583E+03  0.15663917458E+03  0.00000000000E+00 0. -1.
        -14    1    3    3    0    0 -0.25307477338E+02 -0.31201305107E+01 -0.12403882184E+02  0.28355950290E+02  0.00000000000E+00 0.  1.
          5    1    4    4  501    0 -0.51957354013E+02  0.44600704549E+02  0.61557591617E+02  0.92171573536E+02  0.41800000000E+01 0. -1.
         -5    1    4    4    0  501 -0.37582310391E+02  0.29437415373E+02 -0.62238539241E+02  0.78549981827E+02  0.41800000000E+01 0. -1.
</event>
<event>
11    1  0.6625361E-009  0.1612103E+03  0.7561462E-02  0.1085944E+00
         22   -1    0    0    0    0  0.00000000000E+00  0.00000000000E+00  0.14386931819E+03  0.14386931819E+03  0.00000000000E+00 0. -1.
         22   -1    0    0    0    0 -0.00000000000E+00 -0.00000000000E+00 -0.12236111304E+04  0.12236111304E+04  0.00000000000E+00 0.  1.
         24    2    1    2    0    0 -0.86159387899E+02  0.65727186098E+02 -0.99766791002E+03  0.10068349758E+04  0.81436519154E+02 0.  0.
         25    2    1    2    0    0  0.86179746662E+02  0.27112972946E+02 -0.15497350071E+03  0.21868340668E+03  0.12507431551E+03 0.  0.
        -24    2    1    2    0    0 -0.20358763219E-01 -0.92840159044E+02  0.72899598491E+02  0.14196206615E+03  0.78864321591E+02 0.  0.
        -13    1    3    3    0    0 -0.79069731983E+02  0.81399221040E+02 -0.93456958872E+03  0.94143410384E+03  0.00000000000E+00 0.  1.
         14    1    3    3    0    0 -0.70896559159E+01 -0.15672034942E+02 -0.63098321302E+02  0.65400871946E+02  0.00000000000E+00 0. -1.
         11    1    5    5    0    0 -0.12860398116E+02 -0.60110332763E+02  0.84895497222E+02  0.10481358401E+03  0.00000000000E+00 0. -1.
        -12    1    5    5    0    0  0.12840039353E+02 -0.32729826281E+02 -0.11995898731E+02  0.37148482140E+02  0.00000000000E+00 0.  1.
          5    1    4    4  501    0  0.48778260472E+02  0.21313068719E+02 -0.16966521660E+03  0.17786883852E+03  0.41800000000E+01 0.  1.
         -5    1    4    4    0  501  0.37401486190E+02  0.57999042269E+01  0.14691715894E+02  0.40814568161E+02  0.41800000000E+01 0.  1.
</event>
<event>
11    1  0.6625361E-009  0.1809655E+03  0.7561462E-02  0.1068865E+00
         22   -1    0    0    0    0  0.00000000000E+00  0.00000000000E+00  0.56907755654E+02  0.56907755654E+02  0.00000000000E+00 0.  1.
         22   -1    0    0    0    0 -0.00000000000E+00 -0.00000000000E+00 -0.23695186464E+04  0.23695186464E+04  0.00000000000E+00 0. -1.
        -24    2    1    2    0    0  0.13631730963E+03 -0.59165861661E+02 -0.19704127861E+04  0.19776011948E+04  0.79353197252E+02 0.  0.
         25    2    1    2    0    0 -0.41901572764E+02  0.30875086774E+02 -0.26881196793E+03  0.30102768441E+03  0.12509508343E+03 0.  0.
         24    2    1    2    0    0 -0.94415736871E+02  0.28290774887E+02 -0.73386136697E+02  0.14779752283E+03  0.82121150641E+02 0.  0.
        -11    1    5    5    0    0 -0.93433203035E+02 -0.13892906003E+01 -0.36203765616E+02  0.10021180670E+03  0.00000000000E+00 0.  1.
         12    1    5    5    0    0 -0.98253383528E+00  0.29680065488E+02 -0.37182371081E+02  0.47585716127E+02  0.00000000000E+00 0. -1.
         13    1    3    3    0    0  0.91440640138E+02 -0.32028675638E+02 -0.16570656307E+04  0.16598956989E+04  0.00000000000E+00 0. -1.
        -14    1    3    3    0    0  0.44876669497E+02 -0.27137186023E+02 -0.31334715542E+03  0.31770549593E+03  0.00000000000E+00 0.  1.
          5    1    4    4  501    0 -0.89549088875E+01 -0.18044291085E+02  0.47784874961E+01  0.21120917989E+02  0.41800000000E+01 0. -1.
         -5    1    4    4    0  501 -0.32946663877E+02  0.48919377859E+02 -0.27359045542E+03  0.27990676642E+03  0.41800000000E+01 0. -1.
</event>
<event>
11    1  0.6625361E-009  0.1727342E+03  0.7561462E-02  0.1075676E+00
         22   -1    0    0    0    0  0.00000000000E+00  0.00000000000E+00  0.72868262481E+03  0.72868262481E+03  0.00000000000E+00 0. -1.
         22   -1    0    0    0    0 -0.00000000000E+00 -0.00000000000E+00 -0.84635230885E+03  0.84635230885E+03  0.00000000000E+00 0.  1.
         24    2    1    2    0    0  0.11828831007E+03  0.27612543083E+02 -0.76424314505E+03  0.77805850487E+03  0.80949832726E+02 0.  0.
         25    2    1    2    0    0 -0.91428626319E+02 -0.75758965779E+01  0.10977015402E+02  0.15551425487E+03  0.12509037005E+03 0.  0.
        -24    2    1    2    0    0 -0.26859683753E+02 -0.20036646505E+02  0.63559644560E+03  0.64146217392E+03  0.79799555692E+02 0.  0.
        -11    1    3    3    0    0  0.11115180707E+03  0.46076457583E+02 -0.71380089932E+03  0.72387118193E+03  0.00000000000E+00 0.  1.
         12    1    3    3    0    0  0.71365029984E+01 -0.18463914500E+02 -0.50442245732E+02  0.54187322947E+02  0.00000000000E+00 0. -1.
         11    1    5    5    0    0 -0.47158509485E+02 -0.34070366292E+02  0.35008324633E+03  0.35488448013E+03  0.00000000000E+00 0. -1.
        -12    1    5    5    0    0  0.20298825733E+02  0.14033719788E+02  0.28551319927E+03  0.28657769379E+03  0.00000000000E+00 0.  1.
          5    1    4    4  501    0 -0.41422574567E+02 -0.43108710636E+02 -0.42948043927E+02  0.73730573669E+02  0.41800000000E+01 0. -1.
         -5    1    4    4    0  501 -0.50006051752E+02  0.35532814058E+02  0.53925059329E+02  0.81783681198E+02  0.41800000000E+01 0. -1.
</event>
<event>
11    1  0.6625361E-009  0.1305200E+03  0.7561462E-02  0.1118632E+00
         22   -1    0    0    0    0  0.00000000000E+00  0.00000000000E+00  0.14824198694E+04  0.14824198694E+04  0.00000000000E+00 0. -1.
         22   -1    0    0    0    0 -0.00000000000E+00 -0.00000000000E+00 -0.11588617022E+04  0.11588617022E+04  0.00000000000E+00 0. -1.
         24    2    1    2    0    0 -0.35553459272E+02  0.81080907095E+01 -0.11313046131E+04  0.11347994355E+04  0.81177840223E+02 0.  0.
         25    2    1    2    0    0  0.24247230938E+02  0.28462687015E+02  0.15133660624E+03  0.19987418376E+03  0.12509543630E+03 0.  0.
        -24    2    1    2    0    0  0.11306228334E+02 -0.36570777725E+02  0.13035261740E+04  0.13066079523E+04  0.81108581737E+02 0.  0.
        -11    1    3    3    0    0  0.22493553372E+02  0.19574043909E+02 -0.38525953225E+03  0.38641171091E+03  0.00000000000E+00 0.  1.
         12    1    3    3    0    0 -0.58047012644E+02 -0.11465953200E+02 -0.74604508083E+03  0.74838772464E+03  0.00000000000E+00 0. -1.
         11    1    5    5    0    0  0.63772988166E+01  0.22268289722E+02  0.65211775318E+03  0.65252901137E+03  0.00000000000E+00 0. -1.
        -12    1    5    5    0    0  0.49289295172E+01 -0.58839067447E+02  0.65140842084E+03  0.65407894091E+03  0.00000000000E+00 0.  1.
          5    1    4    4  501    0  0.47983886051E+02  0.70335665745E+01  0.15937007476E+03  0.16663798339E+03  0.41800000000E+01 0.  1.
         -5    1    4    4    0  501 -0.23736655113E+02  0.21429120441E+02 -0.80334685144E+01  0.33236200372E+02  0.41800000000E+01 0.  1.
</event>
<event>
11    1  0.6625361E-009  0.1694686E+03  0.7561462E-02  0.1078495E+00
         22   -1    0    0    0    0  0.00000000000E+00  0.00000000000E+00  0.73365867718E+03  0.73365867718E+03  0.00000000000E+00 0.  1.
         22   -1    0    0    0    0 -0.00000000000E+00 -0.00000000000E+00 -0.75152217785E+03  0.75152217785E+03  0.00000000000E+00 0.  1.
         24    2    1    2    0    0 -0.57076330349E+02 -0.10425760765E+03 -0.53573455737E+03  0.55434636329E+03  0.78492154364E+02 0.  0.
         25    2    1    2    0    0  0.10442917591E+03  0.48529790208E+02 -0.16651793606E+03  0.23798493351E+03  0.12509201505E+03 0.  0.
        -24    2    1    2    0    0 -0.47352845559E+02  0.55727817439E+02  0.68438899276E+03  0.69284955824E+03  0.79399844626E+02 0.  0.
        -11    1    3    3    0    0 -0.63189459446E+02 -0.11407754229E+03 -0.50291704140E+03  0.51954994368E+03  0.00000000000E+00 0.  1.
         12    1    3    3    0    0  0.61131290972E+01  0.98199346468E+01 -0.32817515965E+02  0.34796419614E+02  0.00000000000E+00 0. -1.
         13    1    5    5    0    0  0.17703853520E+01  0.27270563610E+02  0.47842386534E+03  0.47920372790E+03  0.00000000000E+00 0. -1.
        -14    1    5    5    0    0 -0.49123230911E+02  0.28457253829E+02  0.20596512741E+03  0.21364583034E+03  0.00000000000E+00 0.  1.
          5    1    4    4  501    0 -0.79829771029E+00 -0.34894465656E+02 -0.42402754487E+02  0.55079279232E+02  0.41800000000E+01 0.  1.
         -5    1    4    4    0  501  0.10522747362E+03  0.83424255864E+02 -0.12411518157E+03  0.18290565428E+03  0.41800000000E+01 0.  1.
</event>
<event>
11    1  0.6855310E-009  0.1664819E+03  0.7561462E-02  0.1081134E+00
         22   -1    0    0    0    0  0.00000000000E+00  0.00000000000E+00  0.46238180938E+03  0.46238180938E+03  0.00000000000E+00 0.  1.
         22   -1    0    0    0    0 -0.00000000000E+00 -0.00000000000E+00 -0.29849827363E+03  0.29849827363E+03  0.00000000000E+00 0. -1.
         24    2    1    2    0    0 -0.89784455838E+02  0.45453465289E+02 -0.17114334577E+03  0.21573206599E+03  0.84397947128E+02 0.  0.
         25    2    1    2    0    0  0.13117512361E+03 -0.71502694796E+02 -0.39573404602E+01  0.19489233114E+03  0.12509121383E+03 0.  0.
        -24    2    1    2    0    0 -0.41390667773E+02  0.26049229507E+02  0.33898422198E+03  0.35025568588E+03  0.73327982380E+02 0.  0.
        -13    1    3    3    0    0 -0.33089464734E+02 -0.23367402542E+02 -0.70176308494E+02  0.81028775455E+02  0.00000000000E+00 0.  1.
         14    1    3    3    0    0 -0.56694991104E+02  0.68820867831E+02 -0.10096703727E+03  0.13470329053E+03  0.00000000000E+00 0. -1.
         11    1    5    5    0    0  0.13812490656E+01 -0.18042458773E+02  0.28546076404E+02  0.33798175182E+02  0.00000000000E+00 0. -1.
        -12    1    5    5    0    0 -0.42771916839E+02  0.44091688281E+02  0.31043814558E+03  0.31645751070E+03  0.00000000000E+00 0.  1.
          5    1    4    4  501    0  0.72191535081E+02 -0.10344568622E+03  0.86566612468E+01  0.12651101896E+03  0.41800000000E+01 0. -1.
         -5    1    4    4    0  501  0.58983588531E+02  0.31942991420E+02 -0.12614001707E+02  0.68381312183E+02  0.41800000000E+01 0. -1.
</event>
<event>
11    1  0.6625361E-009  0.1968510E+03  0.7561462E-02  0.1056773E+00
         22   -1    0    0    0    0  0.00000000000E+00  0.00000000000E+00  0.76114256425E+03  0.76114256425E+03  0.00000000000E+00 0. -1.
         22   -1    0    0    0    0 -0.00000000000E+00 -0.00000000000E+00 -0.31022808177E+03  0.31022808177E+03  0.00000000000E+00 0. -1.
         24    2    1    2    0    0  0.52058297193E+02  0.11149591977E+03 -0.21074298716E+03  0.25639683538E+03  0.78646831639E+02 0.  0.
         25    2    1    2    0    0  0.10901147219E+03 -0.80168126297E+02  0.72591363775E+02  0.19804632578E+03  0.12506962667E+03 0.  0.
        -24    2    1    2    0    0 -0.16106976938E+03 -0.31327793476E+02  0.58906610587E+03  0.61692748486E+03  0.81705221619E+02 0.  0.
        -13    1    3    3    0    0  0.19374696477E+02 -0.32980451511E+01 -0.65601268781E+02  0.68481986179E+02  0.00000000000E+00 0.  1.
         14    1    3    3    0    0  0.32683600716E+02  0.11479396492E+03 -0.14514171838E+03  0.18791484921E+03  0.00000000000E+00 0. -1.
         11    1    5    5    0    0 -0.10046210242E+03  0.19410931314E+02  0.28711791024E+03  0.30480504041E+03  0.00000000000E+00 0. -1.
        -12    1    5    5    0    0 -0.60607666963E+02 -0.50738724790E+02  0.30194819563E+03  0.31212244445E+03  0.00000000000E+00 0.  1.
          5    1    4    4  501    0  0.11868696701E+03 -0.10401532740E+03  0.66285000951E+02  0.17122195602E+03  0.41800000000E+01 0.  1.
         -5    1    4    4    0  501 -0.96754948233E+01  0.23847201105E+02  0.63063628237E+01  0.26824369754E+02  0.41800000000E+01 0.  1.
</event>
<event>
11    1  0.6625361E-009  0.1723622E+03  0.7561462E-02  0.1075994E+00
         22   -1    0    0    0    0  0.00000000000E+00  0.00000000000E+00  0.75515969746E+03  0.75515969746E+03  0.00000000000E+00 0. -1.
         22   -1    0    0    0    0 -0.00000000000E+00 -0.00000000000E+00 -0.20397851851E+03  0.20397851851E+03  0.00000000000E+00 0. -1.
         24    2    1    2    0    0 -0.51084404355E+02 -0.10609017858E+03 -0.10659033145E+03  0.17863737200E+03  0.81762274650E+02 0.  0.
         25    2    1    2    0    0  0.34302963313E+02  0.11808260639E+03  0.74749622170E+02  0.19067013977E+03  0.12508957175E+03 0.  0.
        -24    2    1    2    0    0  0.16781441042E+02 -0.11992427811E+02  0.58302188823E+03  0.58983070421E+03  0.86949999332E+02 0.  0.
        -11    1    3    3    0    0 -0.84497802859E+01 -0.11370504346E+02  0.13698873909E+02  0.19706504062E+02  0.00000000000E+00 0.  1.
         12    1    3    3    0    0 -0.42634624069E+02 -0.94719674231E+02 -0.12028920536E+03  0.15893086793E+03  0.00000000000E+00 0. -1.
         13    1    5    5    0    0  0.34451569746E+02 -0.35107673209E+02  0.48751827642E+03  0.48999339712E+03  0.00000000000E+00 0. -1.
        -14    1    5    5    0    0 -0.17670128704E+02  0.23115245399E+02  0.95503611806E+02  0.99837307087E+02  0.00000000000E+00 0.  1.
          5    1    4    4  501    0  0.77475613711E+02  0.10397667863E+03  0.57510776947E+02  0.14191047278E+03  0.41800000000E+01 0. -1.
         -5    1    4    4    0  501 -0.43172650398E+02  0.14105927758E+02  0.17238845223E+02  0.48759666990E+02  0.41800000000E+01 0. -1.
</event>
<event>
11    1  0.6625361E-009  0.2938890E+03  0.7561462E-02  0.1002811E+00
         22   -1    0    0    0    0  0.00000000000E+00  0.00000000000E+00  0.51696751497E+03  0.51696751497E+03  0.00000000000E+00 0.  1.
         22   -1    0    0    0    0 -0.00000000000E+00 -0.00000000000E+00 -0.87748358005E+03  0.87748358005E+03  0.00000000000E+00 0. -1.
        -24    2    1    2    0    0 -0.42548335880E+02 -0.26148915521E+03 -0.45966894258E+03  0.53657031783E+03  0.80157532495E+02 0.  0.
         25    2    1    2    0    0  0.35913177231E+02  0.26510975655E+03 -0.31736709559E+03  0.43352070165E+03  0.12508151775E+03 0.  0.
         24    2    1    2    0    0  0.66351586486E+01 -0.36206013326E+01  0.41651997310E+03  0.42436007554E+03  0.80842140228E+02 0.  0.
        -13    1    5    5    0    0 -0.22541921397E+02  0.28887068246E+02  0.22129337216E+03  0.22430639200E+03  0.00000000000E+00 0.  1.
         14    1    5    5    0    0  0.29177080046E+02 -0.32507669579E+02  0.19522660094E+03  0.20005368354E+03  0.00000000000E+00 0. -1.
         13    1    3    3    0    0 -0.38983996790E+02 -0.26692321793E+03 -0.44285814997E+03  0.51854710227E+03  0.00000000000E+00 0. -1.
        -14    1    3    3    0    0 -0.35643390899E+01  0.54340627162E+01 -0.16810792616E+02  0.18023215560E+02  0.00000000000E+00 0.  1.
          5    1    4    4  501    0  0.19424065280E+02  0.22723951559E+03 -0.18165574055E+03  0.29160139272E+03  0.41800000000E+01 0. -1.
         -5    1    4    4    0  501  0.16489111951E+02  0.37870240956E+02 -0.13571135504E+03  0.14191930894E+03  0.41800000000E+01 0. -1.
</event>
<event>
11    1  0.6625361E-009  0.1379750E+03  0.7561462E-02  0.1109841E+00
         22   -1    0    0    0    0  0.00000000000E+00  0.00000000000E+00  0.29819799170E+03  0.29819799170E+03  0.00000000000E+00 0. -1.
         22   -1    0    0    0    0 -0.00000000000E+00 -0.00000000000E+00 -0.10504056712E+04  0.10504056712E+04  0.00000000000E+00 0. -1.
        -24    2    1    2    0    0  0.15331131888E+02  0.52590362359E+02 -0.83403198225E+03  0.83963769236E+03  0.79883147141E+02 0.  0.
         25    2    1    2    0    0 -0.42527864173E+02 -0.87080727493E+02 -0.17506322579E+03  0.23597760653E+03  0.12508647180E+03 0.  0.
         24    2    1    2    0    0  0.27196732285E+02  0.34490365134E+02  0.25688752852E+03  0.27298836402E+03  0.81253904807E+02 0.  0.
        -11    1    5    5    0    0  0.41537550334E+02 -0.41137270913E+01  0.69019591183E+02  0.80659747120E+02  0.00000000000E+00 0.  1.
         12    1    5    5    0    0 -0.14340818049E+02  0.38604092225E+02  0.18786793734E+03  0.19232861690E+03  0.00000000000E+00 0. -1.
         13    1    3    3    0    0  0.15361335450E+02  0.71363020503E+02 -0.52690580172E+03  0.53193831899E+03  0.00000000000E+00 0. -1.
        -14    1    3    3    0    0 -0.30203562032E-01 -0.18772658144E+02 -0.30712618053E+03  0.30769937337E+03  0.00000000000E+00 0.  1.
          5    1    4    4  501    0  0.25041211801E+02 -0.80973054883E+02 -0.12694577320E+03  0.15269708458E+03  0.41800000000E+01 0. -1.
         -5    1    4    4    0  501 -0.67569075974E+02 -0.61076726107E+01 -0.48117452586E+02  0.83280521949E+02  0.41800000000E+01 0. -1.
</event>
<event>
11    1  0.6625361E-009  0.1487098E+03  0.7561462E-02  0.1098204E+00
         22   -1    0    0    0    0  0.00000000000E+00  0.00000000000E+00  0.60666044146E+03  0.60666044146E+03  0.00000000000E+00 0. -1.
         22   -1    0    0    0    0 -0.00000000000E+00 -0.00000000000E+00 -0.14481648599E+04  0.14481648599E+04  0.00000000000E+00 0.  1.
        -24    2    1    2    0    0 -0.79936104719E+02 -0.30332357618E+01 -0.13372855105E+04  0.13421461884E+04  0.81393323303E+02 0.  0.
         25    2    1    2    0    0  0.89203905927E+02  0.36005694182E+02 -0.45868634832E+02  0.16433262526E+03  0.12509010040E+03 0.  0.
         24    2    1    2    0    0 -0.92678012078E+01 -0.32972458420E+02  0.54164972690E+03  0.54834648768E+03  0.78271123325E+02 0.  0.
        -13    1    5    5    0    0  0.17187178921E+01  0.11103259999E+02  0.10891598398E+02  0.15648108176E+02  0.00000000000E+00 0.  1.
         14    1    5    5    0    0 -0.10986519100E+02 -0.44075718419E+02  0.53075812850E+03  0.53269837951E+03  0.00000000000E+00 0. -1.
         11    1    3    3    0    0  0.98976100682E+01  0.49076671992E+01 -0.34121596121E+02  0.35865459766E+02  0.00000000000E+00 0. -1.
        -12    1    3    3    0    0 -0.89833714787E+02 -0.79409029610E+01 -0.13031639144E+04  0.13062807286E+04  0.00000000000E+00 0.  1.
          5    1    4    4  501    0  0.62524496485E+02 -0.38878786646E+02 -0.41471488746E+02  0.84606320630E+02  0.41800000000E+01 0. -1.
         -5    1    4    4    0  501  0.26679409442E+02  0.74884480827E+02 -0.43971460856E+01  0.79726304634E+02  0.41800000000E+01 0. -1.
</event>
<event>
11    1  0.6625361E-009  0.1483976E+03  0.7561462E-02  0.1098527E+00
         22   -1    0    0    0    0  0.00000000000E+00  0.00000000000E+00  0.84647945354E+03  0.84647945354E+03  0.00000000000E+00 0.  1.
         22   -1    0    0    0    0 -0.00000000000E+00 -0.00000000000E+00 -0.11313129116E+03  0.11313129116E+03  0.00000000000E+00 0. -1.
        -24    2    1    2    0    0 -0.80599923564E+02  0.24432282375E+02 -0.35007350219E+02  0.12144795726E+03  0.80192316667E+02 0.  0.
         25    2    1    2    0    0  0.64624351712E+02 -0.74060670996E+01  0.12235514321E+03  0.18667935312E+03  0.12508894095E+03 0.  0.
         24    2    1    2    0    0  0.15975571852E+02 -0.17026215275E+02  0.64600036939E+03  0.65148343432E+03  0.81049842941E+02 0.  0.
        -13    1    5    5    0    0  0.87074991558E+01  0.30865966109E+02  0.35841459851E+03  0.35984656846E+03  0.00000000000E+00 0.  1.
         14    1    5    5    0    0  0.72680726960E+01 -0.47892181384E+02  0.28758577088E+03  0.29163686586E+03  0.00000000000E+00 0. -1.
         11    1    3    3    0    0 -0.93614600269E+02  0.62302707147E+01 -0.30186892076E+02  0.98558399489E+02  0.00000000000E+00 0. -1.
        -12    1    3    3    0    0  0.13014676704E+02  0.18202011660E+02 -0.48204581429E+01  0.22889557770E+02  0.00000000000E+00 0.  1.
          5    1    4    4  501    0  0.47757940493E+02 -0.21659204825E+02  0.14531897229E+03  0.15454778595E+03  0.41800000000E+01 0.  1.
         -5    1    4    4    0  501  0.16866411220E+02  0.14253137726E+02 -0.22963829087E+02  0.32131567170E+02  0.41800000000E+01 0.  1.
</event>
<event>
11    1  0.6625361E-009  0.1375214E+03  0.7561462E-02  0.1110358E+00
         22   -1    0    0    0    0  0.00000000000E+00  0.00000000000E+00  0.28304957486E+03  0.28304957486E+03  0.00000000000E+00 0.  1.
         22   -1    0    0    0    0 -0.00000000000E+00 -0.00000000000E+00 -0.44132451128E+03  0.44132451128E+03  0.00000000000E+00 0. -1.
         24    2    1    2    0    0  0.17824838460E+02 -0.56161187998E+02 -0.28621133704E+03  0.30273635613E+03  0.79123750972E+02 0.  0.
         25    2    1    2    0    0 -0.15099064536E+02  0.47854594012E+02 -0.10747172501E+03  0.17237879352E+03  0.12508490262E+03 0.  0.
        -24    2    1    2    0    0 -0.27257739242E+01  0.83065939858E+01  0.23540812563E+03  0.24925893648E+03  0.81465345114E+02 0.  0.
        -13    1    3    3    0    0 -0.71713246008E+01 -0.40243537775E+01  0.22595144902E+01  0.85281138353E+01  0.00000000000E+00 0.  1.
         14    1    3    3    0    0  0.24996163061E+02 -0.52136834220E+02 -0.28847085153E+03  0.29420824230E+03  0.00000000000E+00 0. -1.
         11    1    5    5    0    0  0.30930315625E+01  0.33546499239E+02  0.40692896887E+02  0.52828461198E+02  0.00000000000E+00 0. -1.
        -12    1    5    5    0    0 -0.58188054867E+01 -0.25239905253E+02  0.19471522875E+03  0.19643047528E+03  0.00000000000E+00 0.  1.
          5    1    4    4  501    0 -0.54890579264E+01  0.87067825069E+02 -0.96863472993E+02  0.13042599710E+03  0.41800000000E+01 0. -1.
         -5    1    4    4    0  501 -0.96100066098E+01 -0.39213231057E+02 -0.10608252016E+02  0.41952796424E+02  0.41800000000E+01 0. -1.
</event>
<event>
11    1  0.6625361E-009  0.1354462E+03  0.7561462E-02  0.1112753E+00
         22   -1    0    0    0    0  0.00000000000E+00  0.00000000000E+00  0.23021618721E+03  0.23021618721E+03  0.00000000000E+00 0. -1.
         22   -1    0    0    0    0 -0.00000000000E+00 -0.00000000000E+00 -0.27043243551E+03  0.27043243551E+03  0.00000000000E+00 0. -1.
         24    2    1    2    0    0  0.15860491477E+02 -0.20433911236E+02 -0.10185501990E+03  0.13269315582E+03  0.81018075785E+02 0.  0.
         25    2    1    2    0    0  0.37262433608E+02  0.16596869823E+02 -0.11057400794E+03  0.17186897303E+03  0.12509351547E+03 0.  0.
        -24    2    1    2    0    0 -0.53122925085E+02  0.38370414131E+01  0.17221277953E+03  0.19608649388E+03  0.77174500898E+02 0.  0.
        -13    1    3    3    0    0  0.37084754911E+02 -0.29816307397E+02 -0.27850547955E+02  0.55135689485E+02  0.00000000000E+00 0.  1.
         14    1    3    3    0    0 -0.21224263435E+02  0.93823961614E+01 -0.74004471946E+02  0.77557466334E+02  0.00000000000E+00 0. -1.
         13    1    5    5    0    0 -0.68582687766E+02  0.92103814771E+01  0.97242220888E+02  0.11935018103E+03  0.00000000000E+00 0. -1.
        -14    1    5    5    0    0  0.15459762682E+02 -0.53733400640E+01  0.74970558646E+02  0.76736312847E+02  0.00000000000E+00 0.  1.
          5    1    4    4  501    0  0.46425729939E+02  0.46796598628E+02 -0.10533966712E+02  0.66885775006E+02  0.41800000000E+01 0.  1.
         -5    1    4    4    0  501 -0.91632963303E+01 -0.30199728806E+02 -0.10004004122E+03  0.10498319803E+03  0.41800000000E+01 0.  1.
</event>
<event>
11    1  0.6625361E-009  0.2002786E+03  0.7561462E-02  0.1054327E+00
         22   -1    0    0    0    0  0.00000000000E+00  0.00000000000E+00  0.50068522442E+03  0.50068522442E+03  0.00000000000E+00 0.  1.
         22   -1    0    0    0    0 -0.00000000000E+00 -0.00000000000E+00 -0.10006971466E+04  0.10006971466E+04  0.00000000000E+00 0. -1.
         24    2    1    2    0    0 -0.57251469435E+02 -0.62780333073E+02 -0.92214638803E+03  0.92951755129E+03  0.80186134893E+02 0.  0.
         25    2    1    2    0    0 -0.40957251669E+02 -0.10385149146E+03  0.12851499487E+03  0.21125060205E+03  0.12509230279E+03 0.  0.
        -24    2    1    2    0    0  0.98208721104E+02  0.16663182453E+03  0.29361947097E+03  0.36061421768E+03  0.80119301133E+02 0.  0.
        -13    1    3    3    0    0  0.15969561274E+02 -0.33077965898E+01 -0.28056389376E+03  0.28103748306E+03  0.00000000000E+00 0.  1.
         14    1    3    3    0    0 -0.73221030709E+02 -0.59472536483E+02 -0.64158249427E+03  0.64848006823E+03  0.00000000000E+00 0. -1.
         11    1    5    5    0    0 -0.10151957310E+02  0.26652859416E+02  0.68728565020E+02  0.74411375488E+02  0.00000000000E+00 0. -1.
        -12    1    5    5    0    0  0.10836067841E+03  0.13997896511E+03  0.22489090595E+03  0.28620284220E+03  0.00000000000E+00 0.  1.
          5    1    4    4  501    0 -0.65360631462E+02 -0.15389923374E+02  0.22425013714E+02  0.70916962193E+02  0.41800000000E+01 0.  1.
         -5    1    4    4    0  501  0.24403379793E+02 -0.88461568082E+02  0.10608998116E+03  0.14033363985E+03  0.41800000000E+01 0.  1.
</event>
<event>
11    1  0.6625361E-009  0.2076543E+03  0.7561462E-02  0.1049239E+00
         22   -1    0    0    0    0  0.00000000000E+00  0.00000000000E+00  0.57797655847E+03  0.57797655847E+03  0.00000000000E+00 0. -1.
         22   -1    0    0    0    0 -0.00000000000E+00 -0.00000000000E+00 -0.12803423232E+04  0.12803423232E+04  0.00000000000E+00 0.  1.
         24    2    1    2    0    0 -0.15949372448E+03  0.13929247487E+02 -0.10427093525E+04  0.10580440385E+04  0.81130274412E+02 0.  0.
         25    2    1    2    0    0  0.21468093513E+03 -0.43530800800E+02 -0.15414958152E+03  0.29562354029E+03  0.12509336340E+03 0.  0.
        -24    2    1    2    0    0 -0.55187210656E+02  0.29601553313E+02  0.49449316930E+03  0.50465130292E+03  0.78914909084E+02 0.  0.
        -11    1    3    3    0    0 -0.11398288160E+02  0.25611655969E+02 -0.24703500187E+03  0.24862053423E+03  0.00000000000E+00 0.  1.
         12    1    3    3    0    0 -0.14809543631E+03 -0.11682408481E+02 -0.79567435065E+03  0.80942350423E+03  0.00000000000E+00 0. -1.
         13    1    5    5    0    0 -0.71134326879E+02  0.59570718957E+01  0.32211244047E+03  0.32992726997E+03  0.00000000000E+00 0. -1.
        -14    1    5    5    0    0  0.15947116223E+02  0.23644481417E+02  0.17238072883E+03  0.17472403295E+03  0.00000000000E+00 0.  1.
          5    1    4    4  501    0  0.32816266988E+02 -0.34948546577E+02 -0.90873699226E+02  0.10282903237E+03  0.41800000000E+01 0.  1.
         -5    1    4    4    0  501  0.18186466814E+03 -0.85822542239E+01 -0.63275882295E+02  0.19279450793E+03  0.41800000000E+01 0.  1.
</event>
<event>
11    1  0.6625361E-009  0.2105428E+03  0.7561462E-02  0.1047309E+00
         22   -1    0    0    0    0  0.00000000000E+00  0.00000000000E+00  0.85596244989E+03  0.85596244989E+03  0.00000000000E+00 0. -1.
         22   -1    0    0    0    0 -0.00000000000E+00 -0.00000000000E+00 -0.69602521285E+03  0.69602521285E+03  0.00000000000E+00 0.  1.
         24    2    1    2    0    0  0.13004988289E+03  0.10442694685E+03 -0.60214999739E+03  0.62996355084E+03  0.80321209904E+02 0.  0.
         25    2    1    2    0    0 -0.17418127970E+03 -0.10885981490E+03  0.11153534916E+03  0.26509941011E+03  0.12509190874E+03 0.  0.
        -24    2    1    2    0    0  0.44131396816E+02  0.44328680575E+01  0.65055188528E+03  0.65692470179E+03  0.79781438164E+02 0.  0.
        -13    1    3    3    0    0  0.13064612426E+03  0.74526833674E+02 -0.54609859040E+03  0.56643298735E+03  0.00000000000E+00 0.  1.
         14    1    3    3    0    0 -0.59624137045E+00  0.29900113173E+02 -0.56051406991E+02  0.63530563489E+02  0.00000000000E+00 0. -1.
         11    1    5    5    0    0  0.64892090516E+01 -0.16977389480E+02  0.49836843964E+03  0.49869975257E+03  0.00000000000E+00 0. -1.
        -12    1    5    5    0    0  0.37642187764E+02  0.21410257538E+02  0.15218344564E+03  0.15822494922E+03  0.00000000000E+00 0.  1.
          5    1    4    4  501    0 -0.39154019608E+02 -0.93983926321E+02  0.28411160600E+02  0.10578602037E+03  0.41800000000E+01 0.  1.
         -5    1    4    4    0  501 -0.13502726009E+03 -0.14875888583E+02  0.83124188558E+02  0.15931338975E+03  0.41800000000E+01 0.  1.
</event>
<event>
11    1  0.6625361E-009  0.1347009E+03  0.7561462E-02  0.1113624E+00
         22   -1    0    0    0    0  0.00000000000E+00  0.00000000000E+00  0.70683555018E+03  0.70683555018E+03  0.00000000000E+00 0.  1.
         22   -1    0    0    0    0 -0.00000000000E+00 -0.00000000000E+00 -0.32919041996E+03  0.32919041996E+03  0.00000000000E+00 0. -1.
        -24    2    1    2    0    0  0.46005125056E+02 -0.24625422834E+02 -0.22271876167E+03  0.24306917939E+03  0.82195475458E+02 0.  0.
         25    2    1    2    0    0 -0.53402445361E+02 -0.25711452018E+02 -0.41120598822E+02  0.14439928600E+03  0.12508936891E+03 0.  0.
         24    2    1    2    0    0  0.73973203046E+01  0.50336874852E+02  0.64148449071E+03  0.64855750476E+03  0.80845308073E+02 0.  0.
        -13    1    5    5    0    0  0.16677584921E+02  0.67546969806E+02  0.57683820889E+03  0.58101897922E+03  0.00000000000E+00 0.  1.
         14    1    5    5    0    0 -0.92802646162E+01 -0.17210094954E+02  0.64646281818E+02  0.67538525543E+02  0.00000000000E+00 0. -1.
         13    1    3    3    0    0  0.63712744302E+02 -0.21935385859E+01 -0.18546720639E+03  0.19611784734E+03  0.00000000000E+00 0. -1.
        -14    1    3    3    0    0 -0.17707619246E+02 -0.22431884249E+02 -0.37251555282E+02  0.46951332049E+02  0.00000000000E+00 0.  1.
          5    1    4    4  501    0  0.82024294456E+01  0.28548739303E+02  0.24887820936E+02  0.38976741726E+02  0.41800000000E+01 0. -1.
         -5    1    4    4    0  501 -0.61604874807E+02 -0.54260191321E+02 -0.66008419758E+02  0.10542254427E+03  0.41800000000E+01 0. -1.
</event>
<event>
11    1  0.6625361E-009  0.2665135E+03  0.7561462E-02  0.1015452E+00
         22   -1    0    0    0    0  0.00000000000E+00  0.00000000000E+00  0.67134758517E+03  0.67134758517E+03  0.00000000000E+00 0.  1.
         22   -1    0    0    0    0 -0.00000000000E+00 -0.00000000000E+00 -0.14949574975E+04  0.14949574975E+04  0.00000000000E+00 0.  1.
         24    2    1    2    0    0 -0.10253609303E+03  0.21198167339E+03 -0.13187634499E+04  0.13420688961E+04  0.81006202240E+02 0.  0.
         25    2    1    2    0    0 -0.46642440755E+02 -0.27754598152E+03  0.11491208446E+02  0.30819837880E+03  0.12508758406E+03 0.  0.
        -24    2    1    2    0    0  0.14917853379E+03  0.65564308132E+02  0.48366232915E+03  0.51603780776E+03  0.76242094424E+02 0.  0.
        -13    1    3    3    0    0 -0.54206159052E+02  0.14243221118E+03 -0.63258562011E+03  0.65068410863E+03  0.00000000000E+00 0.  1.
         14    1    3    3    0    0 -0.48329933982E+02  0.69549462210E+02 -0.68617782977E+03  0.69138478743E+03  0.00000000000E+00 0. -1.
         13    1    5    5    0    0 -0.62321536924E+01  0.14689507949E+02  0.54035729640E+02  0.56342536872E+02  0.00000000000E+00 0. -1.
        -14    1    5    5    0    0  0.15541068748E+03  0.50874800183E+02  0.42962659951E+03  0.45969527089E+03  0.00000000000E+00 0.  1.
          5    1    4    4  501    0  0.30329029801E+02 -0.15331048708E+02 -0.38611402714E+01  0.34456812205E+02  0.41800000000E+01 0.  1.
         -5    1    4    4    0  501 -0.76971470556E+02 -0.26221493282E+03  0.15352348718E+02  0.27374156660E+03  0.41800000000E+01 0.  1.
</event>
<event>
11    1  0.6625361E-009  0.1430983E+03  0.7561462E-02  0.1104147E+00
         22   -1    0    0    0    0  0.00000000000E+00  0.00000000000E+00  0.27215106123E+04  0.27215106123E+04  0.00000000000E+00 0. -1.
         22   -1    0    0    0    0 -0.00000000000E+00 -0.00000000000E+00 -0.47509921030E+02  0.47509921030E+02  0.00000000000E+00 0. -1.
         24    2    1    2    0    0 -0.25413242718E+02 -0.72121111186E+02  0.62160139091E+02  0.12568980657E+03  0.78017671081E+02 0.  0.
         25    2    1    2    0    0  0.69190121756E+02  0.15558133764E+02  0.34023170708E+03  0.36937062972E+03  0.12509084350E+03 0.  0.
        -24    2    1    2    0    0 -0.43776879039E+02  0.56562977421E+02  0.22716088451E+04  0.22739600970E+04  0.74645778152E+02 0.  0.
        -13    1    3    3    0    0 -0.58527954337E+01 -0.37243911590E+02  0.74789803705E+02  0.83754873907E+02  0.00000000000E+00 0.  1.
         14    1    3    3    0    0 -0.19560447284E+02 -0.34877199596E+02 -0.12629664614E+02  0.41934932668E+02  0.00000000000E+00 0. -1.
         13    1    5    5    0    0 -0.28225885524E+02  0.73874013357E+02  0.18775663343E+04  0.18792310689E+04  0.00000000000E+00 0. -1.
        -14    1    5    5    0    0 -0.15550993515E+02 -0.17311035936E+02  0.39404251078E+03  0.39472902815E+03  0.00000000000E+00 0.  1.
          5    1    4    4  501    0  0.51379095072E+02 -0.20221839653E+02  0.44823260793E+02  0.71241359598E+02  0.41800000000E+01 0. -1.
         -5    1    4    4    0  501  0.17811026685E+02  0.35779973417E+02  0.29540844628E+03  0.29812927013E+03  0.41800000000E+01 0. -1.
</event>
<event>
11    1  0.6625361E-009  0.1701022E+03  0.7561462E-02  0.1077943E+00
         22   -1    0    0    0    0  0.00000000000E+00  0.00000000000E+00  0.63114029656E+03  0.63114029656E+03  0.00000000000E+00 0.  1.
         22   -1    0    0    0    0 -0.00000000000E+00 -0.00000000000E+00 -0.31082601709E+03  0.31082601709E+03  0.00000000000E+00 0.  1.
        -24    2    1    2    0    0  0.88943660994E+02  0.36814199534E+02 -0.22370462824E+03  0.25654936553E+03  0.80669425055E+02 0.  0.
         25    2    1    2    0    0 -0.72400838713E+02  0.84037052179E+02  0.56701890573E+02  0.17653741812E+03  0.12508496319E+03 0.  0.
         24    2    1    2    0    0 -0.16542822280E+02 -0.12085125171E+03  0.48731701714E+03  0.50887953000E+03  0.81251528289E+02 0.  0.
        -11    1    5    5    0    0  0.26128126778E+02 -0.90190993158E+02  0.30252146660E+03  0.31675910722E+03  0.00000000000E+00 0.  1.
         12    1    5    5    0    0 -0.42670949058E+02 -0.30660258555E+02  0.18479555054E+03  0.19212042277E+03  0.00000000000E+00 0. -1.
         11    1    3    3    0    0  0.25256005405E+02  0.49402804642E+02 -0.14018622912E+03  0.15076697831E+03  0.00000000000E+00 0. -1.
        -12    1    3    3    0    0  0.63687655588E+02 -0.12588605109E+02 -0.83518399124E+02  0.10578238722E+03  0.00000000000E+00 0.  1.
          5    1    4    4  501    0 -0.45638945968E+02  0.27260171268E+02  0.90563117655E+02  0.10509605609E+03  0.41800000000E+01 0. -1.
         -5    1    4    4    0  501 -0.26761892745E+02  0.56776880911E+02 -0.33861227082E+02  0.71441362031E+02  0.41800000000E+01 0. -1.
</event>
<event>
11    1  0.6625361E-009  0.1382894E+03  0.7561462E-02  0.1109484E+00
         22   -1    0    0    0    0  0.00000000000E+00  0.00000000000E+00  0.15251013039E+03  0.15251013039E+03  0.00000000000E+00 0.  1.
         22   -1    0    0    0    0 -0.00000000000E+00 -0.00000000000E+00 -0.56564742702E+03  0.56564742702E+03  0.00000000000E+00 0.  1.
        -24    2    1    2    0    0 -0.18486870389E+02 -0.13912762901E+02 -0.33074548196E+03  0.34106312701E+03  0.79975955255E+02 0.  0.
         25    2    1    2    0    0 -0.36004443815E+02 -0.13362869597E+02 -0.18935585803E+03  0.23017037339E+03  0.12509146078E+03 0.  0.
         24    2    1    2    0    0  0.54491314204E+02  0.27275632498E+02  0.10696404335E+03  0.14692405701E+03  0.80200427097E+02 0.  0.
        -11    1    5    5    0    0  0.52105643094E+02 -0.66690104731E+01  0.98850957656E+02  0.11194188480E+03  0.00000000000E+00 0.  1.
         12    1    5    5    0    0  0.23856711094E+01  0.33944642971E+02  0.81130856952E+01  0.34982172211E+02  0.00000000000E+00 0. -1.
         11    1    3    3    0    0  0.12041873742E+02  0.16014951297E+02 -0.23908372434E+03  0.23992188860E+03  0.00000000000E+00 0. -1.
        -12    1    3    3    0    0 -0.30528744131E+02 -0.29927714198E+02 -0.91661757622E+02  0.10114123840E+03  0.00000000000E+00 0.  1.
          5    1    4    4  501    0 -0.65519075438E+02 -0.50131154225E+02 -0.10692420333E+03  0.13511528236E+03  0.41800000000E+01 0. -1.
         -5    1    4    4    0  501  0.29514631623E+02  0.36768284627E+02 -0.82431654698E+02  0.95055091029E+02  0.41800000000E+01 0. -1.
</event>
<event>
11    1  0.6625361E-009  0.1884124E+03  0.7561462E-02  0.1063034E+00
         22   -1    0    0    0    0  0.00000000000E+00  0.00000000000E+00  0.62497900903E+02  0.62497900903E+02  0.00000000000E+00 0.  1.
         22   -1    0    0    0    0 -0.00000000000E+00 -0.00000000000E+00 -0.15371714677E+04  0.15371714677E+04  0.00000000000E+00 0.  1.
        -24    2    1    2    0    0 -0.67282246494E+02  0.33754927317E+02 -0.61211803555E+03  0.62137132939E+03  0.75812556543E+02 0.  0.
         25    2    1    2    0    0  0.14404133464E+03 -0.13895454609E+03 -0.75710350994E+03  0.79303733975E+03  0.12508487321E+03 0.  0.
         24    2    1    2    0    0 -0.76759088142E+02  0.10519961877E+03 -0.10545202135E+03  0.18526069951E+03  0.79009370162E+02 0.  0.
        -13    1    5    5    0    0 -0.75532058870E+02  0.10995348083E+03 -0.72267661600E+02  0.15171511057E+03  0.00000000000E+00 0.  1.
         14    1    5    5    0    0 -0.12270292713E+01 -0.47538620512E+01 -0.33184359747E+02  0.33545588936E+02  0.00000000000E+00 0. -1.
         13    1    3    3    0    0  0.16616947628E+02  0.85822663013E+00 -0.10435203455E+03  0.10567027310E+03  0.00000000000E+00 0. -1.
        -14    1    3    3    0    0 -0.83899194122E+02  0.32896700687E+02 -0.50776600099E+03  0.51570105629E+03  0.00000000000E+00 0.  1.
          5    1    4    4  501    0  0.92199771620E+02 -0.73937453785E+01 -0.35063517632E+03  0.36265405641E+03  0.41800000000E+01 0. -1.
         -5    1    4    4    0  501  0.51841563015E+02 -0.13156080071E+03 -0.40646833362E+03  0.43038328334E+03  0.41800000000E+01 0. -1.
</event>
<event>
11    1  0.6625361E-009  0.1440480E+03  0.7561462E-02  0.1103120E+00
         22   -1    0    0    0    0  0.00000000000E+00  0.00000000000E+00  0.30425081265E+03  0.30425081265E+03  0.00000000000E+00 0.  1.
         22   -1    0    0    0    0 -0.00000000000E+00 -0.00000000000E+00 -0.88719963817E+03  0.88719963817E+03  0.00000000000E+00 0.  1.
        -24    2    1    2    0    0  0.63229489521E+02  0.33686469212E+02 -0.74649217335E+03  0.75379386504E+03  0.76301242104E+02 0.  0.
         25    2    1    2    0    0 -0.74778339472E+01  0.19272515567E+02 -0.94343024774E+02  0.15803359824E+03  0.12508662596E+03 0.  0.
         24    2    1    2    0    0 -0.55751655574E+02 -0.52958984779E+02  0.25788637261E+03  0.27962298754E+03  0.75965339574E+02 0.  0.
        -11    1    5    5    0    0 -0.96880338444E+01 -0.57722637038E+02  0.17689921149E+03  0.18633059827E+03  0.00000000000E+00 0.  1.
         12    1    5    5    0    0 -0.46063621730E+02  0.47636522593E+01  0.80987161115E+02  0.93292389267E+02  0.00000000000E+00 0. -1.
         13    1    3    3    0    0  0.44570463764E+02 -0.25171978995E+01 -0.16673232989E+03  0.17260513421E+03  0.00000000000E+00 0. -1.
        -14    1    3    3    0    0  0.18659025757E+02  0.36203667111E+02 -0.57975984345E+03  0.58118873082E+03  0.00000000000E+00 0.  1.
          5    1    4    4  501    0  0.47589653570E+01  0.61195304260E+02 -0.91380556179E+01  0.62197182213E+02  0.41800000000E+01 0. -1.
         -5    1    4    4    0  501 -0.12236799304E+02 -0.41922788693E+02 -0.85204969156E+02  0.95836416032E+02  0.41800000000E+01 0. -1.
</event>
<event>
11    1  0.6625361E-009  0.1473778E+03  0.7561462E-02  0.1099589E+00
         22   -1    0    0    0    0  0.00000000000E+00  0.00000000000E+00  0.29274513215E+03  0.29274513215E+03  0.00000000000E+00 0. -1.
         22   -1    0    0    0    0 -0.00000000000E+00 -0.00000000000E+00 -0.14244071356E+04  0.14244071356E+04  0.00000000000E+00 0. -1.
         24    2    1    2    0    0  0.17225909664E+01  0.81375054022E+02 -0.13144577756E+04  0.13194596195E+04  0.80929455664E+02 0.  0.
         25    2    1    2    0    0 -0.31260691667E+02 -0.15645267362E+02 -0.51296438669E+02  0.13964777204E+03  0.12509264719E+03 0.  0.
        -24    2    1    2    0    0  0.29538100701E+02 -0.65729786660E+02  0.23409221088E+03  0.25804487619E+03  0.81210163699E+02 0.  0.
        -11    1    3    3    0    0  0.10589300283E+01  0.42750575732E+02 -0.11388722879E+04  0.11396748752E+04  0.00000000000E+00 0.  1.
         12    1    3    3    0    0  0.66366093813E+00  0.38624478290E+02 -0.17558548778E+03  0.17978474432E+03  0.00000000000E+00 0. -1.
         11    1    5    5    0    0  0.46733989176E+02 -0.74167007115E+02  0.20763304596E+03  0.22538032848E+03  0.00000000000E+00 0. -1.
        -12    1    5    5    0    0 -0.17195888475E+02  0.84372204548E+01  0.26459164916E+02  0.32664547716E+02  0.00000000000E+00 0.  1.
          5    1    4    4  501    0 -0.19183935713E+02  0.36913229843E+01 -0.91275220546E+02  0.93436007730E+02  0.41800000000E+01 0.  1.
         -5    1    4    4    0  501 -0.12076755954E+02 -0.19336590346E+02  0.39978781876E+02  0.46211764313E+02  0.41800000000E+01 0.  1.
</event>
<event>
11    1  0.6625361E-009  0.2237231E+03  0.7561462E-02  0.1038910E+00
         22   -1    0    0    0    0  0.00000000000E+00  0.00000000000E+00  0.11059313695E+04  0.11059313695E+04  0.00000000000E+00 0. -1.
         22   -1    0    0    0    0 -0.00000000000E+00 -0.00000000000E+00 -0.43638742934E+03  0.43638742934E+03  0.00000000000E+00 0. -1.
         24    2    1    2    0    0  0.51687542345E+02  0.57557241011E+02 -0.27260159869E+03  0.29403607634E+03  0.78492958621E+02 0.  0.
         25    2    1    2    0    0 -0.22912581857E+03 -0.12808424723E+02 -0.23082698122E+02  0.26237860733E+03  0.12508807358E+03 0.  0.
        -24    2    1    2    0    0  0.17743827622E+03 -0.44748816288E+02  0.96522823694E+03  0.98590411514E+03  0.82792369419E+02 0.  0.
        -11    1    3    3    0    0  0.10067129517E+02  0.28353194003E+01 -0.17123256332E+03  0.17155167406E+03  0.00000000000E+00 0.  1.
         12    1    3    3    0    0  0.41620412828E+02  0.54721921611E+02 -0.10136903538E+03  0.12248440228E+03  0.00000000000E+00 0. -1.
         13    1    5    5    0    0  0.16482764609E+03 -0.43036625704E+02  0.95349831575E+03  0.96859658383E+03  0.00000000000E+00 0. -1.
        -14    1    5    5    0    0  0.12610630132E+02 -0.17121905847E+01  0.11729921190E+02  0.17307531310E+02  0.00000000000E+00 0.  1.
          5    1    4    4  501    0 -0.13098133774E+02  0.34110723734E+02  0.11617258659E+02  0.38568584117E+02  0.41800000000E+01 0. -1.
         -5    1    4    4    0  501 -0.21602768480E+03 -0.46919148456E+02 -0.34699956781E+02  0.22381002321E+03  0.41800000000E+01 0. -1.
</event>
<event>
11    1  0.6625361E-009  0.2447751E+03  0.7561462E-02  0.1026720E+00
         22   -1    0    0    0    0  0.00000000000E+00  0.00000000000E+00  0.37981912577E+03  0.37981912577E+03  0.00000000000E+00 0. -1.
         22   -1    0    0    0    0 -0.00000000000E+00 -0.00000000000E+00 -0.57252400444E+03  0.57252400444E+03  0.00000000000E+00 0. -1.
        -24    2    1    2    0    0 -0.20730067703E+03  0.36959875956E+02 -0.43806168257E+03  0.49263803261E+03  0.80340464956E+02 0.  0.
         25    2    1    2    0    0  0.20486972396E+03 -0.44110246588E+02  0.50836838138E+02  0.24929769800E+03  0.12509052909E+03 0.  0.
         24    2    1    2    0    0  0.24309530686E+01  0.71503706314E+01  0.19451996576E+03  0.21040739959E+03  0.79851232876E+02 0.  0.
        -11    1    5    5    0    0  0.19616378792E+02  0.23801455851E+02  0.26417319530E+02  0.40610175926E+02  0.00000000000E+00 0.  1.
         12    1    5    5    0    0 -0.17185425723E+02 -0.16651085220E+02  0.16810264623E+03  0.16979722367E+03  0.00000000000E+00 0. -1.
         11    1    3    3    0    0 -0.66386937628E+02 -0.11371223054E+02 -0.20730630086E+03  0.21797346760E+03  0.00000000000E+00 0. -1.
        -12    1    3    3    0    0 -0.14091373940E+03  0.48331099010E+02 -0.23075538171E+03  0.27466456501E+03  0.00000000000E+00 0.  1.
          5    1    4    4  501    0  0.12259179660E+03  0.14457193022E+02 -0.21007783696E+02  0.12528590663E+03  0.41800000000E+01 0. -1.
         -5    1    4    4    0  501  0.82277927362E+02 -0.58567439610E+02  0.71844621834E+02  0.12401179137E+03  0.41800000000E+01 0. -1.
</event>
<event>
11    1  0.6625361E-009  0.1711002E+03  0.7561462E-02  0.1077078E+00
         22   -1    0    0    0    0  0.00000000000E+00  0.00000000000E+00  0.23537350896E+03  0.23537350896E+03  0.00000000000E+00 0. -1.
         22   -1    0    0    0    0 -0.00000000000E+00 -0.00000000000E+00 -0.37738803190E+03  0.37738803190E+03  0.00000000000E+00 0.  1.
        -24    2    1    2    0    0  0.11277520982E+03 -0.41601438489E+02 -0.90967938516E+02  0.17671054638E+03  0.92209130405E+02 0.  0.
         25    2    1    2    0    0 -0.99545696543E+02  0.57494646841E+02 -0.20193891053E+03  0.26389601099E+03  0.12508717325E+03 0.  0.
         24    2    1    2    0    0 -0.13229513278E+02 -0.15893208352E+02  0.15089232610E+03  0.17215498349E+03  0.80257274885E+02 0.  0.
        -11    1    5    5    0    0 -0.23375676222E+02  0.72112940065E+01  0.61425378710E+01  0.25222128609E+02  0.00000000000E+00 0.  1.
         12    1    5    5    0    0  0.10146162943E+02 -0.23104502359E+02  0.14474978823E+03  0.14693285489E+03  0.00000000000E+00 0. -1.
         13    1    3    3    0    0  0.37782404174E+02  0.24652767678E+02 -0.61470671891E+01  0.45530818732E+02  0.00000000000E+00 0. -1.
        -14    1    3    3    0    0  0.74992805647E+02 -0.66254206167E+02 -0.84820871327E+02  0.13117972765E+03  0.00000000000E+00 0.  1.
          5    1    4    4  501    0 -0.86404988086E+02 -0.21741569600E+02 -0.11351691249E+03  0.14436786220E+03  0.41800000000E+01 0. -1.
         -5    1    4    4    0  501 -0.13140708457E+02  0.79236216441E+02 -0.88421998040E+02  0.11952814879E+03  0.41800000000E+01 0. -1.
</event>
<event>
11    1  0.6625361E-009  0.1425411E+03  0.7561462E-02  0.1104754E+00
         22   -1    0    0    0    0  0.00000000000E+00  0.00000000000E+00  0.24595516411E+03  0.24595516411E+03  0.00000000000E+00 0.  1.
         22   -1    0    0    0    0 -0.00000000000E+00 -0.00000000000E+00 -0.18592384627E+03  0.18592384627E+03  0.00000000000E+00 0.  1.
         24    2    1    2    0    0 -0.46437539067E+02  0.26521616168E+01 -0.79188268988E+02  0.12191529023E+03  0.80181525615E+02 0.  0.
         25    2    1    2    0    0  0.39357449426E+02  0.66203996734E+02  0.16642697963E+02  0.14783926319E+03  0.12508992899E+03 0.  0.
        -24    2    1    2    0    0  0.70800896412E+01 -0.68856158351E+02  0.12257688886E+03  0.16212445697E+03  0.80423551600E+02 0.  0.
        -13    1    3    3    0    0 -0.45682555099E+02 -0.11398582624E+02 -0.60903932699E+01  0.47475429607E+02  0.00000000000E+00 0.  1.
         14    1    3    3    0    0 -0.75498396786E+00  0.14050744240E+02 -0.73097875718E+02  0.74439860619E+02  0.00000000000E+00 0. -1.
         13    1    5    5    0    0 -0.24149236955E+02 -0.18862873155E+02  0.56214958102E+01  0.31154371192E+02  0.00000000000E+00 0. -1.
        -14    1    5    5    0    0  0.31229326597E+02 -0.49993285195E+02  0.11695539305E+03  0.13097008578E+03  0.00000000000E+00 0.  1.
          5    1    4    4  501    0 -0.13094077761E+02 -0.19102144349E+02  0.38623924439E+02  0.45228605220E+02  0.41800000000E+01 0.  1.
         -5    1    4    4    0  501  0.52451527186E+02  0.85306141083E+02 -0.21981226476E+02  0.10261065797E+03  0.41800000000E+01 0.  1.
</event>
<event>
11    1  0.6625361E-009  0.2235415E+03  0.7561462E-02  0.1039021E+00
         22   -1    0    0    0    0  0.00000000000E+00  0.00000000000E+00  0.21907574468E+04  0.21907574468E+04  0.00000000000E+00 0.  1.
         22   -1    0    0    0    0 -0.00000000000E+00 -0.00000000000E+00 -0.14576806665E+04  0.14576806665E+04  0.00000000000E+00 0. -1.
         24    2    1    2    0    0 -0.47724922418E+02 -0.73126324477E+02 -0.13896631533E+04  0.13963595119E+04  0.10502894506E+03 0.  0.
         25    2    1    2    0    0  0.19532216409E+03 -0.39496491840E+02  0.17340887416E+03  0.29227775739E+03  0.12507969129E+03 0.  0.
        -24    2    1    2    0    0 -0.14759724167E+03  0.11262281632E+03  0.19493310595E+04  0.19598008441E+04  0.80367434974E+02 0.  0.
        -11    1    3    3    0    0 -0.33249912333E+01  0.25520662530E+02 -0.17406384012E+03  0.17595618835E+03  0.00000000000E+00 0.  1.
         12    1    3    3    0    0 -0.44399931185E+02 -0.98646987007E+02 -0.12155993131E+04  0.12204033235E+04  0.00000000000E+00 0. -1.
         13    1    5    5    0    0 -0.42036356362E+02  0.19408470605E+02  0.22417715878E+03  0.22890858985E+03  0.00000000000E+00 0. -1.
        -14    1    5    5    0    0 -0.10556088531E+03  0.93214345711E+02  0.17251539007E+04  0.17308922542E+04  0.00000000000E+00 0.  1.
          5    1    4    4  501    0  0.36433690128E+02 -0.60567779295E+02  0.29054374004E+02  0.76534297631E+02  0.41800000000E+01 0.  1.
         -5    1    4    4    0  501  0.15888847396E+03  0.21071287456E+02  0.14435450015E+03  0.21574345976E+03  0.41800000000E+01 0.  1.
</event>
<event>
11    1  0.6625361E-009  0.1308029E+03  0.7561462E-02  0.1118286E+00
         22   -1    0    0    0    0  0.00000000000E+00  0.00000000000E+00  0.10296936937E+04  0.10296936937E+04  0.00000000000E+00 0.  1.
         22   -1    0    0    0    0 -0.00000000000E+00 -0.00000000000E+00 -0.83125676599E+02  0.83125676599E+02  0.00000000000E+00 0. -1.
        -24    2    1    2    0    0 -0.11504082251E+02  0.36464828290E+01  0.12220602899E+02  0.79413303013E+02  0.77533791438E+02 0.  0.
         25    2    1    2    0    0 -0.48416836077E+01  0.31345019794E+02  0.40738726349E+02  0.13532053168E+03  0.12508417287E+03 0.  0.
         24    2    1    2    0    0  0.16345765859E+02 -0.34991502623E+02  0.89360868782E+03  0.89808553557E+03  0.80805649217E+02 0.  0.
        -13    1    5    5    0    0  0.13953174167E+02 -0.61167964986E+02  0.58276955126E+03  0.58613698133E+03  0.00000000000E+00 0.  1.
         14    1    5    5    0    0  0.23925916916E+01  0.26176462364E+02  0.31083913656E+03  0.31194855424E+03  0.00000000000E+00 0. -1.
         11    1    3    3    0    0  0.13817525011E+02  0.35313122937E+02  0.61442424679E+01  0.38414741500E+02  0.00000000000E+00 0. -1.
        -12    1    3    3    0    0 -0.25321607262E+02 -0.31666640108E+02  0.60763604309E+01  0.40998561513E+02  0.00000000000E+00 0.  1.
          5    1    4    4  501    0  0.57696857036E+02  0.27834964638E+02  0.85206551655E+01  0.64759451300E+02  0.41800000000E+01 0.  1.
         -5    1    4    4    0  501 -0.62538540644E+02  0.35100551556E+01  0.32218071184E+02  0.70561080376E+02  0.41800000000E+01 0.  1.
</event>
<event>
11    1  0.6625361E-009  0.1514876E+03  0.7561462E-02  0.1095368E+00
         22   -1    0    0    0    0  0.00000000000E+00  0.00000000000E+00  0.22109287052E+03  0.22109287052E+03  0.00000000000E+00 0. -1.
         22   -1    0    0    0    0 -0.00000000000E+00 -0.00000000000E+00 -0.12465662849E+04  0.12465662849E+04  0.00000000000E+00 0. -1.
        -24    2    1    2    0    0 -0.27434434336E+02  0.21681925936E+02 -0.11381363542E+04  0.11416040968E+04  0.81748388396E+02 0.  0.
         25    2    1    2    0    0  0.10305409361E+03 -0.43415569945E+02 -0.12145407433E+01  0.16778626937E+03  0.12508276923E+03 0.  0.
         24    2    1    2    0    0 -0.75619659272E+02  0.21733644009E+02  0.11387748058E+03  0.15826878922E+03  0.76747930974E+02 0.  0.
        -13    1    5    5    0    0 -0.76152395021E+01  0.25156182465E+02  0.82726632641E+00  0.26296573131E+02  0.00000000000E+00 0.  1.
         14    1    5    5    0    0 -0.68004419770E+02 -0.34225384560E+01  0.11305021425E+03  0.13197221609E+03  0.00000000000E+00 0. -1.
         13    1    3    3    0    0  0.10577026877E+02  0.35912991306E+02 -0.27786302485E+03  0.28037381658E+03  0.00000000000E+00 0. -1.
        -14    1    3    3    0    0 -0.38011461213E+02 -0.14231065370E+02 -0.86027332937E+03  0.86123028025E+03  0.00000000000E+00 0.  1.
          5    1    4    4  501    0  0.11888897395E+03 -0.35202687009E+02 -0.35389120419E+02  0.12901038541E+03  0.41800000000E+01 0.  1.
         -5    1    4    4    0  501 -0.15834880338E+02 -0.82128829357E+01  0.34174579676E+02  0.38775883967E+02  0.41800000000E+01 0.  1.
</event>
<event>
11    1  0.6625361E-009  0.2004092E+03  0.7561462E-02  0.1054235E+00
         22   -1    0    0    0    0  0.00000000000E+00  0.00000000000E+00  0.85262982711E+03  0.85262982711E+03  0.00000000000E+00 0.  1.
         22   -1    0    0    0    0 -0.00000000000E+00 -0.00000000000E+00 -0.33946633148E+03  0.33946633148E+03  0.00000000000E+00 0.  1.
         24    2    1    2    0    0 -0.58608208426E+02  0.14299101139E+03 -0.18382898743E+03  0.25339321718E+03  0.80831147849E+02 0.  0.
         25    2    1    2    0    0  0.78418387634E+02 -0.14245777004E+03 -0.29758754895E+02  0.20729162922E+03  0.12506228963E+03 0.  0.
        -24    2    1    2    0    0 -0.19810179208E+02 -0.53324134229E+00  0.72675123795E+03  0.73141131219E+03  0.80015112237E+02 0.  0.
        -13    1    3    3    0    0 -0.31256421519E+02  0.13115776192E+03 -0.17754106891E+03  0.22293531247E+03  0.00000000000E+00 0.  1.
         14    1    3    3    0    0 -0.27351786907E+02  0.11833249470E+02 -0.62879185177E+01  0.30457904710E+02  0.00000000000E+00 0. -1.
         13    1    5    5    0    0 -0.30377465083E+02  0.32018594767E+02  0.51761409369E+03  0.51949237798E+03  0.00000000000E+00 0. -1.
        -14    1    5    5    0    0  0.10567285875E+02 -0.32551836110E+02  0.20913714426E+03  0.21191893421E+03  0.00000000000E+00 0.  1.
          5    1    4    4  501    0  0.41828807554E+02 -0.15672250310E+03 -0.38666637222E+02  0.16680579532E+03  0.41800000000E+01 0. -1.
         -5    1    4    4    0  501  0.36589580080E+02  0.14264733052E+02  0.89078823272E+01  0.40485833905E+02  0.41800000000E+01 0. -1.
</event>
<event>
11    1  0.6625361E-009  0.1332655E+03  0.7561462E-02  0.1115321E+00
         22   -1    0    0    0    0  0.00000000000E+00  0.00000000000E+00  0.56741990098E+03  0.56741990098E+03  0.00000000000E+00 0. -1.
         22   -1    0    0    0    0 -0.00000000000E+00 -0.00000000000E+00 -0.37089680023E+03  0.37089680023E+03  0.00000000000E+00 0.  1.
        -24    2    1    2    0    0  0.16891227964E+02 -0.19084282222E+02 -0.33730782415E+03  0.34818437154E+03  0.82500090574E+02 0.  0.
         25    2    1    2    0    0  0.32648665878E+02  0.18185509565E+02  0.17158766503E+03  0.21560469937E+03  0.12508561651E+03 0.  0.
         24    2    1    2    0    0 -0.49539893842E+02  0.89877265700E+00  0.36224325987E+03  0.37452763031E+03  0.81214270122E+02 0.  0.
        -11    1    5    5    0    0 -0.33220120896E+01 -0.31157600588E+02  0.20803792055E+03  0.21038442962E+03  0.00000000000E+00 0.  1.
         12    1    5    5    0    0 -0.46217881753E+02  0.32056373245E+02  0.15420533932E+03  0.16414320069E+03  0.00000000000E+00 0. -1.
         13    1    3    3    0    0  0.27445709859E+02 -0.36259155977E+02 -0.98089717445E+02  0.10811838905E+03  0.00000000000E+00 0. -1.
        -14    1    3    3    0    0 -0.10554481895E+02  0.17174873755E+02 -0.23921810670E+03  0.24006598249E+03  0.00000000000E+00 0.  1.
          5    1    4    4  501    0  0.95691971925E+01  0.28858282045E+02  0.18432304129E+03  0.18686044506E+03  0.41800000000E+01 0.  1.
         -5    1    4    4    0  501  0.23079468686E+02 -0.10672772480E+02 -0.12735376261E+02  0.28744254308E+02  0.41800000000E+01 0.  1.
</event>
<event>
11    1  0.6625361E-009  0.1499776E+03  0.7561462E-02  0.1096902E+00
         22   -1    0    0    0    0  0.00000000000E+00  0.00000000000E+00  0.46240031909E+03  0.46240031909E+03  0.00000000000E+00 0.  1.
         22   -1    0    0    0    0 -0.00000000000E+00 -0.00000000000E+00 -0.36215276453E+03  0.36215276453E+03  0.00000000000E+00 0. -1.
        -24    2    1    2    0    0 -0.80252472525E+02  0.42606515656E+01 -0.17881506923E+03  0.21261130168E+03  0.82280763990E+02 0.  0.
         25    2    1    2    0    0  0.87611317516E+02  0.30643277148E+02 -0.12417798549E+03  0.19917906021E+03  0.12504948041E+03 0.  0.
         24    2    1    2    0    0 -0.73588449911E+01 -0.34903928714E+02  0.40324060928E+03  0.41276272174E+03  0.80607931619E+02 0.  0.
        -11    1    5    5    0    0 -0.43628795308E+02 -0.17325033965E+02  0.24597645986E+03  0.25041574908E+03  0.00000000000E+00 0.  1.
         12    1    5    5    0    0  0.36269950317E+02 -0.17578894749E+02  0.15726414942E+03  0.16234697265E+03  0.00000000000E+00 0. -1.
         13    1    3    3    0    0 -0.33398405171E+02 -0.81312276892E+01 -0.15470987607E+03  0.15848254190E+03  0.00000000000E+00 0. -1.
        -14    1    3    3    0    0 -0.46854067354E+02  0.12391879255E+02 -0.24105193154E+02  0.54128759787E+02  0.00000000000E+00 0.  1.
          5    1    4    4  501    0  0.10274960750E+03  0.19820699787E+02 -0.38779408951E+02  0.11167657293E+03  0.41800000000E+01 0.  1.
         -5    1    4    4    0  501 -0.15138289987E+02  0.10822577361E+02 -0.85398576544E+02  0.87502487280E+02  0.41800000000E+01 0.  1.
</event>
<event>
11    1  0.6625361E-009  0.1394183E+03  0.7561462E-02  0.1108210E+00
         22   -1    0    0    0    0  0.00000000000E+00  0.00000000000E+00  0.35130410458E+03  0.35130410458E+03  0.00000000000E+00 0. -1.
         22   -1    0    0    0    0 -0.00000000000E+00 -0.00000000000E+00 -0.16500302610E+04  0.16500302610E+04  0.00000000000E+00 0.  1.
         24    2    1    2    0    0 -0.64289383202E+02  0.41462239348E+02 -0.16014597780E+04  0.16052270452E+04  0.78918970021E+02 0.  0.
         25    2    1    2    0    0  0.38063229828E+02  0.34902517173E+02  0.12294348899E+03  0.18283253731E+03  0.12508253293E+03 0.  0.
        -24    2    1    2    0    0  0.26226153374E+02 -0.76364756521E+02  0.17979013264E+03  0.21327478307E+03  0.81500025394E+02 0.  0.
        -11    1    3    3    0    0 -0.82576038030E+02  0.28761698623E+02 -0.12352218603E+04  0.12383129982E+04  0.00000000000E+00 0.  1.
         12    1    3    3    0    0  0.18286654828E+02  0.12700540725E+02 -0.36623791778E+03  0.36691404702E+03  0.00000000000E+00 0. -1.
         13    1    5    5    0    0 -0.80677933369E+01 -0.14671319833E+02  0.11884892452E+03  0.12002251362E+03  0.00000000000E+00 0. -1.
        -14    1    5    5    0    0  0.34293946711E+02 -0.61693436688E+02  0.60941208125E+02  0.93252269458E+02  0.00000000000E+00 0.  1.
          5    1    4    4  501    0  0.88046918309E+01 -0.46889162807E+02  0.51030372578E+02  0.69983480282E+02  0.41800000000E+01 0.  1.
         -5    1    4    4    0  501  0.29258537997E+02  0.81791679979E+02  0.71913116412E+02  0.11284905703E+03  0.41800000000E+01 0.  1.
</event>
<event>
11    1  0.6625361E-009  0.1698043E+03  0.7561462E-02  0.1078202E+00
         22   -1    0    0    0    0  0.00000000000E+00  0.00000000000E+00  0.16822268499E+03  0.16822268499E+03  0.00000000000E+00 0.  1.
         22   -1    0    0    0    0 -0.00000000000E+00 -0.00000000000E+00 -0.78057917372E+03  0.78057917372E+03  0.00000000000E+00 0.  1.
         24    2    1    2    0    0  0.11187619273E+03 -0.47006919360E+02 -0.64103807977E+03  0.65724152853E+03  0.79439751659E+02 0.  0.
         25    2    1    2    0    0 -0.74890815042E+02  0.18152120825E+02 -0.64312855456E+02  0.16038048714E+03  0.12509046171E+03 0.  0.
        -24    2    1    2    0    0 -0.36985377689E+02  0.28854798535E+02  0.92994446493E+02  0.13117984304E+03  0.79747517703E+02 0.  0.
        -11    1    3    3    0    0  0.30876660649E+02 -0.47940721896E+02 -0.17053510537E+03  0.17981630391E+03  0.00000000000E+00 0.  1.
         12    1    3    3    0    0  0.80999532082E+02  0.93380253527E+00 -0.47050297440E+03  0.47742522462E+03  0.00000000000E+00 0. -1.
         13    1    5    5    0    0 -0.20113710343E+02 -0.20811781083E+02  0.59436933447E+01  0.29546896050E+02  0.00000000000E+00 0. -1.
        -14    1    5    5    0    0 -0.16871667346E+02  0.49666579618E+02  0.87050753148E+02  0.10163294699E+03  0.00000000000E+00 0.  1.
          5    1    4    4  501    0 -0.71364147891E+02 -0.12823949979E+00  0.19761810716E+02  0.74167780150E+02  0.41800000000E+01 0.  1.
         -5    1    4    4    0  501 -0.35266671512E+01  0.18280360325E+02 -0.84074666172E+02  0.86212706991E+02  0.41800000000E+01 0.  1.
</event>
<event>
11    1  0.6625361E-009  0.1328000E+03  0.7561462E-02  0.1115876E+00
         22   -1    0    0    0    0  0.00000000000E+00  0.00000000000E+00  0.29243638047E+02  0.29243638047E+02  0.00000000000E+00 0. -1.
         22   -1    0    0    0    0 -0.00000000000E+00 -0.00000000000E+00 -0.23041941260E+04  0.23041941260E+04  0.00000000000E+00 0. -1.
         24    2    1    2    0    0  0.29154718416E+02  0.24920684296E+02 -0.18419282457E+04  0.18441060074E+04  0.80970773318E+02 0.  0.
         25    2    1    2    0    0  0.68344781141E+00  0.26521758882E+02 -0.25216766061E+03  0.28273647685E+03  0.12509002953E+03 0.  0.
        -24    2    1    2    0    0 -0.29838166228E+02 -0.51442443178E+02 -0.18085458160E+03  0.20659527975E+03  0.80228354117E+02 0.  0.
        -13    1    3    3    0    0  0.43801829265E+02 -0.10273077935E+02 -0.64308157260E+03  0.64465343046E+03  0.00000000000E+00 0.  1.
         14    1    3    3    0    0 -0.14647110848E+02  0.35193762231E+02 -0.11988466731E+04  0.11994525769E+04  0.00000000000E+00 0. -1.
         11    1    5    5    0    0 -0.29632924192E+02 -0.65354357294E+02 -0.92090766897E+02  0.11674764049E+03  0.00000000000E+00 0. -1.
        -12    1    5    5    0    0 -0.20524203610E+00  0.13911914116E+02 -0.88763814702E+02  0.89847639252E+02  0.00000000000E+00 0.  1.
          5    1    4    4  501    0  0.36117185107E+01 -0.40593885639E+02 -0.30499728064E+02  0.51074591275E+02  0.41800000000E+01 0.  1.
         -5    1    4    4    0  501 -0.29282706992E+01  0.67115644521E+02 -0.22166793255E+03  0.23166188558E+03  0.41800000000E+01 0.  1.
</event>
<event>
11    1  0.6625361E-009  0.1398893E+03  0.7561462E-02  0.1107682E+00
         22   -1    0    0    0    0  0.00000000000E+00  0.00000000000E+00  0.80622268238E+03  0.80622268238E+03  0.00000000000E+00 0.  1.
         22   -1    0    0    0    0 -0.00000000000E+00 -0.00000000000E+00 -0.26731815669E+03  0.26731815669E+03  0.00000000000E+00 0. -1.
         24    2    1    2    0    0  0.60006345006E+02  0.14144414156E+02 -0.23269473557E+03  0.25336844159E+03  0.79043667302E+02 0.  0.
         25    2    1    2    0    0 -0.85301040621E+02 -0.25741556010E+02  0.26121596320E+03  0.30301981151E+03  0.12509329117E+03 0.  0.
        -24    2    1    2    0    0  0.25294695614E+02  0.11597141854E+02  0.51038329805E+03  0.51715258597E+03  0.78621695005E+02 0.  0.
        -11    1    3    3    0    0  0.12814428462E+02 -0.23676000185E+02 -0.23927139500E+02  0.36017642430E+02  0.00000000000E+00 0.  1.
         12    1    3    3    0    0  0.47191916544E+02  0.37820414341E+02 -0.20876759607E+03  0.21735079916E+03  0.00000000000E+00 0. -1.
         13    1    5    5    0    0  0.98037963930E+01  0.27022719668E+02  0.63145446327E+02  0.69380755212E+02  0.00000000000E+00 0. -1.
        -14    1    5    5    0    0  0.15490899221E+02 -0.15425577814E+02  0.44723785172E+03  0.44777183076E+03  0.00000000000E+00 0.  1.
          5    1    4    4  501    0 -0.85505477125E+02  0.28343452285E+02  0.20944591500E+03  0.22803421150E+03  0.41800000000E+01 0. -1.
         -5    1    4    4    0  501  0.20443650411E+00 -0.54085008295E+02  0.51770048207E+02  0.74985600004E+02  0.41800000000E+01 0. -1.
</event>
<event>
11    1  0.6625361E-009  0.1327459E+03  0.7561462E-02  0.1115940E+00
         22   -1    0    0    0    0  0.00000000000E+00  0.00000000000E+00  0.78357342205E+03  0.78357342205E+03  0.00000000000E+00 0.  1.
         22   -1    0    0    0    0 -0.00000000000E+00 -0.00000000000E+00 -0.28799852705E+03  0.28799852705E+03  0.00000000000E+00 0. -1.
        -24    2    1    2    0    0  0.18507915831E+02  0.29109230994E+02 -0.14927262528E+03  0.17370268036E+03  0.81856057983E+02 0.  0.
         25    2    1    2    0    0 -0.47109266698E+02 -0.62054992406E+02 -0.79721512152E+02  0.16755730857E+03  0.12509926884E+03 0.  0.
         24    2    1    2    0    0  0.28601350867E+02  0.32945761413E+02  0.72456903243E+03  0.73031196018E+03  0.80323196908E+02 0.  0.
        -13    1    5    5    0    0  0.45611246724E+02 -0.77926049068E+01  0.42414912163E+03  0.42666566290E+03  0.00000000000E+00 0.  1.
         14    1    5    5    0    0 -0.17009895857E+02  0.40738366319E+02  0.30041991080E+03  0.30364629728E+03  0.00000000000E+00 0. -1.
         11    1    3    3    0    0 -0.48229392024E+01  0.25738896170E+01 -0.13576547058E+03  0.13587548952E+03  0.00000000000E+00 0. -1.
        -12    1    3    3    0    0  0.23330855033E+02  0.26535341377E+02 -0.13507154695E+02  0.37827190836E+02  0.00000000000E+00 0.  1.
          5    1    4    4  501    0  0.22723143573E+01 -0.76698946368E+02 -0.86194912329E+02  0.11547695484E+03  0.41800000000E+01 0. -1.
         -5    1    4    4    0  501 -0.49381581055E+02  0.14643953962E+02  0.64734001769E+01  0.52080353734E+02  0.41800000000E+01 0. -1.
</event>
<event>
11    1  0.6625361E-009  0.2537657E+03  0.7561462E-02  0.1021912E+00
         22   -1    0    0    0    0  0.00000000000E+00  0.00000000000E+00  0.12189634333E+04  0.12189634333E+04  0.00000000000E+00 0. -1.
         22   -1    0    0    0    0 -0.00000000000E+00 -0.00000000000E+00 -0.19343640822E+04  0.19343640822E+04  0.00000000000E+00 0.  1.
         24    2    1    2    0    0 -0.82798693688E+02  0.33186464389E+00 -0.18098992767E+04  0.18135437914E+04  0.79686622336E+02 0.  0.
         25    2    1    2    0    0 -0.32353913290E+02  0.19301130686E+03  0.12418628618E+02  0.23259979260E+03  0.12509316887E+03 0.  0.
        -24    2    1    2    0    0  0.11515260698E+03 -0.19334317150E+03  0.10820799992E+04  0.11071839316E+04  0.65707144768E+02 0.  0.
        -13    1    3    3    0    0 -0.67406173294E+02  0.35443275856E+02 -0.11283392688E+04  0.11309064168E+04  0.00000000000E+00 0.  1.
         14    1    3    3    0    0 -0.15392520394E+02 -0.35111411212E+02 -0.68156000784E+03  0.68263737458E+03  0.00000000000E+00 0. -1.
         11    1    5    5    0    0  0.65580552573E+02 -0.15755341494E+03  0.86412508326E+03  0.88081555785E+03  0.00000000000E+00 0. -1.
        -12    1    5    5    0    0  0.49572054405E+02 -0.35789756565E+02  0.21795491592E+03  0.22636837373E+03  0.00000000000E+00 0.  1.
          5    1    4    4  501    0 -0.22670033399E+02  0.81012704745E+02 -0.55801907974E+02  0.10103620182E+03  0.41800000000E+01 0.  1.
         -5    1    4    4    0  501 -0.96838798902E+01  0.11199860212E+03  0.68220536591E+02  0.13156359078E+03  0.41800000000E+01 0.  1.
</event>
<event>
11    1  0.6625361E-009  0.1521396E+03  0.7561462E-02  0.1094712E+00
         22   -1    0    0    0    0  0.00000000000E+00  0.00000000000E+00  0.13417286304E+04  0.13417286304E+04  0.00000000000E+00 0. -1.
         22   -1    0    0    0    0 -0.00000000000E+00 -0.00000000000E+00 -0.19197273437E+03  0.19197273437E+03  0.00000000000E+00 0.  1.
        -24    2    1    2    0    0 -0.11128178142E+02  0.16867725763E+02 -0.15119199110E+03  0.17280431118E+03  0.81203172767E+02 0.  0.
         25    2    1    2    0    0 -0.29576066150E+02  0.61757502236E+02  0.16061244096E+03  0.21478353098E+03  0.12508747426E+03 0.  0.
         24    2    1    2    0    0  0.40704244293E+02 -0.78625227999E+02  0.11403354462E+04  0.11461135226E+04  0.73297441784E+02 0.  0.
        -13    1    5    5    0    0 -0.10244222776E+01 -0.95056731880E+01  0.57116611133E+03  0.57124612383E+03  0.00000000000E+00 0.  1.
         14    1    5    5    0    0  0.41728666570E+02 -0.69119554811E+02  0.56916933486E+03  0.57486739881E+03  0.00000000000E+00 0. -1.
         11    1    3    3    0    0  0.22334554540E+02 -0.12967951801E+02 -0.16019729934E+02  0.30391312041E+02  0.00000000000E+00 0. -1.
        -12    1    3    3    0    0 -0.33462732682E+02  0.29835677565E+02 -0.13517226116E+03  0.14241299913E+03  0.00000000000E+00 0.  1.
          5    1    4    4  501    0 -0.53459209208E+02  0.64198808707E+02  0.16936136959E+03  0.18889182088E+03  0.41800000000E+01 0. -1.
         -5    1    4    4    0  501  0.23883143057E+02 -0.24413064715E+01 -0.87489286241E+01  0.25891710095E+02  0.41800000000E+01 0. -1.
</event>
<event>
11    1  0.6625361E-009  0.1455114E+03  0.7561462E-02  0.1101555E+00
         22   -1    0    0    0    0  0.00000000000E+00  0.00000000000E+00  0.10807017221E+03  0.10807017221E+03  0.00000000000E+00 0. -1.
         22   -1    0    0    0    0 -0.00000000000E+00 -0.00000000000E+00 -0.82715291067E+03  0.82715291067E+03  0.00000000000E+00 0. -1.
        -24    2    1    2    0    0  0.67741687732E+02  0.30481064983E+02 -0.45079237424E+03  0.46381039367E+03  0.79926747903E+02 0.  0.
         25    2    1    2    0    0 -0.21203453802E+02  0.35356004874E+02 -0.31994710035E+03  0.34599581683E+03  0.12508926694E+03 0.  0.
         24    2    1    2    0    0 -0.46538233929E+02 -0.65837069857E+02  0.51656736123E+02  0.12541687238E+03  0.80997817911E+02 0.  0.
        -13    1    5    5    0    0  0.12931912131E+02  0.42121394845E+01 -0.80777218864E+01  0.15818535371E+02  0.00000000000E+00 0.  1.
         14    1    5    5    0    0 -0.59470146060E+02 -0.70049209342E+02  0.59734458010E+02  0.10959833701E+03  0.00000000000E+00 0. -1.
         11    1    3    3    0    0  0.24972057559E+02  0.35830107152E+02 -0.36692633218E+03  0.36951635077E+03  0.00000000000E+00 0. -1.
        -12    1    3    3    0    0  0.42769630173E+02 -0.53490421692E+01 -0.83866042054E+02  0.94294042903E+02  0.00000000000E+00 0.  1.
          5    1    4    4  501    0 -0.27890192281E+02 -0.13177699980E+02 -0.28244816559E+03  0.28415832426E+03  0.41800000000E+01 0. -1.
         -5    1    4    4    0  501  0.66867384788E+01  0.48533704854E+02 -0.37498934766E+02  0.61837492567E+02  0.41800000000E+01 0. -1.
</event>
<event>
11    1  0.6625361E-009  0.1403117E+03  0.7561462E-02  0.1107211E+00
         22   -1    0    0    0    0  0.00000000000E+00  0.00000000000E+00  0.49714246791E+03  0.49714246791E+03  0.00000000000E+00 0.  1.
         22   -1    0    0    0    0 -0.00000000000E+00 -0.00000000000E+00 -0.30148985574E+03  0.30148985574E+03  0.00000000000E+00 0.  1.
        -24    2    1    2    0    0  0.58848371111E+02  0.12487353548E+02 -0.20725446849E+03  0.23065915903E+03  0.81425844524E+02 0.  0.
         25    2    1    2    0    0 -0.81072987850E+02 -0.26401836462E+02 -0.50930602100E+01  0.15146803843E+03  0.12508693407E+03 0.  0.
         24    2    1    2    0    0  0.22224616739E+02  0.13914482914E+02  0.40800014087E+03  0.41650512618E+03  0.79528980657E+02 0.  0.
        -13    1    5    5    0    0  0.80723274631E+01  0.10279895647E+02  0.39927059724E+03  0.39948447848E+03  0.00000000000E+00 0.  1.
         14    1    5    5    0    0  0.14152289276E+02  0.36345872671E+01  0.87295436302E+01  0.17020647706E+02  0.00000000000E+00 0. -1.
         11    1    3    3    0    0  0.42967440861E+02  0.46664177239E+02 -0.12454031507E+03  0.13976421748E+03  0.00000000000E+00 0. -1.
        -12    1    3    3    0    0  0.15880930250E+02 -0.34176823691E+02 -0.82714153422E+02  0.90894941551E+02  0.00000000000E+00 0.  1.
          5    1    4    4  501    0 -0.91589192512E+01 -0.18386258367E+02  0.54016344048E+02  0.57941160869E+02  0.41800000000E+01 0.  1.
         -5    1    4    4    0  501 -0.71914068599E+02 -0.80155780950E+01 -0.59109404258E+02  0.93526877561E+02  0.41800000000E+01 0.  1.
</event>
<event>
11    1  0.6625361E-009  0.1342621E+03  0.7561462E-02  0.1114140E+00
         22   -1    0    0    0    0  0.00000000000E+00  0.00000000000E+00  0.14814524215E+03  0.14814524215E+03  0.00000000000E+00 0. -1.
         22   -1    0    0    0    0 -0.00000000000E+00 -0.00000000000E+00 -0.31572289423E+04  0.31572289423E+04  0.00000000000E+00 0.  1.
        -24    2    1    2    0    0 -0.42353062141E+01 -0.15319943356E+02 -0.19516154480E+04  0.19533180688E+04  0.79974886324E+02 0.  0.
         25    2    1    2    0    0  0.52945231231E+02  0.13840276306E+02 -0.11857977150E+04  0.11936321956E+04  0.12508735651E+03 0.  0.
         24    2    1    2    0    0 -0.48709925017E+02  0.14796670498E+01  0.12832946281E+03  0.15842392010E+03  0.79087554167E+02 0.  0.
        -13    1    5    5    0    0 -0.12448726171E+02  0.37040084891E+02  0.36426721563E+02  0.53421388187E+02  0.00000000000E+00 0.  1.
         14    1    5    5    0    0 -0.36261198846E+02 -0.35560417841E+02  0.91902741250E+02  0.10500253191E+03  0.00000000000E+00 0. -1.
         11    1    3    3    0    0  0.42883325834E+01 -0.86470532689E-01 -0.48507440910E+01  0.64751055385E+01  0.00000000000E+00 0. -1.
        -12    1    3    3    0    0 -0.85236387975E+01 -0.15233472823E+02 -0.19467647039E+04  0.19468429632E+04  0.00000000000E+00 0.  1.
          5    1    4    4  501    0  0.56232449517E+02 -0.36825486812E+02 -0.95048804828E+03  0.95287103387E+03  0.41800000000E+01 0.  1.
         -5    1    4    4    0  501 -0.32872182854E+01  0.50665763119E+02 -0.23530966670E+03  0.24076116173E+03  0.41800000000E+01 0.  1.
</event>
<event>
11    1  0.6625361E-009  0.1448501E+03  0.7561462E-02  0.1102260E+00
         22   -1    0    0    0    0  0.00000000000E+00  0.00000000000E+00  0.17400806389E+03  0.17400806389E+03  0.00000000000E+00 0. -1.
         22   -1    0    0    0    0 -0.00000000000E+00 -0.00000000000E+00 -0.72680080553E+03  0.72680080553E+03  0.00000000000E+00 0. -1.
        -24    2    1    2    0    0 -0.29928489493E+02  0.72319147866E+02 -0.49950822879E+03  0.51165536620E+03  0.78466359066E+02 0.  0.
         25    2    1    2    0    0  0.26322155532E+02 -0.47384890007E+02 -0.18705610248E+03  0.23146413049E+03  0.12508986592E+03 0.  0.
         24    2    1    2    0    0  0.36063339617E+01 -0.24934257860E+02  0.13377158964E+03  0.15768937273E+03  0.79601364413E+02 0.  0.
        -11    1    5    5    0    0 -0.17941886353E+01 -0.35073066834E+02  0.14710551576E+02  0.38075444287E+02  0.00000000000E+00 0.  1.
         12    1    5    5    0    0  0.54005225970E+01  0.10138808974E+02  0.11906103806E+03  0.11961392844E+03  0.00000000000E+00 0. -1.
         11    1    3    3    0    0 -0.18046198715E+02  0.88063387731E+02 -0.43532904518E+03  0.44451344538E+03  0.00000000000E+00 0. -1.
        -12    1    3    3    0    0 -0.11882290779E+02 -0.15744239864E+02 -0.64179183607E+02  0.67141920821E+02  0.00000000000E+00 0.  1.
          5    1    4    4  501    0  0.20669160492E+02  0.11724671560E+02  0.96217191809E+01  0.25975603913E+02  0.41800000000E+01 0.  1.
         -5    1    4    4    0  501  0.56529950394E+01 -0.59109561567E+02 -0.19667782167E+03  0.20548852658E+03  0.41800000000E+01 0.  1.
</event>
<event>
11    1  0.6625361E-009  0.1279812E+03  0.7561462E-02  0.1121775E+00
         22   -1    0    0    0    0  0.00000000000E+00  0.00000000000E+00  0.10309727400E+03  0.10309727400E+03  0.00000000000E+00 0.  1.
         22   -1    0    0    0    0 -0.00000000000E+00 -0.00000000000E+00 -0.37886911262E+03  0.37886911262E+03  0.00000000000E+00 0. -1.
        -24    2    1    2    0    0  0.27801353937E+00 -0.10779488968E+02 -0.24349813315E+03  0.25667789420E+03  0.80473137447E+02 0.  0.
         25    2    1    2    0    0  0.25125571928E+02  0.17403193843E+02 -0.50668164095E+02  0.13837971446E+03  0.12509003557E+03 0.  0.
         24    2    1    2    0    0 -0.25403585468E+02 -0.66237048751E+01  0.18394458630E+02  0.86908777957E+02  0.80780962837E+02 0.  0.
        -13    1    5    5    0    0 -0.25701058329E+02 -0.42137623514E+02  0.12404861361E+02  0.50892084847E+02  0.00000000000E+00 0.  1.
         14    1    5    5    0    0  0.29747286167E+00  0.35513918639E+02  0.59895972687E+01  0.36016693111E+02  0.00000000000E+00 0. -1.
         13    1    3    3    0    0 -0.15552525319E+01  0.57102556519E+01 -0.23955022251E+03  0.23962331885E+03  0.00000000000E+00 0. -1.
        -14    1    3    3    0    0  0.18332660712E+01 -0.16489744620E+02 -0.39479106388E+01  0.17054575355E+02  0.00000000000E+00 0.  1.
          5    1    4    4  501    0 -0.26645142723E+02 -0.20011717365E+02 -0.64655078889E+02  0.72857285763E+02  0.41800000000E+01 0. -1.
         -5    1    4    4    0  501  0.51770714652E+02  0.37414911209E+02  0.13986914794E+02  0.65522428692E+02  0.41800000000E+01 0. -1.
</event>
<event>
11    1  0.6625361E-009  0.1657348E+03  0.7561462E-02  0.1081804E+00
         22   -1    0    0    0    0  0.00000000000E+00  0.00000000000E+00  0.30909016376E+03  0.30909016376E+03  0.00000000000E+00 0.  1.
         22   -1    0    0    0    0 -0.00000000000E+00 -0.00000000000E+00 -0.56442770782E+03  0.56442770782E+03  0.00000000000E+00 0. -1.
        -24    2    1    2    0    0 -0.85004632692E+02 -0.61222814325E+02 -0.44922582007E+03  0.46831347219E+03  0.80868103968E+02 0.  0.
         25    2    1    2    0    0  0.12865186430E+03  0.79796997739E+02  0.72853024048E+01  0.19651772330E+03  0.12508907588E+03 0.  0.
         24    2    1    2    0    0 -0.43647231606E+02 -0.18574183414E+02  0.18660297361E+03  0.20868667609E+03  0.80494583047E+02 0.  0.
        -11    1    5    5    0    0 -0.36052359337E+02 -0.43749050212E+01  0.18895464314E+03  0.19241301820E+03  0.00000000000E+00 0.  1.
         12    1    5    5    0    0 -0.75948722695E+01 -0.14199278393E+02 -0.23516695264E+01  0.16273657893E+02  0.00000000000E+00 0. -1.
         11    1    3    3    0    0 -0.83181079554E+02 -0.52258682954E+02 -0.24609816706E+03  0.26497994220E+03  0.00000000000E+00 0. -1.
        -12    1    3    3    0    0 -0.18235531388E+01 -0.89641313713E+01 -0.20312765302E+03  0.20333352999E+03  0.00000000000E+00 0.  1.
          5    1    4    4  501    0  0.82532515160E+02 -0.63454067914E+01  0.41774199778E+02  0.92813988241E+02  0.41800000000E+01 0. -1.
         -5    1    4    4    0  501  0.46119349138E+02  0.86142404531E+02 -0.34488897374E+02  0.10370373506E+03  0.41800000000E+01 0. -1.
</event>
<event>
11    1  0.6625361E-009  0.1792805E+03  0.7561462E-02  0.1070226E+00
         22   -1    0    0    0    0  0.00000000000E+00  0.00000000000E+00  0.55083824403E+03  0.55083824403E+03  0.00000000000E+00 0. -1.
         22   -1    0    0    0    0 -0.00000000000E+00 -0.00000000000E+00 -0.29319908423E+03  0.29319908423E+03  0.00000000000E+00 0. -1.
         24    2    1    2    0    0 -0.19447935368E+02  0.12905899835E+03 -0.17586698574E+03  0.23261791699E+03  0.78405684647E+02 0.  0.
         25    2    1    2    0    0  0.11428214063E+03 -0.96332198888E+02  0.42428754753E+02  0.19947028030E+03  0.12509153962E+03 0.  0.
        -24    2    1    2    0    0 -0.94834205263E+02 -0.32726799458E+02  0.39107739079E+03  0.41194913097E+03  0.81829035385E+02 0.  0.
        -11    1    3    3    0    0 -0.12904174954E+02  0.25760373444E+02 -0.30247747405E+00  0.28813296650E+02  0.00000000000E+00 0.  1.
         12    1    3    3    0    0 -0.65437604141E+01  0.10329862490E+03 -0.17556450827E+03  0.20380462034E+03  0.00000000000E+00 0. -1.
         13    1    5    5    0    0 -0.82532472240E+02 -0.51993461931E+02  0.36227822829E+03  0.37518054820E+03  0.00000000000E+00 0. -1.
        -14    1    5    5    0    0 -0.12301733023E+02  0.19266662474E+02  0.28799162505E+02  0.36768582774E+02  0.00000000000E+00 0.  1.
          5    1    4    4  501    0  0.12210950557E+03 -0.48336099497E+02 -0.48947180162E+01  0.13148589479E+03  0.41800000000E+01 0.  1.
         -5    1    4    4    0  501 -0.78273649346E+01 -0.47996099391E+02  0.47323472769E+02  0.67984385513E+02  0.41800000000E+01 0.  1.
</event>
<event>
11    1  0.6625361E-009  0.1711273E+03  0.7561462E-02  0.1077055E+00
         22   -1    0    0    0    0  0.00000000000E+00  0.00000000000E+00  0.23647936546E+03  0.23647936546E+03  0.00000000000E+00 0.  1.
         22   -1    0    0    0    0 -0.00000000000E+00 -0.00000000000E+00 -0.35996305632E+03  0.35996305632E+03  0.00000000000E+00 0. -1.
         24    2    1    2    0    0 -0.11607974314E+03 -0.24488431835E+02 -0.19411816802E+03  0.24191833645E+03  0.82270458198E+02 0.  0.
         25    2    1    2    0    0  0.11781313204E+03 -0.38251230053E+02 -0.62325246043E+02  0.18675003655E+03  0.12509216273E+03 0.  0.
        -24    2    1    2    0    0 -0.17333888913E+01  0.62739661888E+02  0.13295972320E+03  0.16777404879E+03  0.80811964726E+02 0.  0.
        -11    1    3    3    0    0 -0.13591377088E+02 -0.35050785690E+01  0.66481305910E+01  0.15530896538E+02  0.00000000000E+00 0.  1.
         12    1    3    3    0    0 -0.10248836606E+03 -0.20983353266E+02 -0.20076629861E+03  0.22638743991E+03  0.00000000000E+00 0. -1.
         13    1    5    5    0    0  0.17403921260E+02 -0.86292284809E+00 -0.18171846565E+01  0.17519796549E+02  0.00000000000E+00 0. -1.
        -14    1    5    5    0    0 -0.19137310151E+02  0.63602584736E+02  0.13477690785E+03  0.15025425224E+03  0.00000000000E+00 0.  1.
          5    1    4    4  501    0  0.12379490063E+03 -0.47135946047E+02 -0.97021841889E+01  0.13288558842E+03  0.41800000000E+01 0. -1.
         -5    1    4    4    0  501 -0.59817685913E+01  0.88847159945E+01 -0.52623061855E+02  0.53864448134E+02  0.41800000000E+01 0. -1.
</event>
<event>
11    1  0.6625361E-009  0.1303957E+03  0.7561462E-02  0.1118784E+00
         22   -1    0    0    0    0  0.00000000000E+00  0.00000000000E+00  0.70413520070E+03  0.70413520070E+03  0.00000000000E+00 0. -1.
         22   -1    0    0    0    0 -0.00000000000E+00 -0.00000000000E+00 -0.57311483857E+03  0.57311483857E+03  0.00000000000E+00 0.  1.
        -24    2    1    2    0    0 -0.20017240613E+02  0.11595343132E+02 -0.52462506978E+03  0.53124503687E+03  0.80341044635E+02 0.  0.
         25    2    1    2    0    0  0.35748654148E+02 -0.43338058931E+02  0.70462703996E+02  0.15416060342E+03  0.12507735753E+03 0.  0.
         24    2    1    2    0    0 -0.15731413534E+02  0.31742715799E+02  0.58518272792E+03  0.59184439897E+03  0.81153497536E+02 0.  0.
        -13    1    5    5    0    0  0.16057459552E+02  0.22146877348E+02  0.63952231906E+02  0.69557272439E+02  0.00000000000E+00 0.  1.
         14    1    5    5    0    0 -0.31788873087E+02  0.95958384515E+01  0.52123049601E+03  0.52228712653E+03  0.00000000000E+00 0. -1.
         13    1    3    3    0    0 -0.12481802704E+01 -0.14403866290E+02 -0.15823077883E+02  0.21433597733E+02  0.00000000000E+00 0. -1.
        -14    1    3    3    0    0 -0.18769060343E+02  0.25999209422E+02 -0.50880199190E+03  0.50981143914E+03  0.00000000000E+00 0.  1.
          5    1    4    4  501    0  0.50131300348E+01 -0.26894613822E+01  0.96516081159E+02  0.96773916928E+02  0.41800000000E+01 0.  1.
         -5    1    4    4    0  501  0.30735524113E+02 -0.40648597549E+02 -0.26053377163E+02  0.57386686494E+02  0.41800000000E+01 0.  1.
</event>
<event>
11    1  0.6625361E-009  0.1873808E+03  0.7561462E-02  0.1063824E+00
         22   -1    0    0    0    0  0.00000000000E+00  0.00000000000E+00  0.13180461347E+03  0.13180461347E+03  0.00000000000E+00 0. -1.
         22   -1    0    0    0    0 -0.00000000000E+00 -0.00000000000E+00 -0.21395038323E+04  0.21395038323E+04  0.00000000000E+00 0.  1.
        -24    2    1    2    0    0  0.32232049641E+02  0.62996900867E+02 -0.17368627059E+04  0.17401481459E+04  0.80099912028E+02 0.  0.
         25    2    1    2    0    0  0.97993644860E+02  0.91162204780E+01 -0.31719365654E+03  0.35489488099E+03  0.12511075450E+03 0.  0.
         24    2    1    2    0    0 -0.13022569450E+03 -0.72113121345E+02  0.46357143609E+02  0.17626541891E+03  0.82228215122E+02 0.  0.
        -11    1    5    5    0    0 -0.29911757751E+01  0.82525329151E+01 -0.11990388635E+02  0.14860042115E+02  0.00000000000E+00 0.  1.
         12    1    5    5    0    0 -0.12723451873E+03 -0.80365654260E+02  0.58347532243E+02  0.16140537680E+03  0.00000000000E+00 0. -1.
         13    1    3    3    0    0  0.56989717118E+00 -0.18653440608E+02 -0.38479566902E+03  0.38524794941E+03  0.00000000000E+00 0. -1.
        -14    1    3    3    0    0  0.31662152470E+02  0.81650341475E+02 -0.13520670369E+04  0.13549001965E+04  0.00000000000E+00 0.  1.
          5    1    4    4  501    0  0.16680842390E+02  0.14658537820E+02 -0.24468974091E+03  0.24573087910E+03  0.41800000000E+01 0.  1.
         -5    1    4    4    0  501  0.81312802470E+02 -0.55423173422E+01 -0.72503915626E+02  0.10916400189E+03  0.41800000000E+01 0.  1.
</event>
<event>
11    1  0.6625361E-009  0.1490422E+03  0.7561462E-02  0.1097861E+00
         22   -1    0    0    0    0  0.00000000000E+00  0.00000000000E+00  0.65781610798E+03  0.65781610798E+03  0.00000000000E+00 0.  1.
         22   -1    0    0    0    0 -0.00000000000E+00 -0.00000000000E+00 -0.26296761916E+03  0.26296761916E+03  0.00000000000E+00 0. -1.
        -24    2    1    2    0    0  0.32167979875E+02  0.49911640161E+01 -0.17067462209E+03  0.19102533322E+03  0.79379850457E+02 0.  0.
         25    2    1    2    0    0  0.95036049454E+01 -0.75433969274E+02 -0.62798953764E+01  0.14651794523E+03  0.12508984356E+03 0.  0.
         24    2    1    2    0    0 -0.41671584820E+02  0.70442805258E+02  0.57180300628E+03  0.58324044869E+03  0.80697169711E+02 0.  0.
        -11    1    5    5    0    0 -0.40650682006E+01  0.46760517163E+02  0.46768213121E+03  0.47003153788E+03  0.00000000000E+00 0.  1.
         12    1    5    5    0    0 -0.37606516620E+02  0.23682288095E+02  0.10412087507E+03  0.11320891081E+03  0.00000000000E+00 0. -1.
         13    1    3    3    0    0  0.20765346281E+02  0.54343935823E+01 -0.17678348379E+03  0.17808181373E+03  0.00000000000E+00 0. -1.
        -14    1    3    3    0    0  0.11402633594E+02 -0.44322956612E+00  0.61088617063E+01  0.12943519485E+02  0.00000000000E+00 0.  1.
          5    1    4    4  501    0  0.60909599788E+02 -0.16834633770E+02  0.16030686749E+02  0.65328703937E+02  0.41800000000E+01 0.  1.
         -5    1    4    4    0  501 -0.51405994842E+02 -0.58599335504E+02 -0.22310582125E+02  0.81189241295E+02  0.41800000000E+01 0.  1.
</event>
<event>
11    1  0.6625361E-009  0.1631155E+03  0.7561462E-02  0.1084183E+00
         22   -1    0    0    0    0  0.00000000000E+00  0.00000000000E+00  0.14016641521E+04  0.14016641521E+04  0.00000000000E+00 0. -1.
         22   -1    0    0    0    0 -0.00000000000E+00 -0.00000000000E+00 -0.37969009365E+03  0.37969009365E+03  0.00000000000E+00 0. -1.
         24    2    1    2    0    0 -0.51481700091E+02  0.44003932159E+01 -0.34916607994E+03  0.36209567765E+03  0.80787372073E+02 0.  0.
         25    2    1    2    0    0 -0.49923586607E+02 -0.52848379805E+02  0.24374358368E+03  0.28344726070E+03  0.12508436860E+03 0.  0.
        -24    2    1    2    0    0  0.10140528670E+03  0.48447986589E+02  0.11273965547E+04  0.11358113074E+04  0.80088044476E+02 0.  0.
        -13    1    3    3    0    0 -0.19188380297E+02  0.30958333213E+02 -0.62041348291E+02  0.71942624581E+02  0.00000000000E+00 0.  1.
         14    1    3    3    0    0 -0.32293319794E+02 -0.26557939998E+02 -0.28712473165E+03  0.29015305307E+03  0.00000000000E+00 0. -1.
         13    1    5    5    0    0  0.73548596739E+02  0.57771181182E+02  0.10257593448E+04  0.10300141450E+04  0.00000000000E+00 0. -1.
        -14    1    5    5    0    0  0.27856689959E+02 -0.93231945930E+01  0.10163720988E+03  0.10579716236E+03  0.00000000000E+00 0.  1.
          5    1    4    4  501    0 -0.53126650938E+01  0.37435245165E+01  0.19765524428E+03  0.19780623443E+03  0.41800000000E+01 0. -1.
         -5    1    4    4    0  501 -0.44610921513E+02 -0.56591904321E+02  0.46088339394E+02  0.85641026273E+02  0.41800000000E+01 0. -1.
</event>
<event>
11    1  0.6625361E-009  0.1553861E+03  0.7561462E-02  0.1091499E+00
         22   -1    0    0    0    0  0.00000000000E+00  0.00000000000E+00  0.14517669024E+03  0.14517669024E+03  0.00000000000E+00 0.  1.
         22   -1    0    0    0    0 -0.00000000000E+00 -0.00000000000E+00 -0.26056955773E+04  0.26056955773E+04  0.00000000000E+00 0. -1.
         24    2    1    2    0    0  0.36269693022E+02  0.28368625951E+02 -0.23068451839E+04  0.23096962920E+04  0.10508087032E+03 0.  0.
         25    2    1    2    0    0 -0.95734207271E+01 -0.11465448269E+03 -0.23850884967E+03  0.29286649369E+03  0.12508801289E+03 0.  0.
        -24    2    1    2    0    0 -0.26696272295E+02  0.86285856734E+02  0.84835146500E+02  0.14830948184E+03  0.81490860192E+02 0.  0.
        -11    1    3    3    0    0 -0.68345016300E+01 -0.24221896413E+02 -0.14289526714E+04  0.14291742888E+04  0.00000000000E+00 0.  1.
         12    1    3    3    0    0  0.43104194652E+02  0.52590522364E+02 -0.87789251245E+03  0.88052200316E+03  0.00000000000E+00 0. -1.
         13    1    5    5    0    0  0.26262045062E+02  0.29671731665E+02  0.10698313119E+02  0.41043398671E+02  0.00000000000E+00 0. -1.
        -14    1    5    5    0    0 -0.52958317357E+02  0.56614125069E+02  0.74136833380E+02  0.10726608317E+03  0.00000000000E+00 0.  1.
          5    1    4    4  501    0  0.57764168842E+02 -0.53456146754E+02 -0.11422658743E+03  0.13877840071E+03  0.41800000000E+01 0. -1.
         -5    1    4    4    0  501 -0.67337589569E+02 -0.61198335932E+02 -0.12428226224E+03  0.15408809298E+03  0.41800000000E+01 0. -1.
</event>
<event>
11    1  0.6625361E-009  0.1394533E+03  0.7561462E-02  0.1108170E+00
         22   -1    0    0    0    0  0.00000000000E+00  0.00000000000E+00  0.69491113190E+03  0.69491113190E+03  0.00000000000E+00 0. -1.
         22   -1    0    0    0    0 -0.00000000000E+00 -0.00000000000E+00 -0.11374179066E+04  0.11374179066E+04  0.00000000000E+00 0.  1.
        -24    2    1    2    0    0  0.26684096241E+02 -0.57192885947E+02 -0.99702995098E+03  0.10020909848E+04  0.78323377990E+02 0.  0.
         25    2    1    2    0    0 -0.76744233985E+02  0.20674381624E+02 -0.92922820950E+02  0.17492592807E+03  0.12508925675E+03 0.  0.
         24    2    1    2    0    0  0.50060137744E+02  0.36518504323E+02  0.64744599723E+03  0.65531212559E+03  0.80050259614E+02 0.  0.
        -11    1    5    5    0    0  0.33825171086E+02 -0.13153654018E+02  0.12227126989E+03  0.12754381308E+03  0.00000000000E+00 0.  1.
         12    1    5    5    0    0  0.16234966658E+02  0.49672158341E+02  0.52517472734E+03  0.52776831252E+03  0.00000000000E+00 0. -1.
         13    1    3    3    0    0  0.17258482739E+02 -0.48933656416E+02 -0.26930682104E+03  0.27425995299E+03  0.00000000000E+00 0. -1.
        -14    1    3    3    0    0  0.94256135014E+01 -0.82592295311E+01 -0.72772312995E+03  0.72783103185E+03  0.00000000000E+00 0.  1.
          5    1    4    4  501    0 -0.98478780683E+02  0.97528889129E+01 -0.24280545837E+02  0.10198140219E+03  0.41800000000E+01 0. -1.
         -5    1    4    4    0  501  0.21734546698E+02  0.10921492711E+02 -0.68642275113E+02  0.72944525880E+02  0.41800000000E+01 0. -1.
</event>
<event>
11    1  0.6625361E-009  0.2577151E+03  0.7561462E-02  0.1019868E+00
         22   -1    0    0    0    0  0.00000000000E+00  0.00000000000E+00  0.18557736094E+04  0.18557736094E+04  0.00000000000E+00 0.  1.
         22   -1    0    0    0    0 -0.00000000000E+00 -0.00000000000E+00 -0.11477049699E+04  0.11477049699E+04  0.00000000000E+00 0. -1.
        -24    2    1    2    0    0 -0.39781848490E+01  0.52817214796E+01 -0.10451143924E+04  0.10482829268E+04  0.81174373238E+02 0.  0.
         25    2    1    2    0    0  0.10940741867E+03 -0.20378032599E+03  0.94713012358E+02  0.27949287440E+03  0.12509719265E+03 0.  0.
         24    2    1    2    0    0 -0.10542923383E+03  0.19849860451E+03  0.16584700196E+04  0.16757027781E+04  0.83306515406E+02 0.  0.
        -13    1    5    5    0    0 -0.11169546533E+03  0.20119585206E+03  0.15467507906E+04  0.15637754494E+04  0.00000000000E+00 0.  1.
         14    1    5    5    0    0  0.62662315011E+01 -0.26972475419E+01  0.11171922898E+03  0.11192732876E+03  0.00000000000E+00 0. -1.
         13    1    3    3    0    0 -0.17337751342E+02 -0.34949993103E+02 -0.51674157222E+03  0.51821226549E+03  0.00000000000E+00 0. -1.
        -14    1    3    3    0    0  0.13359566493E+02  0.40231714583E+02 -0.52837282017E+03  0.53007066130E+03  0.00000000000E+00 0.  1.
          5    1    4    4  501    0  0.53684796798E+02 -0.18074789256E+03  0.10838788380E+03  0.21752531767E+03  0.41800000000E+01 0.  1.
         -5    1    4    4    0  501  0.55722621877E+02 -0.23032433431E+02 -0.13674871442E+02  0.61967556734E+02  0.41800000000E+01 0.  1.
</event>
<event>
11    1  0.6625361E-009  0.1462246E+03  0.7561462E-02  0.1100800E+00
         22   -1    0    0    0    0  0.00000000000E+00  0.00000000000E+00  0.50307079337E+03  0.50307079337E+03  0.00000000000E+00 0.  1.
         22   -1    0    0    0    0 -0.00000000000E+00 -0.00000000000E+00 -0.81307880620E+03  0.81307880620E+03  0.00000000000E+00 0.  1.
        -24    2    1    2    0    0  0.72520210577E+02  0.21736041823E+02 -0.76526832752E+03  0.77291603259E+03  0.77665589936E+02 0.  0.
         25    2    1    2    0    0 -0.93096900614E+02  0.45124279140E+02  0.15188703885E+03  0.22230470465E+03  0.12508587316E+03 0.  0.
         24    2    1    2    0    0  0.20576690037E+02 -0.66860320963E+02  0.30337327584E+03  0.32092886234E+03  0.77886375532E+02 0.  0.
        -11    1    5    5    0    0  0.44404922694E+02 -0.13882577780E+02  0.12887668277E+03  0.13701723427E+03  0.00000000000E+00 0.  1.
         12    1    5    5    0    0 -0.23828232657E+02 -0.52977743183E+02  0.17449659308E+03  0.18391162807E+03  0.00000000000E+00 0. -1.
         11    1    3    3    0    0  0.10469383181E+02  0.14955241819E+01 -0.91459232371E+01  0.13981862845E+02  0.00000000000E+00 0. -1.
        -12    1    3    3    0    0  0.62050827397E+02  0.20240517641E+02 -0.75612240429E+03  0.75893416974E+03  0.00000000000E+00 0.  1.
          5    1    4    4  501    0  0.13265304846E+02  0.22304203702E+02 -0.92286120845E+01  0.27858311084E+02  0.41800000000E+01 0. -1.
         -5    1    4    4    0  501 -0.10636220546E+03  0.22820075437E+02  0.16111565094E+03  0.19444639356E+03  0.41800000000E+01 0. -1.
</event>
<event>
11    1  0.6625361E-009  0.1476129E+03  0.7561462E-02  0.1099343E+00
         22   -1    0    0    0    0  0.00000000000E+00  0.00000000000E+00  0.24590161491E+04  0.24590161491E+04  0.00000000000E+00 0. -1.
         22   -1    0    0    0    0 -0.00000000000E+00 -0.00000000000E+00 -0.34514660939E+02  0.34514660939E+02  0.00000000000E+00 0.  1.
        -24    2    1    2    0    0  0.76728806878E+02 -0.16873742519E+02  0.12292305300E+03  0.16839474459E+03  0.84111117309E+02 0.  0.
         25    2    1    2    0    0 -0.70054693892E+02  0.39561346449E+02  0.50099355947E+03  0.52260373308E+03  0.12508938776E+03 0.  0.
         24    2    1    2    0    0 -0.66741129866E+01 -0.22687603930E+02  0.18005848757E+04  0.18025323324E+04  0.80359464369E+02 0.  0.
        -13    1    5    5    0    0  0.27678989622E+02  0.43908889979E+01  0.29901145007E+03  0.30032191669E+03  0.00000000000E+00 0.  1.
         14    1    5    5    0    0 -0.34353102608E+02 -0.27078492928E+02  0.15015734256E+04  0.15022104157E+04  0.00000000000E+00 0. -1.
         11    1    3    3    0    0  0.41685333507E+02 -0.32314635754E+02  0.11867192293E+03  0.12986503765E+03  0.00000000000E+00 0. -1.
        -12    1    3    3    0    0  0.35043473371E+02  0.15440893235E+02  0.42511300745E+01  0.38529706938E+02  0.00000000000E+00 0.  1.
          5    1    4    4  501    0 -0.80098758250E+02  0.21763799661E+02  0.15408773438E+03  0.17507134641E+03  0.41800000000E+01 0. -1.
         -5    1    4    4    0  501  0.10044064359E+02  0.17797546788E+02  0.34690582509E+03  0.34753238666E+03  0.41800000000E+01 0. -1.
</event>
<event>
11    1  0.6625361E-009  0.1336744E+03  0.7561462E-02  0.1114835E+00
         22   -1    0    0    0    0  0.00000000000E+00  0.00000000000E+00  0.18549360047E+04  0.18549360047E+04  0.00000000000E+00 0. -1.
         22   -1    0    0    0    0 -0.00000000000E+00 -0.00000000000E+00 -0.40424914906E+02  0.40424914906E+02  0.00000000000E+00 0. -1.
        -24    2    1    2    0    0 -0.44102446960E+02  0.27199876761E+02  0.41122639609E+02  0.10331700965E+03  0.79362925042E+02 0.  0.
         25    2    1    2    0    0  0.23654386479E+02  0.24155995673E+02  0.55967931838E+03  0.57448399157E+03  0.12509146664E+03 0.  0.
         24    2    1    2    0    0  0.20448060482E+02 -0.51355872434E+02  0.12137091319E+04  0.12175599184E+04  0.79415045201E+02 0.  0.
        -13    1    5    5    0    0  0.14381135078E+02  0.12652906671E+01  0.37872437018E+02  0.40530722820E+02  0.00000000000E+00 0.  1.
         14    1    5    5    0    0  0.60669254036E+01 -0.52621163101E+02  0.11758366948E+04  0.11770291956E+04  0.00000000000E+00 0. -1.
         11    1    3    3    0    0 -0.61400768066E+02  0.12518708525E+02  0.48736261628E+02  0.79385109307E+02  0.00000000000E+00 0. -1.
        -12    1    3    3    0    0  0.17298321105E+02  0.14681168236E+02 -0.76136220194E+01  0.23931900344E+02  0.00000000000E+00 0.  1.
          5    1    4    4  501    0  0.59447448079E+02  0.55485464573E+02  0.33046799629E+03  0.34035159003E+03  0.41800000000E+01 0. -1.
         -5    1    4    4    0  501 -0.35793061601E+02 -0.31329468900E+02  0.22921132208E+03  0.23413240154E+03  0.41800000000E+01 0. -1.
</event>
<event>
11    1  0.6625361E-009  0.2419207E+03  0.7561462E-02  0.1028293E+00
         22   -1    0    0    0    0  0.00000000000E+00  0.00000000000E+00  0.61377490667E+03  0.61377490667E+03  0.00000000000E+00 0.  1.
         22   -1    0    0    0    0 -0.00000000000E+00 -0.00000000000E+00 -0.10681851563E+04  0.10681851563E+04  0.00000000000E+00 0. -1.
         24    2    1    2    0    0  0.16076179550E+02  0.20641445591E+03 -0.62609362323E+03  0.66429476840E+03  0.80180690368E+02 0.  0.
         25    2    1    2    0    0 -0.74238369081E+02 -0.19910553938E+03 -0.38251419099E+03  0.45510301554E+03  0.12508915696E+03 0.  0.
        -24    2    1    2    0    0  0.58162189532E+02 -0.73089165337E+01  0.55419756463E+03  0.56256227899E+03  0.76844756135E+02 0.  0.
        -11    1    3    3    0    0 -0.10486519713E+02  0.30894065901E+01 -0.84125860073E+02  0.84833200233E+02  0.00000000000E+00 0.  1.
         12    1    3    3    0    0  0.26562699263E+02  0.20332504932E+03 -0.54196776316E+03  0.57946156817E+03  0.00000000000E+00 0. -1.
         13    1    5    5    0    0  0.55899918756E+02  0.16903001697E+02  0.22457874299E+03  0.23204767654E+03  0.00000000000E+00 0. -1.
        -14    1    5    5    0    0  0.22622707759E+01 -0.24211918230E+02  0.32961882164E+03  0.33051460245E+03  0.00000000000E+00 0.  1.
          5    1    4    4  501    0 -0.28601184417E+01  0.16786391534E+02 -0.15852929366E+02  0.23637914200E+02  0.41800000000E+01 0. -1.
         -5    1    4    4    0  501 -0.71378250639E+02 -0.21589193091E+03 -0.36666126163E+03  0.43146510134E+03  0.41800000000E+01 0. -1.
</event>
<event>
11    1  0.7007278E-009  0.2321563E+03  0.7561462E-02  0.1033859E+00
         22   -1    0    0    0    0  0.00000000000E+00  0.00000000000E+00  0.17368701775E+04  0.17368701775E+04  0.00000000000E+00 0. -1.
         22   -1    0    0    0    0 -0.00000000000E+00 -0.00000000000E+00 -0.15185452244E+04  0.15185452244E+04  0.00000000000E+00 0.  1.
         24    2    1    2    0    0 -0.30739578008E+02 -0.21475690448E+02 -0.10831650605E+04  0.10868079967E+04  0.80616043274E+02 0.  0.
         25    2    1    2    0    0  0.25805677742E+00 -0.17210515615E+03 -0.40042927330E+03  0.45344570144E+03  0.12509656219E+03 0.  0.
        -24    2    1    2    0    0  0.30481521231E+02  0.19358084659E+03  0.17019192869E+04  0.17151617039E+04  0.82751096849E+02 0.  0.
        -13    1    3    3    0    0 -0.55367384365E+02 -0.42512244382E+01 -0.54988571366E+03  0.55268247507E+03  0.00000000000E+00 0.  1.
         14    1    3    3    0    0  0.24627806357E+02 -0.17224466010E+02 -0.53327934682E+03  0.53412552160E+03  0.00000000000E+00 0. -1.
         11    1    5    5    0    0  0.48731116899E+02  0.59462947057E+02  0.67336699623E+03  0.67774159931E+03  0.00000000000E+00 0. -1.
        -12    1    5    5    0    0 -0.18249595668E+02  0.13411789954E+03  0.10285522907E+04  0.10374201045E+04  0.00000000000E+00 0.  1.
          5    1    4    4  501    0  0.43057264662E+02 -0.38176477876E+02 -0.51911111979E+02  0.77611902761E+02  0.41800000000E+01 0.  1.
         -5    1    4    4    0  501 -0.42799207885E+02 -0.13392867827E+03 -0.34851816132E+03  0.37583379867E+03  0.41800000000E+01 0.  1.
</event>
<event>
11    1  0.6625361E-009  0.1373814E+03  0.7561462E-02  0.1110518E+00
         22   -1    0    0    0    0  0.00000000000E+00  0.00000000000E+00  0.32624043835E+04  0.32624043835E+04  0.00000000000E+00 0. -1.
         22   -1    0    0    0    0 -0.00000000000E+00 -0.00000000000E+00 -0.34636507659E+02  0.34636507659E+02  0.00000000000E+00 0. -1.
         24    2    1    2    0    0  0.47788033200E+02  0.15469042010E+02  0.77291726793E+02  0.12191946241E+03  0.79795719845E+02 0.  0.
         25    2    1    2    0    0 -0.87199775288E+02 -0.25154513146E+02  0.50379362556E+03  0.52696622075E+03  0.12509528496E+03 0.  0.
        -24    2    1    2    0    0  0.39411742088E+02  0.96854711364E+01  0.26466825235E+04  0.26481552080E+04  0.78425325838E+02 0.  0.
        -13    1    3    3    0    0 -0.70332634701E+01 -0.14939905957E+02  0.51584512049E+02  0.54162989839E+02  0.00000000000E+00 0.  1.
         14    1    3    3    0    0  0.54821296670E+02  0.30408947967E+02  0.25707214744E+02  0.67756472569E+02  0.00000000000E+00 0. -1.
         13    1    5    5    0    0  0.49898289962E+02  0.31120431643E+02  0.22410071142E+04  0.22417785811E+04  0.00000000000E+00 0. -1.
        -14    1    5    5    0    0 -0.10486547874E+02 -0.21434960506E+02  0.40567540926E+03  0.40637662691E+03  0.00000000000E+00 0.  1.
          5    1    4    4  501    0  0.21320481001E+02 -0.28496838092E+02  0.22342758413E+03  0.22628298752E+03  0.41800000000E+01 0. -1.
         -5    1    4    4    0  501 -0.10852025629E+03  0.33423249461E+01  0.28036604143E+03  0.30068323324E+03  0.41800000000E+01 0. -1.
</event>
<event>
11    1  0.6625361E-009  0.1360860E+03  0.7561462E-02  0.1112009E+00
         22   -1    0    0    0    0  0.00000000000E+00  0.00000000000E+00  0.18202969724E+04  0.18202969724E+04  0.00000000000E+00 0. -1.
         22   -1    0    0    0    0 -0.00000000000E+00 -0.00000000000E+00 -0.10898218382E+04  0.10898218382E+04  0.00000000000E+00 0.  1.
         24    2    1    2    0    0 -0.14710087691E+02  0.10960037913E+02 -0.61639381699E+03  0.62194742633E+03  0.80874930535E+02 0.  0.
         25    2    1    2    0    0 -0.38436415303E+02 -0.38349105425E+01 -0.46024351972E+03  0.47850277337E+03  0.12509493243E+03 0.  0.
        -24    2    1    2    0    0  0.53146502993E+02 -0.71251273706E+01  0.18071124710E+04  0.18096686109E+04  0.79810277688E+02 0.  0.
        -13    1    3    3    0    0 -0.13079717633E+02 -0.12981979875E+02 -0.56420307243E+03  0.56450395725E+03  0.00000000000E+00 0.  1.
         14    1    3    3    0    0 -0.16303700582E+01  0.23942017788E+02 -0.52190744556E+02  0.57443469077E+02  0.00000000000E+00 0. -1.
         13    1    5    5    0    0  0.49481941490E+02  0.14818674415E+02  0.56482054352E+03  0.56717748724E+03  0.00000000000E+00 0. -1.
        -14    1    5    5    0    0  0.36645615037E+01 -0.21943801786E+02  0.12422919274E+04  0.12424911237E+04  0.00000000000E+00 0.  1.
          5    1    4    4  501    0  0.26289077059E+02  0.34015159302E+02 -0.27890345375E+03  0.28222819765E+03  0.41800000000E+01 0.  1.
         -5    1    4    4    0  501 -0.64725492361E+02 -0.37850069845E+02 -0.18134006598E+03  0.19627457573E+03  0.41800000000E+01 0.  1.
</event>
<event>
11    1  0.6625361E-009  0.1420235E+03  0.7561462E-02  0.1105320E+00
         22   -1    0    0    0    0  0.00000000000E+00  0.00000000000E+00  0.14434399946E+03  0.14434399946E+03  0.00000000000E+00 0. -1.
         22   -1    0    0    0    0 -0.00000000000E+00 -0.00000000000E+00 -0.15853526059E+04  0.15853526059E+04  0.00000000000E+00 0. -1.
        -24    2    1    2    0    0 -0.49549818825E+02 -0.46928705614E+02 -0.13809129989E+04  0.13850929156E+04  0.83091432908E+02 0.  0.
         25    2    1    2    0    0  0.60896383735E+02  0.14491214739E+02 -0.15704510884E+03  0.21030498320E+03  0.12508658957E+03 0.  0.
         24    2    1    2    0    0 -0.11346564911E+02  0.32437490875E+02  0.96949501341E+02  0.13429870658E+03  0.86348140850E+02 0.  0.
        -11    1    5    5    0    0  0.25080473328E+02 -0.11558226707E+02  0.82905342401E+01  0.28833239584E+02  0.00000000000E+00 0.  1.
         12    1    5    5    0    0 -0.36427038238E+02  0.43995717582E+02  0.88658967101E+02  0.10546546699E+03  0.00000000000E+00 0. -1.
         11    1    3    3    0    0 -0.67787805219E+02 -0.29390324568E+02 -0.12167718836E+04  0.12190130411E+04  0.00000000000E+00 0. -1.
        -12    1    3    3    0    0  0.18237986394E+02 -0.17538381046E+02 -0.16414111534E+03  0.16607987446E+03  0.00000000000E+00 0.  1.
          5    1    4    4  501    0  0.80945102990E+02 -0.15519015317E+02 -0.15288386838E+03  0.17373514079E+03  0.41800000000E+01 0.  1.
         -5    1    4    4    0  501 -0.20048719255E+02  0.30010230055E+02 -0.41612404666E+01  0.36569842411E+02  0.41800000000E+01 0.  1.
</event>
<event>
11    1  0.6625361E-009  0.1291561E+03  0.7561462E-02  0.1120310E+00
         22   -1    0    0    0    0  0.00000000000E+00  0.00000000000E+00  0.24359788023E+03  0.24359788023E+03  0.00000000000E+00 0. -1.
         22   -1    0    0    0    0 -0.00000000000E+00 -0.00000000000E+00 -0.14220092717E+04  0.14220092717E+04  0.00000000000E+00 0.  1.
         24    2    1    2    0    0 -0.23163676472E+01 -0.14697059901E+02 -0.13213382849E+04  0.13236597976E+04  0.76935215149E+02 0.  0.
         25    2    1    2    0    0 -0.64553848982E+00 -0.18773354594E+02 -0.45500429320E+02  0.13442128422E+03  0.12508372005E+03 0.  0.
        -24    2    1    2    0    0  0.29619061371E+01  0.33470414495E+02  0.18842732280E+03  0.20752607013E+03  0.80207058730E+02 0.  0.
        -11    1    3    3    0    0  0.13811620827E+02  0.44413620925E+01 -0.11821647221E+04  0.11822537446E+04  0.00000000000E+00 0.  1.
         12    1    3    3    0    0 -0.16127988474E+02 -0.19138421994E+02 -0.13917356286E+03  0.14140605294E+03  0.00000000000E+00 0. -1.
         11    1    5    5    0    0 -0.28969593893E+02  0.44195437810E+02  0.12495080320E+03  0.13566568215E+03  0.00000000000E+00 0. -1.
        -12    1    5    5    0    0  0.31931500030E+02 -0.10725023315E+02  0.63476519608E+02  0.71860387981E+02  0.00000000000E+00 0.  1.
          5    1    4    4  501    0  0.57296230085E+02  0.32564325203E+01 -0.21770641032E+00  0.57541134250E+02  0.41800000000E+01 0.  1.
         -5    1    4    4    0  501 -0.57941768575E+02 -0.22029787114E+02 -0.45282722910E+02  0.76880149974E+02  0.41800000000E+01 0.  1.
</event>
<event>
11    1  0.6625361E-009  0.1631492E+03  0.7561462E-02  0.1084152E+00
         22   -1    0    0    0    0  0.00000000000E+00  0.00000000000E+00  0.39941932321E+03  0.39941932321E+03  0.00000000000E+00 0. -1.
         22   -1    0    0    0    0 -0.00000000000E+00 -0.00000000000E+00 -0.77144676929E+03  0.77144676929E+03  0.00000000000E+00 0.  1.
        -24    2    1    2    0    0  0.93472128490E+02  0.23141488465E+02 -0.51986848624E+03  0.53543652015E+03  0.84595844014E+02 0.  0.
         25    2    1    2    0    0 -0.14400830751E+03 -0.31844371357E+02 -0.19788079644E+03  0.27669110175E+03  0.12509476236E+03 0.  0.
         24    2    1    2    0    0  0.50536179019E+02  0.87028828924E+01  0.34572183659E+03  0.35873847060E+03  0.80870615385E+02 0.  0.
        -11    1    5    5    0    0  0.44300547131E+02  0.23739551524E+02  0.94888861142E+02  0.10737784106E+03  0.00000000000E+00 0.  1.
         12    1    5    5    0    0  0.62356318878E+01 -0.15036668632E+02  0.25083297545E+03  0.25136062954E+03  0.00000000000E+00 0. -1.
         11    1    3    3    0    0  0.25867760346E+02  0.18694969230E+02 -0.41802346373E+02  0.52593526808E+02  0.00000000000E+00 0. -1.
        -12    1    3    3    0    0  0.67604368145E+02  0.44465192353E+01 -0.47806613987E+03  0.48284299334E+03  0.00000000000E+00 0.  1.
          5    1    4    4  501    0  0.16994557019E+02 -0.22591396632E+02 -0.51292102225E+02  0.58715741677E+02  0.41800000000E+01 0.  1.
         -5    1    4    4    0  501 -0.16100286453E+03 -0.92529747252E+01 -0.14658869422E+03  0.21797536007E+03  0.41800000000E+01 0.  1.
</event>
<event>
11    1  0.6625361E-009  0.1482536E+03  0.7561462E-02  0.1098677E+00
         22   -1    0    0    0    0  0.00000000000E+00  0.00000000000E+00  0.12873980635E+04  0.12873980635E+04  0.00000000000E+00 0.  1.
         22   -1    0    0    0    0 -0.00000000000E+00 -0.00000000000E+00 -0.98277561273E+03  0.98277561273E+03  0.00000000000E+00 0. -1.
        -24    2    1    2    0    0 -0.16030679518E+02 -0.58028874921E+01 -0.94969069442E+03  0.95325276444E+03  0.80546642806E+02 0.  0.
         25    2    1    2    0    0  0.79806040525E+02  0.50741384915E+02  0.18854131966E+03  0.24523203183E+03  0.12508888027E+03 0.  0.
         24    2    1    2    0    0 -0.63775361007E+02 -0.44938497423E+02  0.10657718255E+04  0.10716888799E+04  0.80998185878E+02 0.  0.
        -11    1    5    5    0    0 -0.80474373337E+02 -0.37842837563E+02  0.72486827239E+03  0.73030282584E+03  0.00000000000E+00 0.  1.
         12    1    5    5    0    0  0.16699012330E+02 -0.70956598600E+01  0.34090355311E+03  0.34138605408E+03  0.00000000000E+00 0. -1.
         13    1    3    3    0    0  0.26840359453E+02  0.19874655135E+00 -0.63869032669E+03  0.63925407923E+03  0.00000000000E+00 0. -1.
        -14    1    3    3    0    0 -0.42871038972E+02 -0.60016340435E+01 -0.31100036772E+03  0.31399868522E+03  0.00000000000E+00 0.  1.
          5    1    4    4  501    0 -0.14585304243E+02 -0.28480514830E+02  0.52527824074E+02  0.61648321362E+02  0.41800000000E+01 0. -1.
         -5    1    4    4    0  501  0.94391344769E+02  0.79221899745E+02  0.13601349559E+03  0.18358371047E+03  0.41800000000E+01 0. -1.
</event>
<event>
11    1  0.6625361E-009  0.2110485E+03  0.7561462E-02  0.1046974E+00
         22   -1    0    0    0    0  0.00000000000E+00  0.00000000000E+00  0.46841385193E+03  0.46841385193E+03  0.00000000000E+00 0.  1.
         22   -1    0    0    0    0 -0.00000000000E+00 -0.00000000000E+00 -0.22544378476E+04  0.22544378476E+04  0.00000000000E+00 0. -1.
        -24    2    1    2    0    0 -0.79765464560E+02 -0.94057608415E+02 -0.20316265720E+04  0.20369439865E+04  0.80155555826E+02 0.  0.
         25    2    1    2    0    0  0.16876116873E+03  0.22395210092E+03 -0.78449661842E+02  0.31691725951E+03  0.12508926556E+03 0.  0.
         24    2    1    2    0    0 -0.88995704171E+02 -0.12989449250E+03  0.32405223812E+03  0.36899045356E+03  0.79694963723E+02 0.  0.
        -11    1    5    5    0    0 -0.44713693633E+02 -0.12072641681E+03  0.26495486360E+03  0.29457641091E+03  0.00000000000E+00 0.  1.
         12    1    5    5    0    0 -0.44282010538E+02 -0.91680756900E+01  0.59097374516E+02  0.74414042652E+02  0.00000000000E+00 0. -1.
         13    1    3    3    0    0 -0.85908268757E+02 -0.44039509768E+02 -0.12900109818E+04  0.12936181980E+04  0.00000000000E+00 0. -1.
        -14    1    3    3    0    0  0.61428041970E+01 -0.50018098647E+02 -0.74161559021E+03  0.74332578852E+03  0.00000000000E+00 0.  1.
          5    1    4    4  501    0  0.58091734255E+02  0.73336572036E+01  0.68712016626E+01  0.59102605095E+02  0.41800000000E+01 0. -1.
         -5    1    4    4    0  501  0.11066943448E+03  0.21661844371E+03 -0.85320863505E+02  0.25781465442E+03  0.41800000000E+01 0. -1.
</event>
<event>
11    1  0.6625361E-009  0.1673238E+03  0.7561462E-02  0.1080384E+00
         22   -1    0    0    0    0  0.00000000000E+00  0.00000000000E+00  0.34013553538E+03  0.34013553538E+03  0.00000000000E+00 0. -1.
         22   -1    0    0    0    0 -0.00000000000E+00 -0.00000000000E+00 -0.16554640715E+04  0.16554640715E+04  0.00000000000E+00 0.  1.
        -24    2    1    2    0    0  0.11490596236E+03 -0.96220086985E+01 -0.13404928846E+04  0.13481264965E+04  0.85017137648E+02 0.  0.
         25    2    1    2    0    0 -0.90710799535E+02 -0.28112436786E+02 -0.28407233147E+03  0.32459686961E+03  0.12508908826E+03 0.  0.
         24    2    1    2    0    0 -0.24195162825E+02  0.37734445485E+02  0.30923667992E+03  0.32287624079E+03  0.81316962420E+02 0.  0.
        -13    1    5    5    0    0 -0.18361708630E+02 -0.68916854253E+00  0.25756955176E+03  0.25822412996E+03  0.00000000000E+00 0.  1.
         14    1    5    5    0    0 -0.58334541955E+01  0.38423614027E+02  0.51667128157E+02  0.64652110830E+02  0.00000000000E+00 0. -1.
         13    1    3    3    0    0  0.25271198628E+02 -0.30871157399E+02 -0.20131446765E+03  0.20522957079E+03  0.00000000000E+00 0. -1.
        -14    1    3    3    0    0  0.89634763732E+02  0.21249148700E+02 -0.11391784169E+04  0.11428969257E+04  0.00000000000E+00 0.  1.
          5    1    4    4  501    0 -0.19488659598E+02 -0.18715630512E+02 -0.23707976911E+03  0.23865115127E+03  0.41800000000E+01 0.  1.
         -5    1    4    4    0  501 -0.71222139937E+02 -0.93968062740E+01 -0.46992562358E+02  0.85945718348E+02  0.41800000000E+01 0.  1.
</event>
<event>
11    1  0.6625361E-009  0.1513863E+03  0.7561462E-02  0.1095471E+00
         22   -1    0    0    0    0  0.00000000000E+00  0.00000000000E+00  0.47820806582E+03  0.47820806582E+03  0.00000000000E+00 0.  1.
         22   -1    0    0    0    0 -0.00000000000E+00 -0.00000000000E+00 -0.40590671390E+03  0.40590671390E+03  0.00000000000E+00 0. -1.
        -24    2    1    2    0    0  0.82445200999E+02  0.90046153363E+01 -0.32662969049E+03  0.34644775612E+03  0.80379093949E+02 0.  0.
         25    2    1    2    0    0 -0.11795847498E+03  0.36152353646E+02  0.61173348251E+02  0.18603887691E+03  0.12508833156E+03 0.  0.
         24    2    1    2    0    0  0.35513273976E+02 -0.45156968982E+02  0.33775769416E+03  0.35162814669E+03  0.79131214484E+02 0.  0.
        -11    1    5    5    0    0  0.43888265751E+02  0.70817813197E+01  0.17064577245E+03  0.17634146180E+03  0.00000000000E+00 0.  1.
         12    1    5    5    0    0 -0.83749917750E+01 -0.52238750302E+02  0.16711192172E+03  0.17528668489E+03  0.00000000000E+00 0. -1.
         13    1    3    3    0    0  0.66004227945E+02  0.19465284087E+02 -0.31760193880E+03  0.32497145555E+03  0.00000000000E+00 0. -1.
        -14    1    3    3    0    0  0.16440973054E+02 -0.10460668750E+02 -0.90277516932E+01  0.21476300573E+02  0.00000000000E+00 0.  1.
          5    1    4    4  501    0  0.83007025124E+01 -0.18456401156E+02  0.42361588023E+02  0.47132970898E+02  0.41800000000E+01 0. -1.
         -5    1    4    4    0  501 -0.12625917749E+03  0.54608754802E+02  0.18811760228E+02  0.13890590601E+03  0.41800000000E+01 0. -1.
</event>
<event>
11    1  0.6625361E-009  0.1629610E+03  0.7561462E-02  0.1084325E+00
         22   -1    0    0    0    0  0.00000000000E+00  0.00000000000E+00  0.73857392222E+02  0.73857392222E+02  0.00000000000E+00 0.  1.
         22   -1    0    0    0    0 -0.00000000000E+00 -0.00000000000E+00 -0.22914791073E+04  0.22914791073E+04  0.00000000000E+00 0. -1.
         24    2    1    2    0    0 -0.10338697372E+03 -0.19554904545E+02 -0.17657951774E+04  0.17707613934E+04  0.80573215097E+02 0.  0.
         25    2    1    2    0    0  0.81662312790E+02  0.86528679355E+02 -0.45586902105E+03  0.48746327294E+03  0.12509169608E+03 0.  0.
        -24    2    1    2    0    0  0.21724660929E+02 -0.66973774810E+02  0.40424833735E+01  0.10711183324E+03  0.80617341459E+02 0.  0.
        -11    1    3    3    0    0  0.99620986965E+01 -0.11754308872E+02 -0.11016054568E+03  0.11123287738E+03  0.00000000000E+00 0.  1.
         12    1    3    3    0    0 -0.11334907241E+03 -0.78005956730E+01 -0.16556346318E+04  0.16595285160E+04  0.00000000000E+00 0. -1.
         13    1    5    5    0    0  0.13114545126E+02 -0.37112781097E+02 -0.38079067241E+02  0.54766460325E+02  0.00000000000E+00 0. -1.
        -14    1    5    5    0    0  0.86101158021E+01 -0.29860993713E+02  0.42121550614E+02  0.52345372917E+02  0.00000000000E+00 0.  1.
          5    1    4    4  501    0  0.39428707111E+02  0.10147791079E+03 -0.40569075303E+03  0.42006529114E+03  0.41800000000E+01 0.  1.
         -5    1    4    4    0  501  0.42233605678E+02 -0.14949231440E+02 -0.50178268018E+02  0.67397981799E+02  0.41800000000E+01 0.  1.
</event>
<event>
11    1  0.6625361E-009  0.1429051E+03  0.7561462E-02  0.1104357E+00
         22   -1    0    0    0    0  0.00000000000E+00  0.00000000000E+00  0.47701291272E+03  0.47701291272E+03  0.00000000000E+00 0.  1.
         22   -1    0    0    0    0 -0.00000000000E+00 -0.00000000000E+00 -0.20524876241E+03  0.20524876241E+03  0.00000000000E+00 0. -1.
         24    2    1    2    0    0 -0.60994671497E+02 -0.41881648974E+02 -0.14470152107E+03  0.18184133548E+03  0.81567877358E+02 0.  0.
         25    2    1    2    0    0  0.15783772900E+02  0.41256895134E+02  0.88445940240E+02  0.15941206056E+03  0.12505303605E+03 0.  0.
        -24    2    1    2    0    0  0.45210898596E+02  0.62475384062E+00  0.32801973114E+03  0.34100827908E+03  0.81518628020E+02 0.  0.
        -13    1    3    3    0    0 -0.10842682626E+02 -0.32051190094E+02 -0.64482276723E+01  0.34444479864E+02  0.00000000000E+00 0.  1.
         14    1    3    3    0    0 -0.50151988871E+02 -0.98304588806E+01 -0.13825329340E+03  0.14739685562E+03  0.00000000000E+00 0. -1.
         11    1    5    5    0    0  0.62597989219E+02 -0.10256336008E+02  0.16619697741E+03  0.17789079792E+03  0.00000000000E+00 0. -1.
        -12    1    5    5    0    0 -0.17387090623E+02  0.10881089848E+02  0.16182275373E+03  0.16311748116E+03  0.00000000000E+00 0.  1.
          5    1    4    4  501    0  0.41822799051E+02  0.49119961807E+02 -0.21951032345E+01  0.64685454676E+02  0.41800000000E+01 0.  1.
         -5    1    4    4    0  501 -0.26039026150E+02 -0.78630666733E+01  0.90641043475E+02  0.94726605885E+02  0.41800000000E+01 0.  1.
</event>
<event>
11    1  0.6625361E-009  0.1498273E+03  0.7561462E-02  0.1097055E+00
         22   -1    0    0    0    0  0.00000000000E+00  0.00000000000E+00  0.53628684224E+03  0.53628684224E+03  0.00000000000E+00 0. -1.
         22   -1    0    0    0    0 -0.00000000000E+00 -0.00000000000E+00 -0.89288312686E+03  0.89288312686E+03  0.00000000000E+00 0.  1.
        -24    2    1    2    0    0  0.33814042486E+02  0.74286632332E+02 -0.81111534552E+03  0.81916328651E+03  0.80364749782E+02 0.  0.
         25    2    1    2    0    0 -0.29703572193E+01 -0.11093168636E+03  0.23763966438E+02  0.16890046157E+03  0.12509187726E+03 0.  0.
         24    2    1    2    0    0 -0.30843685267E+02  0.36645054027E+02  0.43075509447E+03  0.44110622102E+03  0.82039953107E+02 0.  0.
        -13    1    5    5    0    0  0.16639800198E+02 -0.13233269194E+02  0.52643767540E+02  0.56774718185E+02  0.00000000000E+00 0.  1.
         14    1    5    5    0    0 -0.47483485464E+02  0.49878323221E+02  0.37811132693E+03  0.38433150284E+03  0.00000000000E+00 0. -1.
         13    1    3    3    0    0 -0.54299575718E+01  0.72756774326E+02 -0.44417303458E+03  0.45012522401E+03  0.00000000000E+00 0. -1.
        -14    1    3    3    0    0  0.39244000058E+02  0.15298580059E+01 -0.36694231095E+03  0.36903806249E+03  0.00000000000E+00 0.  1.
          5    1    4    4  501    0 -0.18091334255E+02 -0.15502347613E+02 -0.44414354848E+02  0.50573970313E+02  0.41800000000E+01 0.  1.
         -5    1    4    4    0  501  0.15120977036E+02 -0.95429338745E+02  0.68178321285E+02  0.11832649126E+03  0.41800000000E+01 0.  1.
</event>
<event>
11    1  0.6625361E-009  0.1527948E+03  0.7561462E-02  0.1094057E+00
         22   -1    0    0    0    0  0.00000000000E+00  0.00000000000E+00  0.20672542329E+04  0.20672542329E+04  0.00000000000E+00 0. -1.
         22   -1    0    0    0    0 -0.00000000000E+00 -0.00000000000E+00 -0.74195371027E+03  0.74195371027E+03  0.00000000000E+00 0. -1.
         24    2    1    2    0    0  0.61750810156E+02  0.67321098505E+02 -0.67073445560E+03  0.68234485579E+03  0.85816661792E+02 0.  0.
         25    2    1    2    0    0  0.10325730032E+02 -0.62384918887E+02  0.12895645841E+02  0.14075536739E+03  0.12508907611E+03 0.  0.
        -24    2    1    2    0    0 -0.72076540188E+02 -0.49361796184E+01  0.19831393324E+04  0.19861077200E+04  0.81011543849E+02 0.  0.
        -13    1    3    3    0    0  0.27418621321E+01  0.76788384529E+00  0.21745848553E+01  0.35827744618E+01  0.00000000000E+00 0.  1.
         14    1    3    3    0    0  0.59008948024E+02  0.66553214660E+02 -0.67290904045E+03  0.67876208133E+03  0.00000000000E+00 0. -1.
         13    1    5    5    0    0 -0.73777546947E+02 -0.10310552783E+02  0.19737559228E+04  0.19751612280E+04  0.00000000000E+00 0. -1.
        -14    1    5    5    0    0  0.17010067593E+01  0.53743731642E+01  0.93834096342E+01  0.10946492007E+02  0.00000000000E+00 0.  1.
          5    1    4    4  501    0  0.21423733026E+02 -0.87224071743E+02 -0.25548913572E+02  0.93473174830E+02  0.41800000000E+01 0.  1.
         -5    1    4    4    0  501 -0.11098002995E+02  0.24839152856E+02  0.38444559413E+02  0.47282192563E+02  0.41800000000E+01 0.  1.
</event>
<event>
11    1  0.6625361E-009  0.1311798E+03  0.7561462E-02  0.1117828E+00
         22   -1    0    0    0    0  0.00000000000E+00  0.00000000000E+00  0.26747263197E+03  0.26747263197E+03  0.00000000000E+00 0.  1.
         22   -1    0    0    0    0 -0.00000000000E+00 -0.00000000000E+00 -0.77565177472E+03  0.77565177472E+03  0.00000000000E+00 0. -1.
        -24    2    1    2    0    0 -0.13830908004E+01 -0.38966640231E+02 -0.71906727911E+03  0.72480478726E+03  0.82243028645E+02 0.  0.
         25    2    1    2    0    0  0.17113823540E+02  0.57869941097E+02  0.69387000982E+02  0.15526123165E+03  0.12509868549E+03 0.  0.
         24    2    1    2    0    0 -0.15730732740E+02 -0.18903300866E+02  0.14150113538E+03  0.16305838777E+03  0.77205412855E+02 0.  0.
        -11    1    5    5    0    0 -0.24388555355E+02 -0.44519828280E+02  0.11241488924E+03  0.12334473668E+03  0.00000000000E+00 0.  1.
         12    1    5    5    0    0  0.86578226156E+01  0.25616527415E+02  0.29086246133E+02  0.39713651096E+02  0.00000000000E+00 0. -1.
         11    1    3    3    0    0 -0.28739132164E+02 -0.36774177513E+02 -0.62698993896E+03  0.62872463082E+03  0.00000000000E+00 0. -1.
        -12    1    3    3    0    0  0.27356041364E+02 -0.21924627182E+01 -0.92077340150E+02  0.96080156437E+02  0.00000000000E+00 0.  1.
          5    1    4    4  501    0 -0.31539336921E+02 -0.16306311325E+02  0.54552960225E+02  0.65223641663E+02  0.41800000000E+01 0.  1.
         -5    1    4    4    0  501  0.48653160462E+02  0.74176252422E+02  0.14834040756E+02  0.90037589991E+02  0.41800000000E+01 0.  1.
</event>
<event>
11    1  0.6625361E-009  0.1290019E+03  0.7561462E-02  0.1120501E+00
         22   -1    0    0    0    0  0.00000000000E+00  0.00000000000E+00  0.67445082482E+03  0.67445082482E+03  0.00000000000E+00 0.  1.
         22   -1    0    0    0    0 -0.00000000000E+00 -0.00000000000E+00 -0.88899687584E+02  0.88899687584E+02  0.00000000000E+00 0. -1.
         24    2    1    2    0    0 -0.68685486546E+01 -0.12691737433E+02 -0.47274542884E+02  0.94398270012E+02  0.80423216901E+02 0.  0.
         25    2    1    2    0    0 -0.17441678625E+02  0.30552061405E+02  0.38527471805E+03  0.40659793167E+03  0.12509048350E+03 0.  0.
        -24    2    1    2    0    0  0.24310227280E+02 -0.17860323972E+02  0.24755096206E+03  0.26235431071E+03  0.81475930240E+02 0.  0.
        -13    1    3    3    0    0 -0.40084631802E+02 -0.40433640425E+01 -0.60249288305E+01  0.40736056104E+02  0.00000000000E+00 0.  1.
         14    1    3    3    0    0  0.33216083147E+02 -0.86483733909E+01 -0.41249614054E+02  0.53662213909E+02  0.00000000000E+00 0. -1.
         11    1    5    5    0    0  0.48582137372E+02 -0.51512995784E+01  0.89681637306E+02  0.10212519782E+03  0.00000000000E+00 0. -1.
        -12    1    5    5    0    0 -0.24271910093E+02 -0.12709024394E+02  0.15786932476E+03  0.16022911290E+03  0.00000000000E+00 0.  1.
          5    1    4    4  501    0  0.93316584082E+01  0.73937895769E+02  0.17622457394E+03  0.19138041995E+03  0.41800000000E+01 0. -1.
         -5    1    4    4    0  501 -0.26773337033E+02 -0.43385834364E+02  0.20905014412E+03  0.21521751173E+03  0.41800000000E+01 0. -1.
</event>
<event>
11    1  0.6625361E-009  0.1653491E+03  0.7561462E-02  0.1082151E+00
         22   -1    0    0    0    0  0.00000000000E+00  0.00000000000E+00  0.91434684377E+03  0.91434684377E+03  0.00000000000E+00 0. -1.
         22   -1    0    0    0    0 -0.00000000000E+00 -0.00000000000E+00 -0.29986275949E+03  0.29986275949E+03  0.00000000000E+00 0.  1.
        -24    2    1    2    0    0  0.86787295729E+02  0.63065663447E+02 -0.25426296920E+03  0.28744697569E+03  0.80416377190E+02 0.  0.
         25    2    1    2    0    0 -0.80856587790E+02 -0.10007087814E+03  0.28891355107E+03  0.34010024747E+03  0.12508065357E+03 0.  0.
         24    2    1    2    0    0 -0.59307079394E+01  0.37005214697E+02  0.57983350241E+03  0.58666238010E+03  0.81001842497E+02 0.  0.
        -11    1    5    5    0    0  0.82021094144E+01  0.16730071004E+02  0.24504889596E+02  0.30784078494E+02  0.00000000000E+00 0.  1.
         12    1    5    5    0    0 -0.14132817354E+02  0.20275143693E+02  0.55532861282E+03  0.55587830160E+03  0.00000000000E+00 0. -1.
         13    1    3    3    0    0  0.36672431237E+02  0.74087598027E+02 -0.15157142227E+03  0.17264916867E+03  0.00000000000E+00 0. -1.
        -14    1    3    3    0    0  0.50114864493E+02 -0.11021934581E+02 -0.10269154693E+03  0.11479780701E+03  0.00000000000E+00 0.  1.
          5    1    4    4  501    0 -0.40856378889E+02 -0.99786013672E+02  0.10055835210E+03  0.14749897219E+03  0.41800000000E+01 0.  1.
         -5    1    4    4    0  501 -0.40000208901E+02 -0.28486447124E+00  0.18835519898E+03  0.19260127529E+03  0.41800000000E+01 0.  1.
</event>
<event>
11    1  0.6625361E-009  0.1832780E+03  0.7561462E-02  0.1067022E+00
         22   -1    0    0    0    0  0.00000000000E+00  0.00000000000E+00  0.38024347146E+03  0.38024347146E+03  0.00000000000E+00 0.  1.
         22   -1    0    0    0    0 -0.00000000000E+00 -0.00000000000E+00 -0.13340916975E+04  0.13340916975E+04  0.00000000000E+00 0. -1.
        -24    2    1    2    0    0 -0.11807747694E+03  0.50711550942E+02 -0.95395255628E+03  0.96596620706E+03  0.80939987628E+02 0.  0.
         25    2    1    2    0    0  0.15152692693E+03 -0.50489050252E+02 -0.34087048247E+03  0.39667190791E+03  0.12508542248E+03 0.  0.
         24    2    1    2    0    0 -0.33449449998E+02 -0.22250069028E+00  0.34097481267E+03  0.35169705402E+03  0.79423420472E+02 0.  0.
        -11    1    5    5    0    0 -0.27401075719E+02 -0.31488268139E+02  0.27812423171E+03  0.28123907667E+03  0.00000000000E+00 0.  1.
         12    1    5    5    0    0 -0.60483742794E+01  0.31265767449E+02  0.62850580966E+02  0.70457977358E+02  0.00000000000E+00 0. -1.
         11    1    3    3    0    0 -0.23380578107E+02  0.37299053273E+02 -0.50632356333E+03  0.50823362894E+03  0.00000000000E+00 0. -1.
        -12    1    3    3    0    0 -0.94696898829E+02  0.13412497669E+02 -0.44762899295E+03  0.45773257812E+03  0.00000000000E+00 0.  1.
          5    1    4    4  501    0  0.30796870139E+02 -0.23193940568E+02 -0.55044262827E+01  0.39168574114E+02  0.41800000000E+01 0. -1.
         -5    1    4    4    0  501  0.12073005680E+03 -0.27295109683E+02 -0.33536605619E+03  0.35750333379E+03  0.41800000000E+01 0. -1.
</event>
<event>
11    1  0.6625361E-009  0.1595147E+03  0.7561462E-02  0.1087535E+00
         22   -1    0    0    0    0  0.00000000000E+00  0.00000000000E+00  0.42393970239E+03  0.42393970239E+03  0.00000000000E+00 0. -1.
         22   -1    0    0    0    0 -0.00000000000E+00 -0.00000000000E+00 -0.50096213164E+03  0.50096213164E+03  0.00000000000E+00 0. -1.
        -24    2    1    2    0    0 -0.29507639495E+02  0.10925768366E+02 -0.38316119566E+03  0.39194271040E+03  0.76266068270E+02 0.  0.
         25    2    1    2    0    0  0.12545954457E+03 -0.88368603264E+01 -0.24494914912E+02  0.17906891287E+03  0.12508991677E+03 0.  0.
         24    2    1    2    0    0 -0.95951905075E+02 -0.20889080396E+01  0.33063368133E+03  0.35389021077E+03  0.81905545740E+02 0.  0.
        -13    1    5    5    0    0 -0.41493665210E+02  0.34237050325E+02  0.93337196530E+02  0.10772990357E+03  0.00000000000E+00 0.  1.
         14    1    5    5    0    0 -0.54458239864E+02 -0.36325958364E+02  0.23729648480E+03  0.24616030720E+03  0.00000000000E+00 0. -1.
         11    1    3    3    0    0 -0.38447904708E+02  0.22517965861E+02 -0.36864009165E+03  0.37132306330E+03  0.00000000000E+00 0. -1.
        -12    1    3    3    0    0  0.89402652135E+01 -0.11592197495E+02 -0.14521104008E+02  0.20619647098E+02  0.00000000000E+00 0.  1.
          5    1    4    4  501    0  0.34007297881E+02 -0.52635225355E+02  0.23176526097E+02  0.66944656391E+02  0.41800000000E+01 0. -1.
         -5    1    4    4    0  501  0.91452246688E+02  0.43798365028E+02 -0.47671441009E+02  0.11212425648E+03  0.41800000000E+01 0. -1.
</event>
<event>
11    1  0.6625361E-009  0.2743268E+03  0.7561462E-02  0.1011683E+00
         22   -1    0    0    0    0  0.00000000000E+00  0.00000000000E+00  0.45538602590E+03  0.45538602590E+03  0.00000000000E+00 0. -1.
         22   -1    0    0    0    0 -0.00000000000E+00 -0.00000000000E+00 -0.92468995927E+03  0.92468995927E+03  0.00000000000E+00 0.  1.
        -24    2    1    2    0    0 -0.74209652791E+02 -0.76110895207E+02 -0.87780136980E+03  0.88801365965E+03  0.82055310395E+02 0.  0.
         25    2    1    2    0    0 -0.17322277176E+02  0.29380120714E+01  0.15305523087E+03  0.19844792180E+03  0.12508789218E+03 0.  0.
         24    2    1    2    0    0  0.91531929967E+02  0.73172883136E+02  0.25544220556E+03  0.29361440371E+03  0.85007838784E+02 0.  0.
        -11    1    5    5    0    0  0.71468626111E+02  0.56252564402E+02  0.96833767691E+02  0.13284914033E+03  0.00000000000E+00 0.  1.
         12    1    5    5    0    0  0.20063303855E+02  0.16920318734E+02  0.15860843787E+03  0.16076526339E+03  0.00000000000E+00 0. -1.
         11    1    3    3    0    0 -0.51867268173E+02 -0.13278733682E+02 -0.20358828408E+03  0.21051063558E+03  0.00000000000E+00 0. -1.
        -12    1    3    3    0    0 -0.22342384618E+02 -0.62832161525E+02 -0.67421308572E+03  0.67750302407E+03  0.00000000000E+00 0.  1.
          5    1    4    4  501    0 -0.43183035191E+02 -0.45469826966E+02  0.45374131581E+02  0.77514927010E+02  0.41800000000E+01 0. -1.
         -5    1    4    4    0  501  0.25860758015E+02  0.48407839037E+02  0.10768109929E+03  0.12093299479E+03  0.41800000000E+01 0. -1.
</event>
<event>
11    1  0.6625361E-009  0.1803156E+03  0.7561462E-02  0.1069388E+00
         22   -1    0    0    0    0  0.00000000000E+00  0.00000000000E+00  0.22596956518E+03  0.22596956518E+03  0.00000000000E+00 0.  1.
         22   -1    0    0    0    0 -0.00000000000E+00 -0.00000000000E+00 -0.12126536193E+04  0.12126536193E+04  0.00000000000E+00 0.  1.
         24    2    1    2    0    0  0.49308475880E+02  0.30904732383E+02 -0.90803354734E+03  0.91348928171E+03  0.80940202769E+02 0.  0.
         25    2    1    2    0    0 -0.16833037389E+03  0.10672211025E+02 -0.23017910527E+03  0.31156462306E+03  0.12506431535E+03 0.  0.
        -24    2    1    2    0    0  0.11902189801E+03 -0.41576943408E+02  0.15152859846E+03  0.21356927975E+03  0.82195295903E+02 0.  0.
        -13    1    3    3    0    0  0.55396367915E+02  0.39666940751E+01 -0.80191453638E+03  0.80383544081E+03  0.00000000000E+00 0.  1.
         14    1    3    3    0    0 -0.60878920347E+01  0.26938038308E+02 -0.10611901096E+03  0.10965384090E+03  0.00000000000E+00 0. -1.
         13    1    5    5    0    0 -0.83457296113E+01 -0.18931794912E+02  0.26911142274E+02  0.33945156353E+02  0.00000000000E+00 0. -1.
        -14    1    5    5    0    0  0.12736762763E+03 -0.22645148496E+02  0.12461745619E+03  0.17962412339E+03  0.00000000000E+00 0.  1.
          5    1    4    4  501    0 -0.14572905761E+03  0.53925026053E+02 -0.14122175017E+03  0.21001409902E+03  0.41800000000E+01 0.  1.
         -5    1    4    4    0  501 -0.22601316283E+02 -0.43252815028E+02 -0.88957355098E+02  0.10155052403E+03  0.41800000000E+01 0.  1.
</event>
<event>
11    1  0.6625361E-009  0.1530275E+03  0.7561462E-02  0.1093825E+00
         22   -1    0    0    0    0  0.00000000000E+00  0.00000000000E+00  0.12194758407E+03  0.12194758407E+03  0.00000000000E+00 0. -1.
         22   -1    0    0    0    0 -0.00000000000E+00 -0.00000000000E+00 -0.48855779724E+03  0.48855779724E+03  0.00000000000E+00 0.  1.
        -24    2    1    2    0    0  0.61549196025E+01  0.20096107880E+02 -0.31520331958E+03  0.32955385043E+03  0.93866240335E+02 0.  0.
         25    2    1    2    0    0 -0.90141103342E+02 -0.28706654148E+02 -0.34972481182E+02  0.16068556950E+03  0.12508911744E+03 0.  0.
         24    2    1    2    0    0  0.83986183740E+02  0.86105462684E+01 -0.16434412412E+02  0.12026596137E+03  0.84059449125E+02 0.  0.
        -11    1    5    5    0    0  0.18144899905E+02  0.39816933103E+02  0.56753907403E+01  0.44122960172E+02  0.00000000000E+00 0.  1.
         12    1    5    5    0    0  0.65841283835E+02 -0.31206386835E+02 -0.22109803152E+02  0.76143001200E+02  0.00000000000E+00 0. -1.
         13    1    3    3    0    0  0.45558062878E+02  0.18248193255E+02 -0.10798028590E+03  0.11860976264E+03  0.00000000000E+00 0. -1.
        -14    1    3    3    0    0 -0.39403143275E+02  0.18479146248E+01 -0.20722303367E+03  0.21094408779E+03  0.00000000000E+00 0.  1.
          5    1    4    4  501    0 -0.56281266055E+02 -0.72791342508E+02 -0.47378115333E+02  0.10357759731E+03  0.41800000000E+01 0. -1.
         -5    1    4    4    0  501 -0.33859837287E+02  0.44084688360E+02  0.12405634151E+02  0.57107972189E+02  0.41800000000E+01 0. -1.
</event>
<event>
11    1  0.6625361E-009  0.1320656E+03  0.7561462E-02  0.1116757E+00
         22   -1    0    0    0    0  0.00000000000E+00  0.00000000000E+00  0.15075455269E+04  0.15075455269E+04  0.00000000000E+00 0. -1.
         22   -1    0    0    0    0 -0.00000000000E+00 -0.00000000000E+00 -0.10139437023E+04  0.10139437023E+04  0.00000000000E+00 0.  1.
         24    2    1    2    0    0 -0.35077140925E+02  0.24414129108E+02 -0.34387320290E+03  0.35496464314E+03  0.76971830493E+02 0.  0.
         25    2    1    2    0    0  0.21636056150E+01  0.23557875469E+01 -0.65721101496E+03  0.66901839446E+03  0.12509621502E+03 0.  0.
        -24    2    1    2    0    0  0.32913535310E+02 -0.26769916655E+02  0.14946860424E+04  0.14975061916E+04  0.81476986021E+02 0.  0.
        -13    1    3    3    0    0  0.95820579848E+01 -0.79163391533E+01 -0.20744817026E+03  0.20782018094E+03  0.00000000000E+00 0.  1.
         14    1    3    3    0    0 -0.44659198910E+02  0.32330468261E+02 -0.13642503264E+03  0.14714446220E+03  0.00000000000E+00 0. -1.
         11    1    5    5    0    0 -0.10415310994E+02 -0.16355932235E+02  0.11216870232E+04  0.11218546133E+04  0.00000000000E+00 0. -1.
        -12    1    5    5    0    0  0.43328846304E+02 -0.10413984420E+02  0.37299901917E+03  0.37565157833E+03  0.00000000000E+00 0.  1.
          5    1    4    4  501    0  0.14664771536E+02 -0.34855801726E+02 -0.58884709745E+03  0.59007487577E+03  0.41800000000E+01 0. -1.
         -5    1    4    4    0  501 -0.12501165921E+02  0.37211589273E+02 -0.68363917509E+02  0.78943518688E+02  0.41800000000E+01 0. -1.
</event>
<event>
11    1  0.1130545E-008  0.1767552E+03  0.7561462E-02  0.1072298E+00
         22   -1    0    0    0    0  0.00000000000E+00  0.00000000000E+00  0.10686007813E+04  0.10686007813E+04  0.00000000000E+00 0.  1.
         22   -1    0    0    0    0 -0.00000000000E+00 -0.00000000000E+00 -0.50000948333E+03  0.50000948333E+03  0.00000000000E+00 0. -1.
        -24    2    1    2    0    0  0.23448003093E+02  0.73977079406E+02 -0.26206424683E+03  0.28496871927E+03  0.80666500920E+02 0.  0.
         25    2    1    2    0    0 -0.13157369881E+03 -0.10698344047E+02 -0.18359871082E+03  0.25842207693E+03  0.12508952971E+03 0.  0.
         24    2    1    2    0    0  0.10812569571E+03 -0.63278735359E+02  0.10142542556E+04  0.10252194684E+04  0.81657203980E+02 0.  0.
        -11    1    5    5    0    0  0.11372034232E+03 -0.73452538674E+02  0.97262071760E+03  0.98199727698E+03  0.00000000000E+00 0.  1.
         12    1    5    5    0    0 -0.55946466080E+01  0.10173803315E+02  0.41633537990E+02  0.43222191408E+02  0.00000000000E+00 0. -1.
         13    1    3    3    0    0  0.37869930918E+02  0.13912484299E+02 -0.16542719259E+03  0.17027579081E+03  0.00000000000E+00 0. -1.
        -14    1    3    3    0    0 -0.14421927825E+02  0.60064595107E+02 -0.96637054240E+02  0.11469292846E+03  0.00000000000E+00 0.  1.
          5    1    4    4  501    0 -0.79274411259E+02 -0.49542045081E+02 -0.16641249667E+03  0.19091735898E+03  0.41800000000E+01 0.  1.
         -5    1    4    4    0  501 -0.52299287548E+02  0.38843701034E+02 -0.17186214150E+02  0.67504717945E+02  0.41800000000E+01 0.  1.
</event>
<event>
11    1  0.6625361E-009  0.1451228E+03  0.7561462E-02  0.1101969E+00
         22   -1    0    0    0    0  0.00000000000E+00  0.00000000000E+00  0.75522331701E+03  0.75522331701E+03  0.00000000000E+00 0.  1.
         22   -1    0    0    0    0 -0.00000000000E+00 -0.00000000000E+00 -0.48347251301E+03  0.48347251301E+03  0.00000000000E+00 0.  1.
        -24    2    1    2    0    0  0.45755168751E+02 -0.57681410425E+02 -0.45219142673E+03  0.46518283756E+03  0.80605864404E+02 0.  0.
         25    2    1    2    0    0 -0.21529151999E+02  0.73748180251E+02  0.23323437220E+03  0.27558852031E+03  0.12509381149E+03 0.  0.
         24    2    1    2    0    0 -0.24226016752E+02 -0.16066769827E+02  0.49070785853E+03  0.49792447215E+03  0.79306598449E+02 0.  0.
        -11    1    5    5    0    0 -0.49279421074E+02 -0.65771461436E+01  0.40721701564E+03  0.41024068303E+03  0.00000000000E+00 0.  1.
         12    1    5    5    0    0  0.25053404322E+02 -0.94896236830E+01  0.83490842899E+02  0.87683789116E+02  0.00000000000E+00 0. -1.
         11    1    3    3    0    0  0.20999882527E+02  0.81174375500E+01 -0.25204725212E+03  0.25305079561E+03  0.00000000000E+00 0. -1.
        -12    1    3    3    0    0  0.24755286224E+02 -0.65798847975E+02 -0.20014417461E+03  0.21213204195E+03  0.00000000000E+00 0.  1.
          5    1    4    4  501    0 -0.20988350461E+02  0.28867191299E+02 -0.20804761046E+01  0.35994810312E+02  0.41800000000E+01 0. -1.
         -5    1    4    4    0  501 -0.54080153803E+00  0.44880988953E+02  0.23531484831E+03  0.23959371000E+03  0.41800000000E+01 0. -1.
</event>
<event>
11    1  0.6625361E-009  0.1574679E+03  0.7561462E-02  0.1089483E+00
         22   -1    0    0    0    0  0.00000000000E+00  0.00000000000E+00  0.19182363199E+03  0.19182363199E+03  0.00000000000E+00 0.  1.
         22   -1    0    0    0    0 -0.00000000000E+00 -0.00000000000E+00 -0.15498325099E+04  0.15498325099E+04  0.00000000000E+00 0.  1.
        -24    2    1    2    0    0  0.70780822179E+02 -0.81692626855E+01 -0.13974316578E+04  0.14014766575E+04  0.79024816370E+02 0.  0.
         25    2    1    2    0    0 -0.52211988504E+02 -0.88937865760E+02 -0.67138711958E+02  0.17547187462E+03  0.12508691550E+03 0.  0.
         24    2    1    2    0    0 -0.18568833676E+02  0.97107128445E+02  0.10656149186E+03  0.16470760978E+03  0.77450947021E+02 0.  0.
        -13    1    5    5    0    0  0.12258373550E+02  0.91104323611E+02  0.92121418268E+02  0.13014077457E+03  0.00000000000E+00 0.  1.
         14    1    5    5    0    0 -0.30827207226E+02  0.60028048342E+01  0.14440073593E+02  0.34566835212E+02  0.00000000000E+00 0. -1.
         11    1    3    3    0    0 -0.11593266473E+02 -0.18458214428E+02 -0.20396805898E+03  0.20512941913E+03  0.00000000000E+00 0. -1.
        -12    1    3    3    0    0  0.82374088653E+02  0.10288951743E+02 -0.11934635988E+04  0.11963472383E+04  0.00000000000E+00 0.  1.
          5    1    4    4  501    0 -0.52309253306E+00 -0.64707918778E+02 -0.92418972035E+02  0.11289874743E+03  0.41800000000E+01 0. -1.
         -5    1    4    4    0  501 -0.51688895971E+02 -0.24229946981E+02  0.25280260077E+02  0.62573127195E+02  0.41800000000E+01 0. -1.
</event>
<event>
11    1  0.6625361E-009  0.1413778E+03  0.7561462E-02  0.1106030E+00
         22   -1    0    0    0    0  0.00000000000E+00  0.00000000000E+00  0.32199566020E+03  0.32199566020E+03  0.00000000000E+00 0.  1.
         22   -1    0    0    0    0 -0.00000000000E+00 -0.00000000000E+00 -0.14423748006E+03  0.14423748006E+03  0.00000000000E+00 0.  1.
         24    2    1    2    0    0 -0.87960830328E+01  0.59933217499E+02 -0.50872136408E+02  0.11436271844E+03  0.82592345101E+02 0.  0.
         25    2    1    2    0    0  0.57841312203E+02 -0.77391458159E+02  0.85983938221E+02  0.17993409651E+03  0.12509191125E+03 0.  0.
        -24    2    1    2    0    0 -0.49045229170E+02  0.17458240660E+02  0.14264637833E+03  0.17193632532E+03  0.80646674095E+02 0.  0.
        -13    1    3    3    0    0 -0.17021372951E+02  0.69868229759E+02 -0.63775985180E+02  0.96118015755E+02  0.00000000000E+00 0.  1.
         14    1    3    3    0    0  0.82252899186E+01 -0.99350122602E+01  0.12903848773E+02  0.18244702683E+02  0.00000000000E+00 0. -1.
         13    1    5    5    0    0 -0.12828419190E+02 -0.15244910357E+02 -0.12774959248E+01  0.19965160318E+02  0.00000000000E+00 0. -1.
        -14    1    5    5    0    0 -0.36216809981E+02  0.32703151017E+02  0.14392387425E+03  0.15197116500E+03  0.00000000000E+00 0.  1.
          5    1    4    4  501    0  0.84346841706E+02 -0.84322048017E+02  0.39301461143E+02  0.12564503466E+03  0.41800000000E+01 0. -1.
         -5    1    4    4    0  501 -0.26505529503E+02  0.69305898584E+01  0.46682477078E+02  0.54289061846E+02  0.41800000000E+01 0. -1.
</event>
<event>
11    1  0.6625361E-009  0.1479794E+03  0.7561462E-02  0.1098961E+00
         22   -1    0    0    0    0  0.00000000000E+00  0.00000000000E+00  0.23246464032E+04  0.23246464032E+04  0.00000000000E+00 0.  1.
         22   -1    0    0    0    0 -0.00000000000E+00 -0.00000000000E+00 -0.66315034265E+03  0.66315034265E+03  0.00000000000E+00 0. -1.
         24    2    1    2    0    0  0.27632081351E+02  0.49269916347E+02 -0.30174164629E+03  0.31660358592E+03  0.77451616722E+02 0.  0.
         25    2    1    2    0    0 -0.60612989049E+02  0.22732682086E+02 -0.33845801053E+03  0.36659500735E+03  0.12508942900E+03 0.  0.
        -24    2    1    2    0    0  0.32980907698E+02 -0.72002598433E+02  0.23016957173E+04  0.23045981525E+04  0.84245801292E+02 0.  0.
        -13    1    3    3    0    0 -0.14791231156E+02  0.51206995280E+02 -0.16088226800E+03  0.16948168350E+03  0.00000000000E+00 0.  1.
         14    1    3    3    0    0  0.42423312507E+02 -0.19370789328E+01 -0.14085937829E+03  0.14712190242E+03  0.00000000000E+00 0. -1.
         13    1    5    5    0    0  0.22399483443E+02 -0.81905669013E+02  0.12866181197E+04  0.12894171014E+04  0.00000000000E+00 0. -1.
        -14    1    5    5    0    0  0.10581424255E+02  0.99030705804E+01  0.10150775976E+04  0.10151810511E+04  0.00000000000E+00 0.  1.
          5    1    4    4  501    0 -0.56648874301E+01  0.64036250721E+02 -0.22338188041E+03  0.23248584742E+03  0.41800000000E+01 0.  1.
         -5    1    4    4    0  501 -0.54948101619E+02 -0.41303568636E+02 -0.11507613012E+03  0.13410915993E+03  0.41800000000E+01 0.  1.
</event>
<event>
11    1  0.6625361E-009  0.1373663E+03  0.7561462E-02  0.1110536E+00
         22   -1    0    0    0    0  0.00000000000E+00  0.00000000000E+00  0.39014747880E+03  0.39014747880E+03  0.00000000000E+00 0. -1.
         22   -1    0    0    0    0 -0.00000000000E+00 -0.00000000000E+00 -0.85474304907E+03  0.85474304907E+03  0.00000000000E+00 0. -1.
        -24    2    1    2    0    0 -0.52574331616E+02  0.10907219225E+02 -0.69548926517E+03  0.70230892234E+03  0.81544323210E+02 0.  0.
         25    2    1    2    0    0  0.89276989319E+02 -0.29439708565E+02 -0.10899286470E+03  0.19069477940E+03  0.12509187452E+03 0.  0.
         24    2    1    2    0    0 -0.36702657703E+02  0.18532489340E+02  0.33988655960E+03  0.35188682613E+03  0.81307605840E+02 0.  0.
        -11    1    5    5    0    0 -0.32089906557E+02  0.20865429466E+02  0.55308730802E+02  0.67262054329E+02  0.00000000000E+00 0.  1.
         12    1    5    5    0    0 -0.46127511465E+01 -0.23329401256E+01  0.28457782880E+03  0.28462477181E+03  0.00000000000E+00 0. -1.
         13    1    3    3    0    0 -0.43539659421E+02 -0.20186358845E+02 -0.59032947476E+03  0.59227702960E+03  0.00000000000E+00 0. -1.
        -14    1    3    3    0    0 -0.90346721952E+01  0.31093578069E+02 -0.10515979041E+03  0.11003189273E+03  0.00000000000E+00 0.  1.
          5    1    4    4  501    0  0.12128700243E+03 -0.22260891405E+02 -0.84614196795E+02  0.14960988919E+03  0.41800000000E+01 0.  1.
         -5    1    4    4    0  501 -0.32010013106E+02 -0.71788171593E+01 -0.24378667909E+02  0.41084890214E+02  0.41800000000E+01 0.  1.
</event>
<event>
11    1  0.6625361E-009  0.1299340E+03  0.7561462E-02  0.1119350E+00
         22   -1    0    0    0    0  0.00000000000E+00  0.00000000000E+00  0.19841539192E+03  0.19841539192E+03  0.00000000000E+00 0.  1.
         22   -1    0    0    0    0 -0.00000000000E+00 -0.00000000000E+00 -0.15517241826E+04  0.15517241826E+04  0.00000000000E+00 0. -1.
        -24    2    1    2    0    0 -0.14729382775E+02  0.28529919591E+02 -0.14754638764E+04  0.14780435617E+04  0.81167782037E+02 0.  0.
         25    2    1    2    0    0 -0.20539170309E+02 -0.91593412506E+01  0.79261654454E+01  0.12738006299E+03  0.12512835530E+03 0.  0.
         24    2    1    2    0    0  0.35268553084E+02 -0.19370578341E+02  0.11422892026E+03  0.14471594980E+03  0.79217231469E+02 0.  0.
        -11    1    5    5    0    0  0.36401211527E+02  0.17209056989E+02  0.95422276930E+02  0.10356935250E+03  0.00000000000E+00 0.  1.
         12    1    5    5    0    0 -0.11326584433E+01 -0.36579635330E+02  0.18806643327E+02  0.41146597298E+02  0.00000000000E+00 0. -1.
         13    1    3    3    0    0 -0.44256797194E+01  0.56914732178E+02 -0.95830164506E+03  0.96000047724E+03  0.00000000000E+00 0. -1.
        -14    1    3    3    0    0 -0.10303703055E+02 -0.28384812587E+02 -0.51716223130E+03  0.51804308446E+03  0.00000000000E+00 0.  1.
          5    1    4    4  501    0  0.31859721224E+02 -0.22614206802E+02 -0.39206748522E+02  0.55507528457E+02  0.41800000000E+01 0.  1.
         -5    1    4    4    0  501 -0.52398891533E+02  0.13454865551E+02  0.47132913968E+02  0.71872534531E+02  0.41800000000E+01 0.  1.
</event>
<event>
11    1  0.6625361E-009  0.1479831E+03  0.7561462E-02  0.1098958E+00
         22   -1    0    0    0    0  0.00000000000E+00  0.00000000000E+00  0.37681839152E+03  0.37681839152E+03  0.00000000000E+00 0. -1.
         22   -1    0    0    0    0 -0.00000000000E+00 -0.00000000000E+00 -0.46438101927E+03  0.46438101927E+03  0.00000000000E+00 0. -1.
        -24    2    1    2    0    0 -0.57430612087E+01 -0.71537959817E+01 -0.39850706854E+03  0.40673411589E+03  0.80873962464E+02 0.  0.
         25    2    1    2    0    0 -0.33672241579E+02  0.74929758870E+02  0.62852908637E+02  0.16231682764E+03  0.12509186942E+03 0.  0.
         24    2    1    2    0    0  0.39415302787E+02 -0.67775962888E+02  0.24809153215E+03  0.27214846726E+03  0.79801207174E+02 0.  0.
        -11    1    5    5    0    0  0.11430586358E+02  0.17105451372E+02  0.29257256776E+02  0.35766490535E+02  0.00000000000E+00 0.  1.
         12    1    5    5    0    0  0.27984716429E+02 -0.84881414260E+02  0.21883427537E+03  0.23638197672E+03  0.00000000000E+00 0. -1.
         11    1    3    3    0    0 -0.11571878910E+02  0.16117305008E+02 -0.36492161125E+03  0.36546061109E+03  0.00000000000E+00 0. -1.
        -12    1    3    3    0    0  0.58288177017E+01 -0.23271100989E+02 -0.33585457288E+02  0.41273504798E+02  0.00000000000E+00 0.  1.
          5    1    4    4  501    0 -0.88681764883E+01  0.69041913588E+02  0.97020803211E+02  0.11948196116E+03  0.41800000000E+01 0. -1.
         -5    1    4    4    0  501 -0.24804065090E+02  0.58878452812E+01 -0.34167894574E+02  0.42834866484E+02  0.41800000000E+01 0. -1.
</event>
<event>
11    1  0.6625361E-009  0.1419678E+03  0.7561462E-02  0.1105381E+00
         22   -1    0    0    0    0  0.00000000000E+00  0.00000000000E+00  0.62147714973E+03  0.62147714973E+03  0.00000000000E+00 0. -1.
         22   -1    0    0    0    0 -0.00000000000E+00 -0.00000000000E+00 -0.48227788837E+03  0.48227788837E+03  0.00000000000E+00 0.  1.
         24    2    1    2    0    0 -0.34494875441E+02  0.54062529603E+02 -0.33561473790E+03  0.35081938798E+03  0.79525701196E+02 0.  0.
         25    2    1    2    0    0  0.86774155346E+01 -0.92894321737E+02 -0.90267392040E+02  0.18027834520E+03  0.12508967636E+03 0.  0.
        -24    2    1    2    0    0  0.25817459907E+02  0.38831792133E+02  0.56508139131E+03  0.57265730492E+03  0.80280512954E+02 0.  0.
        -13    1    3    3    0    0  0.11388985793E+02  0.43742702724E+02 -0.24052117682E+03  0.24473162758E+03  0.00000000000E+00 0.  1.
         14    1    3    3    0    0 -0.45883861234E+02  0.10319826880E+02 -0.95093561077E+02  0.10608776040E+03  0.00000000000E+00 0. -1.
         11    1    5    5    0    0  0.24063747743E+02  0.23200071357E+02  0.72606710610E+02  0.79931481233E+02  0.00000000000E+00 0. -1.
        -12    1    5    5    0    0  0.17537121637E+01  0.15631720777E+02  0.49247468069E+03  0.49272582369E+03  0.00000000000E+00 0.  1.
          5    1    4    4  501    0  0.18796720504E+02 -0.10405833171E+03 -0.11162070182E+03  0.15381191948E+03  0.41800000000E+01 0. -1.
         -5    1    4    4    0  501 -0.10119304969E+02  0.11164009978E+02  0.21353309777E+02  0.26466425718E+02  0.41800000000E+01 0. -1.
</event>
<event>
11    1  0.6625361E-009  0.1854182E+03  0.7561462E-02  0.1065343E+00
         22   -1    0    0    0    0  0.00000000000E+00  0.00000000000E+00  0.10465874791E+04  0.10465874791E+04  0.00000000000E+00 0. -1.
         22   -1    0    0    0    0 -0.00000000000E+00 -0.00000000000E+00 -0.41329574190E+03  0.41329574190E+03  0.00000000000E+00 0.  1.
        -24    2    1    2    0    0  0.12498918655E+03  0.66856797962E+02 -0.26915853419E+03  0.31358620147E+03  0.76143686780E+02 0.  0.
         25    2    1    2    0    0 -0.11369998591E+03 -0.47218737953E+02 -0.54587685617E+02  0.18380735037E+03  0.12509208855E+03 0.  0.
         24    2    1    2    0    0 -0.11289200641E+02 -0.19638060009E+02  0.95703795700E+03  0.96248966917E+03  0.99757769908E+02 0.  0.
        -11    1    5    5    0    0 -0.41933606633E+02  0.18472791984E+02  0.28355332352E+03  0.28723189010E+03  0.00000000000E+00 0.  1.
         12    1    5    5    0    0  0.30644405992E+02 -0.38110851993E+02  0.67348463348E+03  0.67525777907E+03  0.00000000000E+00 0. -1.
         11    1    3    3    0    0 -0.87500175446E+01  0.25598155310E+01 -0.45043441507E+01  0.10168804198E+02  0.00000000000E+00 0. -1.
        -12    1    3    3    0    0  0.13373920410E+03  0.64296982431E+02 -0.26465419004E+03  0.30341739727E+03  0.00000000000E+00 0.  1.
          5    1    4    4  501    0  0.78180650245E+01 -0.52868122887E+02 -0.12802942688E+02  0.55113957395E+02  0.41800000000E+01 0. -1.
         -5    1    4    4    0  501 -0.12151805094E+03  0.56493849337E+01 -0.41784742929E+02  0.12869339297E+03  0.41800000000E+01 0. -1.
</event>
<event>
11    1  0.6625361E-009  0.1329055E+03  0.7561462E-02  0.1115750E+00
         22   -1    0    0    0    0  0.00000000000E+00  0.00000000000E+00  0.69078273379E+03  0.69078273379E+03  0.00000000000E+00 0. -1.
         22   -1    0    0    0    0 -0.00000000000E+00 -0.00000000000E+00 -0.12252698067E+03  0.12252698067E+03  0.00000000000E+00 0. -1.
        -24    2    1    2    0    0  0.59998537432E+01  0.18189857702E+02 -0.58064557817E+02  0.10018734882E+03  0.79367139428E+02 0.  0.
         25    2    1    2    0    0  0.54769183728E+01 -0.60092606587E+02  0.82664034968E+02  0.16162463403E+03  0.12509221257E+03 0.  0.
         24    2    1    2    0    0 -0.11476772116E+02  0.41902748885E+02  0.54365627597E+03  0.55149773160E+03  0.81853801995E+02 0.  0.
        -11    1    5    5    0    0  0.16209406903E+02 -0.15712364603E+02  0.70063831243E+02  0.73610894045E+02  0.00000000000E+00 0.  1.
         12    1    5    5    0    0 -0.27686179018E+02  0.57615113488E+02  0.47359244473E+03  0.47788683756E+03  0.00000000000E+00 0. -1.
         13    1    3    3    0    0  0.11948570683E+02  0.48909229720E+02 -0.36490099051E+02  0.62180450480E+02  0.00000000000E+00 0. -1.
        -14    1    3    3    0    0 -0.59487169394E+01 -0.30719372018E+02 -0.21574458766E+02  0.38006898340E+02  0.00000000000E+00 0.  1.
          5    1    4    4  501    0  0.32825948433E+02 -0.17618130547E+02  0.10098961913E+03  0.10772333539E+03  0.41800000000E+01 0.  1.
         -5    1    4    4    0  501 -0.27349030060E+02 -0.42474476040E+02 -0.18325584163E+02  0.53901298640E+02  0.41800000000E+01 0.  1.
</event>
<event>
11    1  0.6625361E-009  0.1427025E+03  0.7561462E-02  0.1104578E+00
         22   -1    0    0    0    0  0.00000000000E+00  0.00000000000E+00  0.64978706930E+03  0.64978706930E+03  0.00000000000E+00 0.  1.
         22   -1    0    0    0    0 -0.00000000000E+00 -0.00000000000E+00 -0.11131123652E+04  0.11131123652E+04  0.00000000000E+00 0.  1.
        -24    2    1    2    0    0 -0.20725567649E+02 -0.41818077607E+02 -0.10441227403E+04  0.10482420930E+04  0.80255142354E+02 0.  0.
         25    2    1    2    0    0  0.73874835619E+02  0.80269581909E+02  0.48966244319E+02  0.17306760458E+03  0.12511596843E+03 0.  0.
         24    2    1    2    0    0 -0.53149267970E+02 -0.38451504302E+02  0.53183120013E+03  0.54158973691E+03  0.78559880545E+02 0.  0.
        -13    1    5    5    0    0 -0.68285574140E+02 -0.35717632098E+02  0.50340176874E+03  0.50926614815E+03  0.00000000000E+00 0.  1.
         14    1    5    5    0    0  0.15136306169E+02 -0.27338722038E+01  0.28429431391E+02  0.32323588769E+02  0.00000000000E+00 0. -1.
         11    1    3    3    0    0 -0.33002569862E+02  0.10565598874E+02 -0.26372527056E+03  0.26599214241E+03  0.00000000000E+00 0. -1.
        -12    1    3    3    0    0  0.12277002213E+02 -0.52383676481E+02 -0.78039746979E+03  0.78224995059E+03  0.00000000000E+00 0.  1.
          5    1    4    4  501    0  0.81078372765E+02  0.52685775180E+02  0.83687719828E+02  0.12794764666E+03  0.41800000000E+01 0. -1.
         -5    1    4    4    0  501 -0.72035371462E+01  0.27583806729E+02 -0.34721475510E+02  0.45119957919E+02  0.41800000000E+01 0. -1.
</event>
<event>
11    1  0.6625361E-009  0.1508871E+03  0.7561462E-02  0.1095976E+00
         22   -1    0    0    0    0  0.00000000000E+00  0.00000000000E+00  0.38145147200E+03  0.38145147200E+03  0.00000000000E+00 0. -1.
         22   -1    0    0    0    0 -0.00000000000E+00 -0.00000000000E+00 -0.53529729730E+03  0.53529729730E+03  0.00000000000E+00 0.  1.
         24    2    1    2    0    0 -0.78269528827E+02 -0.31473898756E+02 -0.46524456960E+03  0.47989649781E+03  0.82045192553E+02 0.  0.
         25    2    1    2    0    0  0.68273910351E+02  0.56439402686E+02  0.48375717611E+02  0.16072834888E+03  0.12508660628E+03 0.  0.
        -24    2    1    2    0    0  0.99956184758E+01 -0.24965503930E+02  0.26302302669E+03  0.27612392260E+03  0.79624866017E+02 0.  0.
        -13    1    3    3    0    0 -0.45646017418E+02  0.27118636011E+01 -0.37729828253E+03  0.38005908371E+03  0.00000000000E+00 0.  1.
         14    1    3    3    0    0 -0.32623511409E+02 -0.34185762357E+02 -0.87946287074E+02  0.99837414102E+02  0.00000000000E+00 0. -1.
         11    1    5    5    0    0 -0.34249900801E+01 -0.51209218979E+02  0.20105917728E+03  0.20750640336E+03  0.00000000000E+00 0. -1.
        -12    1    5    5    0    0  0.13420608556E+02  0.26243715048E+02  0.61963849406E+02  0.68617519241E+02  0.00000000000E+00 0.  1.
          5    1    4    4  501    0  0.31256120507E+01 -0.33364007594E+02  0.35439843597E+02  0.48952848412E+02  0.41800000000E+01 0.  1.
         -5    1    4    4    0  501  0.65148298300E+02  0.89803410281E+02  0.12935874014E+02  0.11177550047E+03  0.41800000000E+01 0.  1.
</event>
<event>
11    1  0.6625361E-009  0.1693552E+03  0.7561462E-02  0.1078594E+00
         22   -1    0    0    0    0  0.00000000000E+00  0.00000000000E+00  0.24045081577E+04  0.24045081577E+04  0.00000000000E+00 0. -1.
         22   -1    0    0    0    0 -0.00000000000E+00 -0.00000000000E+00 -0.43612265431E+04  0.43612265431E+04  0.00000000000E+00 0.  1.
         24    2    1    2    0    0 -0.21148993770E+02 -0.44248146075E+02 -0.40070906392E+04  0.40081955329E+04  0.80317252502E+02 0.  0.
         25    2    1    2    0    0 -0.75298743461E+02 -0.17288304145E+02 -0.33615631419E+03  0.36690243246E+03  0.12509013210E+03 0.  0.
        -24    2    1    2    0    0  0.96447737231E+02  0.61536450219E+02  0.23865285680E+04  0.23906367354E+04  0.80848587494E+02 0.  0.
        -13    1    3    3    0    0 -0.10382474546E+02 -0.60056007427E+02 -0.37043491963E+04  0.37048505352E+04  0.00000000000E+00 0.  1.
         14    1    3    3    0    0 -0.10766519225E+02  0.15807861352E+02 -0.30274144288E+03  0.30334499774E+03  0.00000000000E+00 0. -1.
         11    1    5    5    0    0  0.50429476519E+02 -0.13110629177E+02  0.81605990799E+03  0.81772170946E+03  0.00000000000E+00 0. -1.
        -12    1    5    5    0    0  0.46018260711E+02  0.74647079396E+02  0.15704686600E+04  0.15729150259E+04  0.00000000000E+00 0.  1.
          5    1    4    4  501    0  0.95410635016E+01 -0.31534686467E+02 -0.19004793120E+02  0.38263858991E+02  0.41800000000E+01 0. -1.
         -5    1    4    4    0  501 -0.84839806962E+02  0.14246382323E+02 -0.31715152107E+03  0.32863857347E+03  0.41800000000E+01 0. -1.
</event>
<event>
11    1  0.6625361E-009  0.1335651E+03  0.7561462E-02  0.1114965E+00
         22   -1    0    0    0    0  0.00000000000E+00  0.00000000000E+00  0.35352654277E+03  0.35352654277E+03  0.00000000000E+00 0. -1.
         22   -1    0    0    0    0 -0.00000000000E+00 -0.00000000000E+00 -0.36252322105E+03  0.36252322105E+03  0.00000000000E+00 0. -1.
         24    2    1    2    0    0  0.89492658863E+01  0.14712999491E+02 -0.18871518923E+03  0.20518229851E+03  0.78675226491E+02 0.  0.
         25    2    1    2    0    0  0.35470001382E+02 -0.29983595244E+02 -0.13065080791E+03  0.18674575534E+03  0.12508879465E+03 0.  0.
        -24    2    1    2    0    0 -0.44419267268E+02  0.15270595753E+02  0.31036931887E+03  0.32412170997E+03  0.80743460291E+02 0.  0.
        -11    1    3    3    0    0  0.41339797300E+02  0.13516764333E+02 -0.72629538003E+02  0.84656550541E+02  0.00000000000E+00 0.  1.
         12    1    3    3    0    0 -0.32390531414E+02  0.11962351578E+01 -0.11608565122E+03  0.12052574797E+03  0.00000000000E+00 0. -1.
         13    1    5    5    0    0 -0.44387138154E+02  0.44719803880E+02  0.18880694216E+03  0.19904306143E+03  0.00000000000E+00 0. -1.
        -14    1    5    5    0    0 -0.32129113885E-01 -0.29449208126E+02  0.12156237671E+03  0.12507864855E+03  0.00000000000E+00 0.  1.
          5    1    4    4  501    0 -0.44783274655E+02 -0.97656779744E+01 -0.71115541589E+02  0.84710110439E+02  0.41800000000E+01 0.  1.
         -5    1    4    4    0  501  0.80253276037E+02 -0.20217917270E+02 -0.59535266325E+02  0.10203564490E+03  0.41800000000E+01 0.  1.
</event>
<event>
11    1  0.7119700E-009  0.2148002E+03  0.7561462E-02  0.1044524E+00
         22   -1    0    0    0    0  0.00000000000E+00  0.00000000000E+00  0.47158206627E+03  0.47158206627E+03  0.00000000000E+00 0.  1.
         22   -1    0    0    0    0 -0.00000000000E+00 -0.00000000000E+00 -0.31340015809E+04  0.31340015809E+04  0.00000000000E+00 0. -1.
         24    2    1    2    0    0  0.94795645981E+02  0.64707816023E+02 -0.23261927088E+04  0.23303813573E+04  0.79570319928E+02 0.  0.
         25    2    1    2    0    0 -0.25986297595E+03 -0.11240996825E+03 -0.75470646150E+03  0.81572123623E+03  0.12511804417E+03 0.  0.
        -24    2    1    2    0    0  0.16506732997E+03  0.47702152224E+02  0.41847965571E+03  0.45948105364E+03  0.80466748804E+02 0.  0.
        -11    1    3    3    0    0 -0.89717313936E+00  0.24522317841E+01 -0.17647279122E+01  0.31516067282E+01  0.00000000000E+00 0.  1.
         12    1    3    3    0    0  0.95692819120E+02  0.62255584239E+02 -0.23244279809E+04  0.23272297506E+04  0.00000000000E+00 0. -1.
         11    1    5    5    0    0  0.40216982912E+02  0.15784130027E+01  0.34239106216E+02  0.52841399457E+02  0.00000000000E+00 0. -1.
        -12    1    5    5    0    0  0.12485034705E+03  0.46123739221E+02  0.38424054949E+03  0.40663965418E+03  0.00000000000E+00 0.  1.
          5    1    4    4  501    0  0.76706188796E+01 -0.25972548720E+02 -0.50538922940E+02  0.57489710496E+02  0.41800000000E+01 0. -1.
         -5    1    4    4    0  501 -0.26753359483E+03 -0.86437419527E+02 -0.70416753856E+03  0.75823152573E+03  0.41800000000E+01 0. -1.
</event>
<event>
11    1  0.6625361E-009  0.1377662E+03  0.7561462E-02  0.1110079E+00
         22   -1    0    0    0    0  0.00000000000E+00  0.00000000000E+00  0.21877469973E+04  0.21877469973E+04  0.00000000000E+00 0.  1.
         22   -1    0    0    0    0 -0.00000000000E+00 -0.00000000000E+00 -0.12425297318E+04  0.12425297318E+04  0.00000000000E+00 0. -1.
         24    2    1    2    0    0  0.38213114824E+02 -0.29908769132E+02 -0.11647370681E+04  0.11684876541E+04  0.79976141795E+02 0.  0.
         25    2    1    2    0    0 -0.76564067342E+02 -0.13184249330E+02 -0.22107250802E+01  0.14726313955E+03  0.12508262920E+03 0.  0.
        -24    2    1    2    0    0  0.38350952518E+02  0.43093018462E+02  0.21121650587E+04  0.21145259354E+04  0.81553005042E+02 0.  0.
        -13    1    3    3    0    0  0.39835193541E+01 -0.17565195476E+02 -0.49800522007E+02  0.52957497209E+02  0.00000000000E+00 0.  1.
         14    1    3    3    0    0  0.34229595470E+02 -0.12343573657E+02 -0.11149365461E+04  0.11155301569E+04  0.00000000000E+00 0. -1.
         13    1    5    5    0    0  0.53159927489E+02  0.17047578779E+02  0.76773048840E+03  0.76975755966E+03  0.00000000000E+00 0. -1.
        -14    1    5    5    0    0 -0.14808974971E+02  0.26045439683E+02  0.13444345703E+04  0.13447683758E+04  0.00000000000E+00 0.  1.
          5    1    4    4  501    0 -0.95993031895E+02 -0.42085503089E+02 -0.21728585765E+02  0.10712355288E+03  0.41800000000E+01 0.  1.
         -5    1    4    4    0  501  0.19428964553E+02  0.28901253759E+02  0.19517860685E+02  0.40139586672E+02  0.41800000000E+01 0.  1.
</event>
<event>
11    1  0.6625361E-009  0.1986421E+03  0.7561462E-02  0.1055488E+00
         22   -1    0    0    0    0  0.00000000000E+00  0.00000000000E+00  0.11906534137E+03  0.11906534137E+03  0.00000000000E+00 0. -1.
         22   -1    0    0    0    0 -0.00000000000E+00 -0.00000000000E+00 -0.12885646544E+04  0.12885646544E+04  0.00000000000E+00 0.  1.
        -24    2    1    2    0    0 -0.26663991202E+02  0.23457933107E+01 -0.91990295370E+03  0.92379688711E+03  0.80391375346E+02 0.  0.
         25    2    1    2    0    0 -0.10514034362E+03  0.88887630178E+02 -0.23977917541E+03  0.30347600604E+03  0.12509248829E+03 0.  0.
         24    2    1    2    0    0  0.13180433482E+03 -0.91233423489E+02 -0.98171839437E+01  0.18035710264E+03  0.82075496547E+02 0.  0.
        -11    1    5    5    0    0 -0.10113199187E+02 -0.93953804852E+00  0.53285749536E+01  0.11469666106E+02  0.00000000000E+00 0.  1.
         12    1    5    5    0    0  0.14191753401E+03 -0.90293885440E+02 -0.15145758897E+02  0.16888743654E+03  0.00000000000E+00 0. -1.
         13    1    3    3    0    0 -0.30070159064E+02 -0.14841665463E+02 -0.15033746560E+03  0.15403195468E+03  0.00000000000E+00 0. -1.
        -14    1    3    3    0    0  0.34061678619E+01  0.17187458774E+02 -0.76956548810E+03  0.76976493242E+03  0.00000000000E+00 0.  1.
          5    1    4    4  501    0 -0.15648898864E+02 -0.89272510559E+01 -0.12996757016E+03  0.13127690406E+03  0.41800000000E+01 0.  1.
         -5    1    4    4    0  501 -0.89491444755E+02  0.97814881234E+02 -0.10981160526E+03  0.17219910198E+03  0.41800000000E+01 0.  1.
</event>
<event>
11    1  0.6625361E-009  0.1397196E+03  0.7561462E-02  0.1107872E+00
         22   -1    0    0    0    0  0.00000000000E+00  0.00000000000E+00  0.28929192195E+02  0.28929192195E+02  0.00000000000E+00 0.  1.
         22   -1    0    0    0    0 -0.00000000000E+00 -0.00000000000E+00 -0.16544367812E+04  0.16544367812E+04  0.00000000000E+00 0.  1.
         24    2    1    2    0    0 -0.15737642977E+02 -0.38002743344E+02 -0.98775237882E+03  0.99193066716E+03  0.81115995189E+02 0.  0.
         25    2    1    2    0    0 -0.46291638133E+02  0.75221398392E+01 -0.50089240392E+03  0.51840226524E+03  0.12509280537E+03 0.  0.
        -24    2    1    2    0    0  0.62029281111E+02  0.30480603505E+02 -0.13686280625E+03  0.17303304098E+03  0.80201662273E+02 0.  0.
        -13    1    3    3    0    0 -0.10716107189E+02 -0.14161785994E+02 -0.91566724880E+03  0.91583945190E+03  0.00000000000E+00 0.  1.
         14    1    3    3    0    0 -0.50215357888E+01 -0.23840957350E+02 -0.72085130020E+02  0.76091215256E+02  0.00000000000E+00 0. -1.
         11    1    5    5    0    0  0.52700984333E+02  0.53456640594E+02 -0.73793344030E+02  0.10526378198E+03  0.00000000000E+00 0. -1.
        -12    1    5    5    0    0  0.93282967779E+01 -0.22976037089E+02 -0.63069462219E+02  0.67769259002E+02  0.00000000000E+00 0.  1.
          5    1    4    4  501    0 -0.17883281413E+02  0.10816607054E+01 -0.48424070680E+03  0.48459004970E+03  0.41800000000E+01 0.  1.
         -5    1    4    4    0  501 -0.28408356720E+02  0.64404791338E+01 -0.16651697120E+02  0.33812215544E+02  0.41800000000E+01 0.  1.
</event>
<event>
11    1  0.6625361E-009  0.1600962E+03  0.7561462E-02  0.1086987E+00
         22   -1    0    0    0    0  0.00000000000E+00  0.00000000000E+00  0.26760042742E+03  0.26760042742E+03  0.00000000000E+00 0. -1.
         22   -1    0    0    0    0 -0.00000000000E+00 -0.00000000000E+00 -0.36440332055E+03  0.36440332055E+03  0.00000000000E+00 0. -1.
         24    2    1    2    0    0 -0.53475654345E+02  0.17504861215E+02 -0.27056551287E+03  0.28660722434E+03  0.75973275018E+02 0.  0.
         25    2    1    2    0    0 -0.64688975461E+02 -0.25185607818E+02  0.38164382212E+02  0.14806629982E+03  0.12509248853E+03 0.  0.
        -24    2    1    2    0    0  0.11816462981E+03  0.76807466030E+01  0.13559823752E+03  0.19733022380E+03  0.80811271496E+02 0.  0.
        -11    1    3    3    0    0 -0.12557250403E+02 -0.24085349622E+02 -0.37214140919E+02  0.46072561123E+02  0.00000000000E+00 0.  1.
         12    1    3    3    0    0 -0.40918403942E+02  0.41590210837E+02 -0.23335137195E+03  0.24053466322E+03  0.00000000000E+00 0. -1.
         13    1    5    5    0    0  0.10544586325E+03  0.87177799465E+01  0.14638607109E+03  0.18062035204E+03  0.00000000000E+00 0. -1.
        -14    1    5    5    0    0  0.12718766560E+02 -0.10370333435E+01 -0.10787833571E+02  0.16709871756E+02  0.00000000000E+00 0.  1.
          5    1    4    4  501    0 -0.54730491241E+02  0.29907249374E+02 -0.21536444258E+02  0.66114756809E+02  0.41800000000E+01 0. -1.
         -5    1    4    4    0  501 -0.99584842198E+01 -0.55092857192E+02  0.59700826470E+02  0.81951543016E+02  0.41800000000E+01 0. -1.
</event>
<event>
11    1  0.6625361E-009  0.1663486E+03  0.7561462E-02  0.1081254E+00
         22   -1    0    0    0    0  0.00000000000E+00  0.00000000000E+00  0.14508550773E+03  0.14508550773E+03  0.00000000000E+00 0. -1.
         22   -1    0    0    0    0 -0.00000000000E+00 -0.00000000000E+00 -0.79478923299E+03  0.79478923299E+03  0.00000000000E+00 0.  1.
        -24    2    1    2    0    0  0.67416134185E+02 -0.15080684365E+02 -0.55497920446E+03  0.56507567620E+03  0.80847017634E+02 0.  0.
         25    2    1    2    0    0 -0.89975483935E+02  0.11561861674E+03 -0.13839728147E+03  0.23720477480E+03  0.12509614471E+03 0.  0.
         24    2    1    2    0    0  0.22559349750E+02 -0.10053793238E+03  0.43672760676E+02  0.13759428972E+03  0.80050474276E+02 0.  0.
        -11    1    5    5    0    0 -0.15964493928E+02 -0.41517633910E+02 -0.13884701644E+02  0.46597896215E+02  0.00000000000E+00 0.  1.
         12    1    5    5    0    0  0.38523843678E+02 -0.59020298466E+02  0.57557462320E+02  0.90996393508E+02  0.00000000000E+00 0. -1.
         13    1    3    3    0    0  0.18270397153E+02 -0.44768471349E+02 -0.28312985955E+03  0.28722907375E+03  0.00000000000E+00 0. -1.
        -14    1    3    3    0    0  0.49145737032E+02  0.29687786984E+02 -0.27184934492E+03  0.27784660245E+03  0.00000000000E+00 0.  1.
          5    1    4    4  501    0 -0.12392620589E+02  0.10840613350E+03 -0.10765423999E+03  0.15333745340E+03  0.41800000000E+01 0.  1.
         -5    1    4    4    0  501 -0.77582863346E+02  0.72124832364E+01 -0.30743041479E+02  0.83867321399E+02  0.41800000000E+01 0.  1.
</event>
<event>
11    1  0.6625361E-009  0.1780222E+03  0.7561462E-02  0.1071254E+00
         22   -1    0    0    0    0  0.00000000000E+00  0.00000000000E+00  0.18810002156E+04  0.18810002156E+04  0.00000000000E+00 0. -1.
         22   -1    0    0    0    0 -0.00000000000E+00 -0.00000000000E+00 -0.39047133190E+03  0.39047133190E+03  0.00000000000E+00 0.  1.
         24    2    1    2    0    0 -0.67351070407E+02  0.10936822877E+03 -0.35161846244E+03  0.38293181729E+03  0.80645256631E+02 0.  0.
         25    2    1    2    0    0  0.91449418400E+02 -0.49876534227E+02  0.29349901196E+03  0.33561954105E+03  0.12509253185E+03 0.  0.
        -24    2    1    2    0    0 -0.24098347993E+02 -0.59491694547E+02  0.15486483342E+04  0.15529201891E+04  0.95548201537E+02 0.  0.
        -11    1    3    3    0    0 -0.66622935481E+02  0.12020996064E+03 -0.29721109180E+03  0.32744997062E+03  0.00000000000E+00 0.  1.
         12    1    3    3    0    0 -0.72813492566E+00 -0.10841731870E+02 -0.54407370638E+02  0.55481846672E+02  0.00000000000E+00 0. -1.
         13    1    5    5    0    0  0.33906802594E+00 -0.75751430031E+02  0.13490494331E+04  0.13511745879E+04  0.00000000000E+00 0. -1.
        -14    1    5    5    0    0 -0.24437416019E+02  0.16259735485E+02  0.19959890107E+03  0.20174560122E+03  0.00000000000E+00 0.  1.
          5    1    4    4  501    0  0.10211829839E+03  0.38837594940E+00  0.13751301485E+03  0.17133475816E+03  0.41800000000E+01 0.  1.
         -5    1    4    4    0  501 -0.10668879988E+02 -0.50264910176E+02  0.15598599711E+03  0.16428478289E+03  0.41800000000E+01 0.  1.
</event>
<event>
11    1  0.6625361E-009  0.1537091E+03  0.7561462E-02  0.1093148E+00
         22   -1    0    0    0    0  0.00000000000E+00  0.00000000000E+00  0.26214976571E+03  0.26214976571E+03  0.00000000000E+00 0.  1.
         22   -1    0    0    0    0 -0.00000000000E+00 -0.00000000000E+00 -0.57252558510E+03  0.57252558510E+03  0.00000000000E+00 0.  1.
        -24    2    1    2    0    0 -0.11230027941E+02  0.43720042457E+02 -0.42680464033E+03  0.43651910109E+03  0.79681672766E+02 0.  0.
         25    2    1    2    0    0  0.71241349697E+02 -0.10339453757E+03 -0.60607169579E+02  0.18731207174E+03  0.12508726118E+03 0.  0.
         24    2    1    2    0    0 -0.60011321756E+02  0.59674495112E+02  0.17703599052E+03  0.21084417797E+03  0.77143511342E+02 0.  0.
        -13    1    5    5    0    0 -0.74304343275E+02  0.50915630805E+02  0.17053980224E+03  0.19286617391E+03  0.00000000000E+00 0.  1.
         14    1    5    5    0    0  0.14293021519E+02  0.87588643065E+01  0.64961882740E+01  0.17978004065E+02  0.00000000000E+00 0. -1.
         13    1    3    3    0    0  0.27513099983E+02  0.10117094583E+02 -0.67745551292E+02  0.73815892552E+02  0.00000000000E+00 0. -1.
        -14    1    3    3    0    0 -0.38743127924E+02  0.33602947875E+02 -0.35905908904E+03  0.36270320854E+03  0.00000000000E+00 0.  1.
          5    1    4    4  501    0  0.42694574299E+02 -0.95812768645E+02 -0.95142206290E+02  0.14167718633E+03  0.41800000000E+01 0.  1.
         -5    1    4    4    0  501  0.28546775398E+02 -0.75817689237E+01  0.34535036711E+02  0.45634885409E+02  0.41800000000E+01 0.  1.
</event>
<event>
11    1  0.6625361E-009  0.1484983E+03  0.7561462E-02  0.1098423E+00
         22   -1    0    0    0    0  0.00000000000E+00  0.00000000000E+00  0.33386944985E+03  0.33386944985E+03  0.00000000000E+00 0. -1.
         22   -1    0    0    0    0 -0.00000000000E+00 -0.00000000000E+00 -0.30253525182E+03  0.30253525182E+03  0.00000000000E+00 0. -1.
        -24    2    1    2    0    0 -0.70238167948E+01  0.77281906392E+02 -0.22720367630E+03  0.25251560313E+03  0.78235492228E+02 0.  0.
         25    2    1    2    0    0 -0.22635152244E+02 -0.10790212420E+03  0.82976114288E+02  0.18624131168E+03  0.12508226137E+03 0.  0.
         24    2    1    2    0    0  0.29658969039E+02  0.30620217809E+02  0.17556176004E+03  0.19764778686E+03  0.80158991249E+02 0.  0.
        -11    1    5    5    0    0 -0.12599863546E+01 -0.42391049323E+01 -0.75230590774E+01  0.87266255863E+01  0.00000000000E+00 0.  1.
         12    1    5    5    0    0  0.30918955394E+02  0.34859322741E+02  0.18308481912E+03  0.18892116127E+03  0.00000000000E+00 0. -1.
         13    1    3    3    0    0 -0.77297444943E+01  0.77662802299E+02 -0.23348468325E+03  0.24618358419E+03  0.00000000000E+00 0. -1.
        -14    1    3    3    0    0  0.70592769953E+00 -0.38089590739E+00  0.62810069513E+01  0.63320189459E+01  0.00000000000E+00 0.  1.
          5    1    4    4  501    0  0.64478249562E+01 -0.59752419247E+01  0.79513993011E+02  0.80107586702E+02  0.41800000000E+01 0. -1.
         -5    1    4    4    0  501 -0.29082977200E+02 -0.10192688228E+03  0.34621212769E+01  0.10613372497E+03  0.41800000000E+01 0. -1.
</event>
<event>
11    1  0.6625361E-009  0.2653264E+03  0.7561462E-02  0.1016037E+00
         22   -1    0    0    0    0  0.00000000000E+00  0.00000000000E+00  0.91226769697E+03  0.91226769697E+03  0.00000000000E+00 0.  1.
         22   -1    0    0    0    0 -0.00000000000E+00 -0.00000000000E+00 -0.28119913077E+04  0.28119913077E+04  0.00000000000E+00 0.  1.
         24    2    1    2    0    0 -0.16242086014E+01 -0.52487112774E+02 -0.24517299601E+04  0.24536284819E+04  0.80965392195E+02 0.  0.
         25    2    1    2    0    0 -0.55481066563E+02  0.27681094969E+03 -0.27164430603E+03  0.41126775072E+03  0.12509229859E+03 0.  0.
        -24    2    1    2    0    0  0.57105275164E+02 -0.22432383692E+03  0.82365065535E+03  0.85936277214E+03  0.80757512475E+02 0.  0.
        -11    1    3    3    0    0  0.14316957723E+02 -0.47766724929E+02 -0.23515271442E+04  0.23520558125E+04  0.00000000000E+00 0.  1.
         12    1    3    3    0    0 -0.15941166325E+02 -0.47203878451E+01 -0.10020281591E+03  0.10157266936E+03  0.00000000000E+00 0. -1.
         11    1    5    5    0    0  0.13617385242E+02  0.41410113961E+00  0.84103463894E+02  0.85199749410E+02  0.00000000000E+00 0. -1.
        -12    1    5    5    0    0  0.43487889922E+02 -0.22473793806E+03  0.73954719145E+03  0.77416302273E+03  0.00000000000E+00 0.  1.
          5    1    4    4  501    0 -0.11926509698E+02  0.78922919427E+02 -0.10361062069E+02  0.80597102006E+02  0.41800000000E+01 0.  1.
         -5    1    4    4    0  501 -0.43554556865E+02  0.19788803026E+03 -0.26128324396E+03  0.33067064871E+03  0.41800000000E+01 0.  1.
</event>
<event>
11    1  0.6625361E-009  0.1440749E+03  0.7561462E-02  0.1103092E+00
         22   -1    0    0    0    0  0.00000000000E+00  0.00000000000E+00  0.11592216758E+04  0.11592216758E+04  0.00000000000E+00 0.  1.
         22   -1    0    0    0    0 -0.00000000000E+00 -0.00000000000E+00 -0.14674559973E+04  0.14674559973E+04  0.00000000000E+00 0. -1.
        -24    2    1    2    0    0 -0.24612030812E+02  0.48467513446E+02 -0.12750144701E+04  0.12787121667E+04  0.80548459427E+02 0.  0.
         25    2    1    2    0    0 -0.42527867892E+02 -0.73204140682E+02 -0.15774008449E+03  0.21840057449E+03  0.12509760559E+03 0.  0.
         24    2    1    2    0    0  0.67139898704E+02  0.24736627236E+02  0.11245202331E+04  0.11295649319E+04  0.79066515483E+02 0.  0.
        -13    1    5    5    0    0  0.78511618837E+02 -0.69947775783E+00  0.86328200899E+03  0.86684507878E+03  0.00000000000E+00 0.  1.
         14    1    5    5    0    0 -0.11371720133E+02  0.25436104994E+02  0.26123822414E+03  0.26271985309E+03  0.00000000000E+00 0. -1.
         13    1    3    3    0    0  0.69753486673E+01  0.61959237220E+02 -0.88083514827E+03  0.88303916165E+03  0.00000000000E+00 0. -1.
        -14    1    3    3    0    0 -0.31587379479E+02 -0.13491723774E+02 -0.39417932183E+03  0.39567300504E+03  0.00000000000E+00 0.  1.
          5    1    4    4  501    0 -0.35862086644E+02 -0.97730501747E+02 -0.16168207747E+03  0.19234320057E+03  0.41800000000E+01 0.  1.
         -5    1    4    4    0  501 -0.66657812484E+01  0.24526361065E+02  0.39419929885E+01  0.26057373917E+02  0.41800000000E+01 0.  1.
</event>
<event>
11    1  0.6625361E-009  0.1492075E+03  0.7561462E-02  0.1097691E+00
         22   -1    0    0    0    0  0.00000000000E+00  0.00000000000E+00  0.12194892786E+04  0.12194892786E+04  0.00000000000E+00 0. -1.
         22   -1    0    0    0    0 -0.00000000000E+00 -0.00000000000E+00 -0.37918612458E+03  0.37918612458E+03  0.00000000000E+00 0.  1.
        -24    2    1    2    0    0  0.93149535911E+01  0.24326585743E+02 -0.35846911091E+03  0.36905540390E+03  0.83804752486E+02 0.  0.
         25    2    1    2    0    0  0.60993305233E+02 -0.62293470991E+02  0.53463601353E+03  0.55595293769E+03  0.12508933667E+03 0.  0.
         24    2    1    2    0    0 -0.70308258824E+02  0.37966885249E+02  0.66413625138E+03  0.67366706158E+03  0.79784796964E+02 0.  0.
        -13    1    5    5    0    0  0.12671255510E+02  0.36673944726E+01  0.25115184058E+02  0.28368696986E+02  0.00000000000E+00 0.  1.
         14    1    5    5    0    0 -0.82979514334E+02  0.34299490776E+02  0.63902106732E+03  0.64529836460E+03  0.00000000000E+00 0. -1.
         11    1    3    3    0    0 -0.17232825607E+02 -0.97563760939E+01 -0.21122526013E+02  0.28953726152E+02  0.00000000000E+00 0. -1.
        -12    1    3    3    0    0  0.26547779198E+02  0.34082961837E+02 -0.33734658489E+03  0.34010167775E+03  0.00000000000E+00 0.  1.
          5    1    4    4  501    0 -0.18618949667E+02  0.75919825998E+00  0.99916815962E+01  0.21553370266E+02  0.41800000000E+01 0.  1.
         -5    1    4    4    0  501  0.79612254901E+02 -0.63052669251E+02  0.52464433194E+03  0.53439956743E+03  0.41800000000E+01 0.  1.
</event>
<event>
11    1  0.6625361E-009  0.1323566E+03  0.7561462E-02  0.1116407E+00
         22   -1    0    0    0    0  0.00000000000E+00  0.00000000000E+00  0.10568499204E+04  0.10568499204E+04  0.00000000000E+00 0.  1.
         22   -1    0    0    0    0 -0.00000000000E+00 -0.00000000000E+00 -0.14382811610E+04  0.14382811610E+04  0.00000000000E+00 0.  1.
        -24    2    1    2    0    0  0.32363576405E+02  0.82332046732E+01 -0.12596944452E+04  0.12627907394E+04  0.81824016473E+02 0.  0.
         25    2    1    2    0    0  0.10915445586E+02 -0.13688709744E+02 -0.15214179438E+03  0.19773990275E+03  0.12508963112E+03 0.  0.
         24    2    1    2    0    0 -0.43279021991E+02  0.54555050706E+01  0.10304049990E+04  0.10346004392E+04  0.82223905373E+02 0.  0.
        -11    1    5    5    0    0 -0.29485540426E+02 -0.13998718641E+01  0.10007365307E+04  0.10011717938E+04  0.00000000000E+00 0.  1.
         12    1    5    5    0    0 -0.13793481565E+02  0.68553769348E+01  0.29668468234E+02  0.33428645410E+02  0.00000000000E+00 0. -1.
         11    1    3    3    0    0 -0.21349974525E+02 -0.26567240877E+01 -0.13005315439E+03  0.13182072129E+03  0.00000000000E+00 0. -1.
        -12    1    3    3    0    0  0.53713550930E+02  0.10889928761E+02 -0.11296412908E+04  0.11309700181E+04  0.00000000000E+00 0.  1.
          5    1    4    4  501    0  0.53396895874E+02 -0.43656454109E+02 -0.58426348976E+02  0.90488812176E+02  0.41800000000E+01 0.  1.
         -5    1    4    4    0  501 -0.42481450288E+02  0.29967744365E+02 -0.93715445408E+02  0.10725109057E+03  0.41800000000E+01 0.  1.
</event>
<event>
11    1  0.6625361E-009  0.1508728E+03  0.7561462E-02  0.1095990E+00
         22   -1    0    0    0    0  0.00000000000E+00  0.00000000000E+00  0.81490826951E+02  0.81490826951E+02  0.00000000000E+00 0.  1.
         22   -1    0    0    0    0 -0.00000000000E+00 -0.00000000000E+00 -0.22208311299E+04  0.22208311299E+04  0.00000000000E+00 0.  1.
         24    2    1    2    0    0 -0.84360549539E+02  0.65222966307E+01 -0.18604029645E+04  0.18640359789E+04  0.79822914051E+02 0.  0.
         25    2    1    2    0    0  0.81785454030E+02 -0.59095264286E+01 -0.31590150157E+03  0.34951965872E+03  0.12508577116E+03 0.  0.
        -24    2    1    2    0    0  0.25750955090E+01 -0.61277020212E+00  0.36964163092E+02  0.88766319267E+02  0.80660420771E+02 0.  0.
        -13    1    3    3    0    0 -0.58722291418E+02  0.18935866570E+02 -0.17002734178E+04  0.17013925385E+04  0.00000000000E+00 0.  1.
         14    1    3    3    0    0 -0.25638258121E+02 -0.12413569939E+02 -0.16012954668E+03  0.16264344044E+03  0.00000000000E+00 0. -1.
         13    1    5    5    0    0  0.24892932530E+02  0.26125936031E+02 -0.24490220767E+01  0.36169328617E+02  0.00000000000E+00 0. -1.
        -14    1    5    5    0    0 -0.22317837021E+02 -0.26738706233E+02  0.39413185168E+02  0.52596990650E+02  0.00000000000E+00 0.  1.
          5    1    4    4  501    0  0.11778427178E+02 -0.44074432705E+02 -0.35456875899E+02  0.57930556821E+02  0.41800000000E+01 0.  1.
         -5    1    4    4    0  501  0.70007026852E+02  0.38164906277E+02 -0.28044462567E+03  0.29158910190E+03  0.41800000000E+01 0.  1.
</event>
<event>
11    1  0.6625361E-009  0.2196203E+03  0.7561462E-02  0.1041456E+00
         22   -1    0    0    0    0  0.00000000000E+00  0.00000000000E+00  0.26064156766E+03  0.26064156766E+03  0.00000000000E+00 0.  1.
         22   -1    0    0    0    0 -0.00000000000E+00 -0.00000000000E+00 -0.20867203294E+04  0.20867203294E+04  0.00000000000E+00 0. -1.
         24    2    1    2    0    0  0.17334991196E+03  0.40308981276E+02 -0.18813516098E+04  0.18914620283E+04  0.80434562762E+02 0.  0.
         25    2    1    2    0    0 -0.26639343207E+03  0.35312001936E+02 -0.10875240040E+02  0.29661062840E+03  0.12508875208E+03 0.  0.
        -24    2    1    2    0    0  0.93043520116E+02 -0.75620983213E+02  0.66148088141E+02  0.15928924032E+03  0.81374828898E+02 0.  0.
        -11    1    3    3    0    0  0.95383090881E+02 -0.18667302826E+02 -0.99487014726E+03  0.99960642862E+03  0.00000000000E+00 0.  1.
         12    1    3    3    0    0  0.77966821078E+02  0.58976284103E+02 -0.88648146256E+03  0.89185559971E+03  0.00000000000E+00 0. -1.
         13    1    5    5    0    0 -0.11279346248E+02 -0.14083867590E+02 -0.51215069292E+01  0.18756567151E+02  0.00000000000E+00 0. -1.
        -14    1    5    5    0    0  0.10432286636E+03 -0.61537115623E+02  0.71269595070E+02  0.14053267317E+03  0.00000000000E+00 0.  1.
          5    1    4    4  501    0 -0.27045872480E+03  0.23009471918E+02 -0.30015578086E+02  0.27312225275E+03  0.41800000000E+01 0. -1.
         -5    1    4    4    0  501  0.40652927295E+01  0.12302530018E+02  0.19140338046E+02  0.23488375643E+02  0.41800000000E+01 0. -1.
</event>
<event>
11    1  0.6625361E-009  0.1363404E+03  0.7561462E-02  0.1111715E+00
         22   -1    0    0    0    0  0.00000000000E+00  0.00000000000E+00  0.18854683016E+04  0.18854683016E+04  0.00000000000E+00 0.  1.
         22   -1    0    0    0    0 -0.00000000000E+00 -0.00000000000E+00 -0.30562196258E+03  0.30562196258E+03  0.00000000000E+00 0.  1.
         24    2    1    2    0    0  0.12069919259E+02  0.43343356672E+01 -0.20425618781E+03  0.21762834323E+03  0.74007000366E+02 0.  0.
         25    2    1    2    0    0 -0.20685417400E+02 -0.57778274880E+02 -0.41394946954E+02  0.14535714936E+03  0.12509573812E+03 0.  0.
        -24    2    1    2    0    0  0.86154981409E+01  0.53443939213E+02  0.18254974737E+04  0.18281047715E+04  0.81212977293E+02 0.  0.
        -13    1    3    3    0    0  0.13524463200E+02  0.37405054941E+02 -0.13715824580E+03  0.14280908105E+03  0.00000000000E+00 0.  1.
         14    1    3    3    0    0 -0.14545439412E+01 -0.33070719274E+02 -0.67097942007E+02  0.74819262179E+02  0.00000000000E+00 0. -1.
         11    1    5    5    0    0  0.63989776920E+01  0.41319466456E+02  0.34069144564E+03  0.34324758755E+03  0.00000000000E+00 0. -1.
        -12    1    5    5    0    0  0.22165204488E+01  0.12124472756E+02  0.14848060281E+04  0.14848571840E+04  0.00000000000E+00 0.  1.
          5    1    4    4  501    0 -0.67947968538E+02 -0.33449419051E+02  0.30946529123E+01  0.75913367334E+02  0.41800000000E+01 0.  1.
         -5    1    4    4    0  501  0.47262551138E+02 -0.24328855828E+02 -0.44489599866E+02  0.69443782027E+02  0.41800000000E+01 0.  1.
</event>
<event>
11    1  0.6625361E-009  0.1572905E+03  0.7561462E-02  0.1089654E+00
         22   -1    0    0    0    0  0.00000000000E+00  0.00000000000E+00  0.18025072631E+04  0.18025072631E+04  0.00000000000E+00 0.  1.
         22   -1    0    0    0    0 -0.00000000000E+00 -0.00000000000E+00 -0.22253041473E+03  0.22253041473E+03  0.00000000000E+00 0. -1.
         24    2    1    2    0    0  0.42733869769E+02  0.87974144581E+02 -0.97782223621E+02  0.15948638405E+03  0.79428645350E+02 0.  0.
         25    2    1    2    0    0 -0.89806960082E+02 -0.49921280027E+02 -0.20567943881E+02  0.16318073509E+03  0.12508991850E+03 0.  0.
        -24    2    1    2    0    0  0.47073090313E+02 -0.38052864554E+02  0.16983270159E+04  0.17023705587E+04  0.10043390826E+03 0.  0.
        -11    1    3    3    0    0 -0.20530953016E+02  0.50542493181E+01 -0.22366514806E+02  0.30778668790E+02  0.00000000000E+00 0.  1.
         12    1    3    3    0    0  0.63264822785E+02  0.82919895263E+02 -0.75415708816E+02  0.12870771526E+03  0.00000000000E+00 0. -1.
         13    1    5    5    0    0  0.48763304188E+02 -0.26671221848E+02  0.38481807355E+03  0.38881121851E+03  0.00000000000E+00 0. -1.
        -14    1    5    5    0    0 -0.16902138744E+01 -0.11381642707E+02  0.13135089423E+04  0.13135593402E+04  0.00000000000E+00 0.  1.
          5    1    4    4  501    0 -0.22777470185E+02 -0.13826866777E+02  0.51583303096E+02  0.58209148347E+02  0.41800000000E+01 0.  1.
         -5    1    4    4    0  501 -0.67029489897E+02 -0.36094413249E+02 -0.72151246977E+02  0.10497158675E+03  0.41800000000E+01 0.  1.
</event>
<event>
11    1  0.6625361E-009  0.1337872E+03  0.7561462E-02  0.1114701E+00
         22   -1    0    0    0    0  0.00000000000E+00  0.00000000000E+00  0.55341163859E+03  0.55341163859E+03  0.00000000000E+00 0. -1.
         22   -1    0    0    0    0 -0.00000000000E+00 -0.00000000000E+00 -0.13254720742E+03  0.13254720742E+03  0.00000000000E+00 0.  1.
        -24    2    1    2    0    0  0.39570637551E+02  0.31584458474E+02 -0.41330033367E+02  0.10433587522E+03  0.81328899089E+02 0.  0.
         25    2    1    2    0    0 -0.60431019488E+02 -0.68383685621E+02  0.59358809902E+02  0.16583100133E+03  0.12509282999E+03 0.  0.
         24    2    1    2    0    0  0.20860381937E+02  0.36799227148E+02  0.40283565463E+03  0.41579196945E+03  0.93899193640E+02 0.  0.
        -13    1    5    5    0    0  0.18669970906E+02 -0.24418869630E+02  0.58845426500E+02  0.66390008492E+02  0.00000000000E+00 0.  1.
         14    1    5    5    0    0  0.21904110308E+01  0.61218096778E+02  0.34399022813E+03  0.34940196096E+03  0.00000000000E+00 0. -1.
         13    1    3    3    0    0  0.51539335343E+02  0.22462032277E+02  0.42050851105E+01  0.56378442000E+02  0.00000000000E+00 0. -1.
        -14    1    3    3    0    0 -0.11968697791E+02  0.91224261970E+01 -0.45535118478E+02  0.47957433223E+02  0.00000000000E+00 0.  1.
          5    1    4    4  501    0 -0.31118591482E+02 -0.15357598840E+01  0.83191589509E+02  0.88932773820E+02  0.41800000000E+01 0. -1.
         -5    1    4    4    0  501 -0.29312428006E+02 -0.66847925737E+02 -0.23832779607E+02  0.76898227514E+02  0.41800000000E+01 0. -1.
</event>
<event>
11    1  0.6625361E-009  0.1294764E+03  0.7561462E-02  0.1119914E+00
         22   -1    0    0    0    0  0.00000000000E+00  0.00000000000E+00  0.89365455339E+03  0.89365455339E+03  0.00000000000E+00 0.  1.
         22   -1    0    0    0    0 -0.00000000000E+00 -0.00000000000E+00 -0.61440936403E+03  0.61440936403E+03  0.00000000000E+00 0.  1.
         24    2    1    2    0    0 -0.34992263600E+02 -0.71911962103E+01 -0.51292462429E+03  0.51998991315E+03  0.77599405628E+02 0.  0.
         25    2    1    2    0    0  0.55776806885E+01  0.65812064620E+01 -0.54802721181E+02  0.13683641985E+03  0.12508574958E+03 0.  0.
        -24    2    1    2    0    0  0.29414582911E+02  0.60998974824E+00  0.84697253484E+03  0.85123758443E+03  0.79858378412E+02 0.  0.
        -13    1    3    3    0    0 -0.53756101280E+02 -0.10681091299E+02 -0.46773714103E+03  0.47093719033E+03  0.00000000000E+00 0.  1.
         14    1    3    3    0    0  0.18763837680E+02  0.34898950888E+01 -0.45187483261E+02  0.49052722817E+02  0.00000000000E+00 0. -1.
         13    1    5    5    0    0 -0.21182305117E+02 -0.90333031545E+01  0.10578306404E+03  0.10826055262E+03  0.00000000000E+00 0. -1.
        -14    1    5    5    0    0  0.50596888028E+02  0.96432929027E+01  0.74118947080E+03  0.74297703181E+03  0.00000000000E+00 0.  1.
          5    1    4    4  501    0 -0.24929097480E+02  0.42726253025E+02  0.15494658056E+02  0.52005282683E+02  0.41800000000E+01 0.  1.
         -5    1    4    4    0  501  0.30506778169E+02 -0.36145046563E+02 -0.70297379237E+02  0.84831137166E+02  0.41800000000E+01 0.  1.
</event>
<event>
11    1  0.6625361E-009  0.3208696E+03  0.7561462E-02  0.9917261E-01
         22   -1    0    0    0    0  0.00000000000E+00  0.00000000000E+00  0.20283777736E+03  0.20283777736E+03  0.00000000000E+00 0. -1.
         22   -1    0    0    0    0 -0.00000000000E+00 -0.00000000000E+00 -0.99848798674E+03  0.99848798674E+03  0.00000000000E+00 0. -1.
         24    2    1    2    0    0 -0.14446112160E+02  0.17154476845E+03 -0.38463450618E+03  0.42909353134E+03  0.80878041195E+02 0.  0.
         25    2    1    2    0    0 -0.19526334193E+03  0.13761209315E+03 -0.20221817557E+03  0.33705310328E+03  0.12509093900E+03 0.  0.
        -24    2    1    2    0    0  0.20970945409E+03 -0.30915686160E+03 -0.20879752762E+03  0.43517912947E+03  0.78920510521E+02 0.  0.
        -11    1    3    3    0    0 -0.15657249593E+02  0.41645607999E+02 -0.18964603235E+03  0.19479508134E+03  0.00000000000E+00 0.  1.
         12    1    3    3    0    0  0.12111374329E+01  0.12989916045E+03 -0.19498847384E+03  0.23429845000E+03  0.00000000000E+00 0. -1.
         13    1    5    5    0    0  0.14093794016E+03 -0.24935207362E+03 -0.12937085229E+03  0.31428772966E+03  0.00000000000E+00 0. -1.
        -14    1    5    5    0    0  0.68771513932E+02 -0.59804787974E+02 -0.79426675333E+02  0.12089139981E+03  0.00000000000E+00 0.  1.
          5    1    4    4  501    0 -0.11812970914E+03  0.11677086441E+03 -0.19578424127E+03  0.25678591178E+03  0.41800000000E+01 0.  1.
         -5    1    4    4    0  501 -0.77133632786E+02  0.20841228732E+02 -0.64339343031E+01  0.80267191507E+02  0.41800000000E+01 0.  1.
</event>
<event>
11    1  0.6625361E-009  0.1325572E+03  0.7561462E-02  0.1116166E+00
         22   -1    0    0    0    0  0.00000000000E+00  0.00000000000E+00  0.11865836784E+03  0.11865836784E+03  0.00000000000E+00 0.  1.
         22   -1    0    0    0    0 -0.00000000000E+00 -0.00000000000E+00 -0.17662155099E+04  0.17662155099E+04  0.00000000000E+00 0. -1.
         24    2    1    2    0    0 -0.91730845038E+01  0.19983029803E+02 -0.15364729587E+04  0.15387227701E+04  0.80219346313E+02 0.  0.
         25    2    1    2    0    0  0.26970598179E+02 -0.58054057936E+02 -0.18606187099E+03  0.23316300477E+03  0.12509308594E+03 0.  0.
        -24    2    1    2    0    0 -0.17797513675E+02  0.38071028133E+02  0.74977687672E+02  0.11298810281E+03  0.73338278216E+02 0.  0.
        -11    1    3    3    0    0 -0.22162589473E+02 -0.30720854320E+01 -0.12403219517E+03  0.12603413632E+03  0.00000000000E+00 0.  1.
         12    1    3    3    0    0  0.12989504969E+02  0.23055115235E+02 -0.14124407635E+04  0.14126886338E+04  0.00000000000E+00 0. -1.
         13    1    5    5    0    0 -0.18321977157E+02  0.62455342861E+01 -0.10326192161E+02  0.21939275057E+02  0.00000000000E+00 0. -1.
        -14    1    5    5    0    0  0.52446348130E+00  0.31825493846E+02  0.85303879834E+02  0.91048827753E+02  0.00000000000E+00 0.  1.
          5    1    4    4  501    0  0.70333690258E+01  0.73473221565E+01  0.16220667468E+02  0.19596782282E+02  0.41800000000E+01 0.  1.
         -5    1    4    4    0  501  0.19937229153E+02 -0.65401380092E+02 -0.20228253845E+03  0.21356622249E+03  0.41800000000E+01 0.  1.
</event>
<event>
11    1  0.6625361E-009  0.2346000E+03  0.7561462E-02  0.1032439E+00
         22   -1    0    0    0    0  0.00000000000E+00  0.00000000000E+00  0.46347619900E+03  0.46347619900E+03  0.00000000000E+00 0. -1.
         22   -1    0    0    0    0 -0.00000000000E+00 -0.00000000000E+00 -0.52102097736E+03  0.52102097736E+03  0.00000000000E+00 0.  1.
         24    2    1    2    0    0 -0.16710000197E+02  0.18448853928E+02 -0.40643422224E+03  0.41507459941E+03  0.80489513289E+02 0.  0.
         25    2    1    2    0    0 -0.14552670677E+03  0.11460982299E+03  0.15095428077E+03  0.26971860955E+03  0.12508996581E+03 0.  0.
        -24    2    1    2    0    0  0.16223670697E+03 -0.13305867692E+03  0.19793516310E+03  0.29970396740E+03  0.81355876821E+02 0.  0.
        -13    1    3    3    0    0 -0.29148815347E+01 -0.14056307565E+02 -0.33579058102E+03  0.33609729338E+03  0.00000000000E+00 0.  1.
         14    1    3    3    0    0 -0.13795118663E+02  0.32505161493E+02 -0.70643641220E+02  0.78977306028E+02  0.00000000000E+00 0. -1.
         13    1    5    5    0    0  0.10404343100E+03 -0.51311132673E+02  0.14672885168E+03  0.18704872036E+03  0.00000000000E+00 0. -1.
        -14    1    5    5    0    0  0.58193275966E+02 -0.81747544244E+02  0.51206311419E+02  0.11265524705E+03  0.00000000000E+00 0.  1.
          5    1    4    4  501    0 -0.13201692788E+03  0.12108823071E+03  0.16871038734E+03  0.24611277102E+03  0.41800000000E+01 0.  1.
         -5    1    4    4    0  501 -0.13509778891E+02 -0.64784077181E+01 -0.17756106570E+02  0.23605838531E+02  0.41800000000E+01 0.  1.
</event>
<event>
11    1  0.6625361E-009  0.1771579E+03  0.7561462E-02  0.1071965E+00
         22   -1    0    0    0    0  0.00000000000E+00  0.00000000000E+00  0.14378677327E+04  0.14378677327E+04  0.00000000000E+00 0. -1.
         22   -1    0    0    0    0 -0.00000000000E+00 -0.00000000000E+00 -0.72717904704E+03  0.72717904704E+03  0.00000000000E+00 0.  1.
        -24    2    1    2    0    0  0.71264364797E+02  0.22346831083E+01 -0.63134696882E+03  0.64029608385E+03  0.79350340021E+02 0.  0.
         25    2    1    2    0    0 -0.10877010136E+03  0.11654112106E+03  0.30260481023E+02  0.20487973076E+03  0.12508892642E+03 0.  0.
         24    2    1    2    0    0  0.37505736567E+02 -0.11877580417E+03  0.13117751734E+04  0.13198709651E+04  0.76097877477E+02 0.  0.
        -13    1    5    5    0    0  0.36523269747E+02 -0.50951754031E+02  0.33998846833E+03  0.34571981295E+03  0.00000000000E+00 0.  1.
         14    1    5    5    0    0  0.98246682058E+00 -0.67824050137E+02  0.97178670512E+03  0.97415115216E+03  0.00000000000E+00 0. -1.
         13    1    3    3    0    0  0.24593798819E+02  0.34114579831E+02 -0.15486775163E+03  0.16047641569E+03  0.00000000000E+00 0. -1.
        -14    1    3    3    0    0  0.46670565978E+02 -0.31879896722E+02 -0.47647921719E+03  0.47981966816E+03  0.00000000000E+00 0.  1.
          5    1    4    4  501    0 -0.42597943277E+02  0.11406016484E+03 -0.17568864475E+02  0.12308713732E+03  0.41800000000E+01 0. -1.
         -5    1    4    4    0  501 -0.66172158087E+02  0.24809562171E+01  0.47829345498E+02  0.81792593432E+02  0.41800000000E+01 0. -1.
</event>
<event>
11    1  0.6625361E-009  0.1702160E+03  0.7561462E-02  0.1077844E+00
         22   -1    0    0    0    0  0.00000000000E+00  0.00000000000E+00  0.21287221259E+03  0.21287221259E+03  0.00000000000E+00 0.  1.
         22   -1    0    0    0    0 -0.00000000000E+00 -0.00000000000E+00 -0.14398966621E+04  0.14398966621E+04  0.00000000000E+00 0. -1.
         24    2    1    2    0    0 -0.97504940397E+02  0.56893497568E+02 -0.11616304376E+04  0.11698530237E+04  0.80166951626E+02 0.  0.
         25    2    1    2    0    0  0.10117535676E+03 -0.95797835413E+02 -0.22870554361E+03  0.29558068507E+03  0.12509211655E+03 0.  0.
        -24    2    1    2    0    0 -0.36704163653E+01  0.38904337845E+02  0.16331153172E+03  0.18733516586E+03  0.83046905507E+02 0.  0.
        -13    1    3    3    0    0  0.11651182174E+02  0.18637751989E+02 -0.14351607401E+03  0.14518946017E+03  0.00000000000E+00 0.  1.
         14    1    3    3    0    0 -0.10915612257E+03  0.38255745580E+02 -0.10181143636E+04  0.10246635636E+04  0.00000000000E+00 0. -1.
         13    1    5    5    0    0 -0.24977302786E+02 -0.16491575577E+02  0.35631465367E+02  0.46534278158E+02  0.00000000000E+00 0. -1.
        -14    1    5    5    0    0  0.21306886421E+02  0.55395913422E+02  0.12768006635E+03  0.14080088770E+03  0.00000000000E+00 0.  1.
          5    1    4    4  501    0  0.38583866620E+02 -0.76283736166E+02 -0.21076316256E+03  0.22747858418E+03  0.41800000000E+01 0. -1.
         -5    1    4    4    0  501  0.62591490142E+02 -0.19514099248E+02 -0.17942381043E+02  0.68102100886E+02  0.41800000000E+01 0. -1.
</event>
<event>
11    1  0.6625361E-009  0.1722062E+03  0.7561462E-02  0.1076128E+00
         22   -1    0    0    0    0  0.00000000000E+00  0.00000000000E+00  0.95143542217E+03  0.95143542217E+03  0.00000000000E+00 0. -1.
         22   -1    0    0    0    0 -0.00000000000E+00 -0.00000000000E+00 -0.18697644799E+03  0.18697644799E+03  0.00000000000E+00 0. -1.
        -24    2    1    2    0    0  0.17801646797E+02  0.19494294539E+02  0.26665888684E+02  0.93548682808E+02  0.85693408658E+02 0.  0.
         25    2    1    2    0    0  0.98559925516E+02 -0.43882935195E+02 -0.10103562748E+03  0.19363846347E+03  0.12509150888E+03 0.  0.
         24    2    1    2    0    0 -0.11636157231E+03  0.24388640656E+02  0.83882871298E+03  0.85122472388E+03  0.82553616024E+02 0.  0.
        -11    1    5    5    0    0 -0.19276625411E+01 -0.21266160729E+02  0.10947105531E+03  0.11153419846E+03  0.00000000000E+00 0.  1.
         12    1    5    5    0    0 -0.11443390977E+03  0.45654801385E+02  0.72935765767E+03  0.73969052542E+03  0.00000000000E+00 0. -1.
         13    1    3    3    0    0 -0.23931703642E+02  0.71211086961E+01 -0.18306331282E+02  0.30960594201E+02  0.00000000000E+00 0. -1.
        -14    1    3    3    0    0  0.41733350439E+02  0.12373185843E+02  0.44972219966E+02  0.62588088607E+02  0.00000000000E+00 0.  1.
          5    1    4    4  501    0  0.26219614828E+02  0.28517492864E+02 -0.80120434795E+02  0.89092491674E+02  0.41800000000E+01 0. -1.
         -5    1    4    4    0  501  0.72340310689E+02 -0.72400428059E+02 -0.20915192689E+02  0.10454597180E+03  0.41800000000E+01 0. -1.
</event>
<event>
11    1  0.6625361E-009  0.1675650E+03  0.7561462E-02  0.1080170E+00
         22   -1    0    0    0    0  0.00000000000E+00  0.00000000000E+00  0.13551766448E+04  0.13551766448E+04  0.00000000000E+00 0. -1.
         22   -1    0    0    0    0 -0.00000000000E+00 -0.00000000000E+00 -0.68022759423E+03  0.68022759423E+03  0.00000000000E+00 0. -1.
        -24    2    1    2    0    0 -0.85426706916E+02  0.70360130625E+02 -0.64890072868E+03  0.66338090823E+03  0.82181527568E+02 0.  0.
         25    2    1    2    0    0  0.16333758840E+03 -0.11283120936E+03  0.75112655837E+03  0.78692461530E+03  0.12509673816E+03 0.  0.
         24    2    1    2    0    0 -0.77910881482E+02  0.42471078733E+02  0.57272322090E+03  0.58509871551E+03  0.80341279234E+02 0.  0.
        -11    1    5    5    0    0  0.17166499247E+01 -0.23615595090E+01 -0.17493699166E+01  0.34035489395E+01  0.00000000000E+00 0.  1.
         12    1    5    5    0    0 -0.79627531407E+02  0.44832638241E+02  0.57447259082E+03  0.58169516657E+03  0.00000000000E+00 0. -1.
         13    1    3    3    0    0 -0.10156159619E+03  0.55221172979E+02 -0.55442564009E+03  0.56634965009E+03  0.00000000000E+00 0. -1.
        -14    1    3    3    0    0  0.16134889275E+02  0.15138957646E+02 -0.94475088591E+02  0.97031258133E+02  0.00000000000E+00 0.  1.
          5    1    4    4  501    0  0.43231185477E+02 -0.76302212707E+02  0.15907721092E+03  0.18169753575E+03  0.41800000000E+01 0. -1.
         -5    1    4    4    0  501  0.12010640292E+03 -0.36528996651E+02  0.59204934744E+03  0.60522707955E+03  0.41800000000E+01 0. -1.
</event>
<event>
11    1  0.6625361E-009  0.1405014E+03  0.7561462E-02  0.1107000E+00
         22   -1    0    0    0    0  0.00000000000E+00  0.00000000000E+00  0.17280091617E+03  0.17280091617E+03  0.00000000000E+00 0. -1.
         22   -1    0    0    0    0 -0.00000000000E+00 -0.00000000000E+00 -0.72500720990E+03  0.72500720990E+03  0.00000000000E+00 0. -1.
         24    2    1    2    0    0 -0.63197224083E+02 -0.25411885539E+02 -0.55781085494E+03  0.56775472140E+03  0.80949494907E+02 0.  0.
         25    2    1    2    0    0  0.42314855804E+02  0.72824035592E-02 -0.11918274698E+03  0.17788409934E+03  0.12509068129E+03 0.  0.
        -24    2    1    2    0    0  0.20882368279E+02  0.25404603135E+02  0.12478730819E+03  0.15216930534E+03  0.80635959950E+02 0.  0.
        -11    1    3    3    0    0 -0.27347048797E+02 -0.39650627263E+02 -0.13778766285E+03  0.14596394539E+03  0.00000000000E+00 0.  1.
         12    1    3    3    0    0 -0.35850175286E+02  0.14238741724E+02 -0.42002319209E+03  0.42179077601E+03  0.00000000000E+00 0. -1.
         13    1    5    5    0    0 -0.14749472121E+02 -0.17706854296E+02  0.70711508597E+02  0.74372018024E+02  0.00000000000E+00 0. -1.
        -14    1    5    5    0    0  0.35631840400E+02  0.43111457432E+02  0.54075799592E+02  0.77797287316E+02  0.00000000000E+00 0.  1.
          5    1    4    4  501    0 -0.42846629072E+02 -0.81259403505E+01 -0.57714834285E+02  0.72459223195E+02  0.41800000000E+01 0.  1.
         -5    1    4    4    0  501  0.85161484876E+02  0.81332227540E+01 -0.61467912691E+02  0.10542487614E+03  0.41800000000E+01 0.  1.
</event>
<event>
11    1  0.6625361E-009  0.1379153E+03  0.7561462E-02  0.1109909E+00
         22   -1    0    0    0    0  0.00000000000E+00  0.00000000000E+00  0.78627741071E+03  0.78627741071E+03  0.00000000000E+00 0. -1.
         22   -1    0    0    0    0 -0.00000000000E+00 -0.00000000000E+00 -0.15573886849E+04  0.15573886849E+04  0.00000000000E+00 0.  1.
        -24    2    1    2    0    0  0.69923551272E+01  0.20974094920E+02 -0.15280182296E+04  0.15301956774E+04  0.78551228380E+02 0.  0.
         25    2    1    2    0    0  0.23468350716E+02  0.32218231862E+02  0.15487134702E+03  0.20303034239E+03  0.12508959931E+03 0.  0.
         24    2    1    2    0    0 -0.30460705844E+02 -0.53192326782E+02  0.60203560846E+03  0.61044007575E+03  0.80205573365E+02 0.  0.
        -11    1    5    5    0    0 -0.42444008279E+02 -0.95541413101E+01  0.15107600713E+03  0.15721556980E+03  0.00000000000E+00 0.  1.
         12    1    5    5    0    0  0.11983302435E+02 -0.43638185472E+02  0.45095960133E+03  0.45322450595E+03  0.00000000000E+00 0. -1.
         13    1    3    3    0    0  0.29307440844E+02  0.72187201115E+01 -0.23737811067E+03  0.23928937175E+03  0.00000000000E+00 0. -1.
        -14    1    3    3    0    0 -0.22315085717E+02  0.13755374808E+02 -0.12906401190E+04  0.12909063057E+04  0.00000000000E+00 0.  1.
          5    1    4    4  501    0 -0.11869005456E+02  0.52302244479E+02  0.12932698725E+02  0.55327435911E+02  0.41800000000E+01 0.  1.
         -5    1    4    4    0  501  0.35337356173E+02 -0.20084012617E+02  0.14193864829E+03  0.14770290648E+03  0.41800000000E+01 0.  1.
</event>
<event>
11    1  0.6625361E-009  0.2352467E+03  0.7561462E-02  0.1032066E+00
         22   -1    0    0    0    0  0.00000000000E+00  0.00000000000E+00  0.33395384196E+03  0.33395384196E+03  0.00000000000E+00 0.  1.
         22   -1    0    0    0    0 -0.00000000000E+00 -0.00000000000E+00 -0.45561560120E+03  0.45561560120E+03  0.00000000000E+00 0.  1.
        -24    2    1    2    0    0  0.48580458678E+02 -0.38589028045E+02 -0.14851180638E+03  0.17909701737E+03  0.78554509383E+02 0.  0.
         25    2    1    2    0    0  0.13051546782E+03  0.13370410530E+03 -0.19686002419E+03  0.29885079445E+03  0.12508738189E+03 0.  0.
         24    2    1    2    0    0 -0.17909592650E+03 -0.95115077250E+02  0.22371007133E+03  0.31162163134E+03  0.77068906155E+02 0.  0.
        -13    1    5    5    0    0 -0.17017041887E+03 -0.10725343449E+03  0.20095865923E+03  0.28433370076E+03  0.00000000000E+00 0.  1.
         14    1    5    5    0    0 -0.89255076269E+01  0.12138357237E+02  0.22751412099E+02  0.27287930580E+02  0.00000000000E+00 0. -1.
         11    1    3    3    0    0  0.21806927482E+02 -0.18050807439E+01  0.18915906084E+01  0.21963117213E+02  0.00000000000E+00 0. -1.
        -12    1    3    3    0    0  0.26773531196E+02 -0.36783947301E+02 -0.15040339699E+03  0.15713390015E+03  0.00000000000E+00 0.  1.
          5    1    4    4  501    0  0.27861632427E+02 -0.20682083577E+02 -0.11865004457E+02  0.36908940291E+02  0.41800000000E+01 0.  1.
         -5    1    4    4    0  501  0.10265383540E+03  0.15438618887E+03 -0.18499501973E+03  0.26194185416E+03  0.41800000000E+01 0.  1.
</event>
<event>
11    1  0.6625361E-009  0.1295606E+03  0.7561462E-02  0.1119810E+00
         22   -1    0    0    0    0  0.00000000000E+00  0.00000000000E+00  0.87495908899E+03  0.87495908899E+03  0.00000000000E+00 0.  1.
         22   -1    0    0    0    0 -0.00000000000E+00 -0.00000000000E+00 -0.12616189995E+04  0.12616189995E+04  0.00000000000E+00 0. -1.
         24    2    1    2    0    0  0.30075296816E+01  0.25932597919E+02 -0.11236593962E+04  0.11267799307E+04  0.79630577233E+02 0.  0.
         25    2    1    2    0    0  0.15321358045E+02 -0.53864041954E+02 -0.99137821346E+02  0.16915051383E+03  0.12509000632E+03 0.  0.
        -24    2    1    2    0    0 -0.18328887727E+02  0.27931444035E+02  0.83613730702E+03  0.84064764391E+03  0.80291664087E+02 0.  0.
        -11    1    3    3    0    0 -0.18857842241E+02 -0.22993403588E+02 -0.46016715223E+03  0.46112701375E+03  0.00000000000E+00 0.  1.
         12    1    3    3    0    0  0.21865371923E+02  0.48926001507E+02 -0.66349224393E+03  0.66565291696E+03  0.00000000000E+00 0. -1.
         13    1    5    5    0    0 -0.45258691476E+02  0.31802169011E+02  0.42077256131E+03  0.42439283154E+03  0.00000000000E+00 0. -1.
        -14    1    5    5    0    0  0.26929803749E+02 -0.38707249761E+01  0.41536474571E+03  0.41625481237E+03  0.00000000000E+00 0.  1.
          5    1    4    4  501    0 -0.52538046925E+02 -0.10111939788E+02 -0.55799880444E+02  0.77418323145E+02  0.41800000000E+01 0.  1.
         -5    1    4    4    0  501  0.67859404970E+02 -0.43752102166E+02 -0.43337940902E+02  0.91732190688E+02  0.41800000000E+01 0.  1.
</event>
<event>
11    1  0.6625361E-009  0.1641716E+03  0.7561462E-02  0.1083218E+00
         22   -1    0    0    0    0  0.00000000000E+00  0.00000000000E+00  0.10646783661E+03  0.10646783661E+03  0.00000000000E+00 0. -1.
         22   -1    0    0    0    0 -0.00000000000E+00 -0.00000000000E+00 -0.79953995322E+03  0.79953995322E+03  0.00000000000E+00 0.  1.
         24    2    1    2    0    0 -0.72359167303E+02  0.37553870018E+02 -0.41492371107E+03  0.43029228889E+03  0.79646880846E+02 0.  0.
         25    2    1    2    0    0  0.12025161144E+02 -0.12602666594E+03 -0.29012760714E+03  0.34036668184E+03  0.12509246443E+03 0.  0.
        -24    2    1    2    0    0  0.60334006159E+02  0.88472795920E+02  0.11979201592E+02  0.13534881909E+03  0.81903440959E+02 0.  0.
        -11    1    3    3    0    0 -0.32776611372E+02  0.26264040413E+02 -0.35569060577E+03  0.35816185323E+03  0.00000000000E+00 0.  1.
         12    1    3    3    0    0 -0.39582555931E+02  0.11289829605E+02 -0.59233105294E+02  0.72130435666E+02  0.00000000000E+00 0. -1.
         11    1    5    5    0    0 -0.13727791491E+02  0.40511692526E+02  0.19062843982E+02  0.46829921111E+02  0.00000000000E+00 0. -1.
        -12    1    5    5    0    0  0.74061797649E+02  0.47961103393E+02 -0.70836423894E+01  0.88518897978E+02  0.00000000000E+00 0.  1.
          5    1    4    4  501    0 -0.24431106411E+02 -0.35973694641E+02 -0.11379379971E+02  0.45143641359E+02  0.41800000000E+01 0.  1.
         -5    1    4    4    0  501  0.36456267555E+02 -0.90052971297E+02 -0.27874822717E+03  0.29522304048E+03  0.41800000000E+01 0.  1.
</event>
<event>
11    1  0.6625361E-009  0.1644198E+03  0.7561462E-02  0.1082992E+00
         22   -1    0    0    0    0  0.00000000000E+00  0.00000000000E+00  0.15030612547E+04  0.15030612547E+04  0.00000000000E+00 0.  1.
         22   -1    0    0    0    0 -0.00000000000E+00 -0.00000000000E+00 -0.11907933615E+04  0.11907933615E+04  0.00000000000E+00 0.  1.
        -24    2    1    2    0    0  0.63658928319E+01  0.83345235095E+01 -0.11735234535E+04  0.11761678404E+04  0.78124925131E+02 0.  0.
         25    2    1    2    0    0  0.99676870684E+02  0.18488203539E+02  0.59384688717E+03  0.61528697942E+03  0.12508656772E+03 0.  0.
         24    2    1    2    0    0 -0.10604276352E+03 -0.26822727049E+02  0.89194445947E+03  0.90239979637E+03  0.82437535921E+02 0.  0.
        -11    1    5    5    0    0 -0.10663382569E+03 -0.22622379858E+02  0.89149460951E+03  0.89813427929E+03  0.00000000000E+00 0.  1.
         12    1    5    5    0    0  0.59106217100E+00 -0.42003471905E+01  0.44984996549E+00  0.42655170849E+01  0.00000000000E+00 0. -1.
         13    1    3    3    0    0  0.35683367284E+01 -0.31677444329E+02 -0.76907886112E+03  0.76973923385E+03  0.00000000000E+00 0. -1.
        -14    1    3    3    0    0  0.27975561035E+01  0.40011967838E+02 -0.40444459236E+03  0.40642860650E+03  0.00000000000E+00 0.  1.
          5    1    4    4  501    0  0.12162292733E+03 -0.11775789549E+02  0.48287015690E+03  0.49810828792E+03  0.41800000000E+01 0. -1.
         -5    1    4    4    0  501 -0.21946056647E+02  0.30263993088E+02  0.11097673027E+03  0.11717869150E+03  0.41800000000E+01 0. -1.
</event>
<event>
11    1  0.6625361E-009  0.1741243E+03  0.7561462E-02  0.1074497E+00
         22   -1    0    0    0    0  0.00000000000E+00  0.00000000000E+00  0.98244135769E+03  0.98244135769E+03  0.00000000000E+00 0. -1.
         22   -1    0    0    0    0 -0.00000000000E+00 -0.00000000000E+00 -0.74500074770E+03  0.74500074770E+03  0.00000000000E+00 0. -1.
         24    2    1    2    0    0 -0.11911189463E+03  0.11223083827E+02 -0.66910056136E+03  0.68467245946E+03  0.82263080838E+02 0.  0.
         25    2    1    2    0    0  0.14645944959E+03 -0.26715053466E+02  0.77610352017E+02  0.20937356329E+03  0.12509939171E+03 0.  0.
        -24    2    1    2    0    0 -0.27347554964E+02  0.15491969639E+02  0.82893081933E+03  0.83339608265E+03  0.80217438533E+02 0.  0.
        -11    1    3    3    0    0 -0.29452232649E+02  0.98339859946E+01 -0.48236747883E+02  0.57366585526E+02  0.00000000000E+00 0.  1.
         12    1    3    3    0    0 -0.89659661982E+02  0.13890978327E+01 -0.62086381348E+03  0.62730587393E+03  0.00000000000E+00 0. -1.
         11    1    5    5    0    0 -0.21389935960E+02 -0.95641138918E+01  0.75007815894E+03  0.75044403266E+03  0.00000000000E+00 0. -1.
        -12    1    5    5    0    0 -0.59576190034E+01  0.25056083531E+02  0.78852660395E+02  0.82952049990E+02  0.00000000000E+00 0.  1.
          5    1    4    4  501    0  0.20022441767E+01 -0.28546663607E+02 -0.19829498298E+02  0.35065686755E+02  0.41800000000E+01 0.  1.
         -5    1    4    4    0  501  0.14445720542E+03  0.18316101411E+01  0.97439850315E+02  0.17430787653E+03  0.41800000000E+01 0.  1.
</event>
<event>
11    1  0.6625361E-009  0.1401823E+03  0.7561462E-02  0.1107355E+00
         22   -1    0    0    0    0  0.00000000000E+00  0.00000000000E+00  0.86829290914E+03  0.86829290914E+03  0.00000000000E+00 0. -1.
         22   -1    0    0    0    0 -0.00000000000E+00 -0.00000000000E+00 -0.12612749755E+03  0.12612749755E+03  0.00000000000E+00 0.  1.
        -24    2    1    2    0    0 -0.21893842362E+02 -0.27924343593E+02 -0.68252868865E+02  0.10944245386E+03  0.77846562545E+02 0.  0.
         25    2    1    2    0    0 -0.41925196606E+02  0.39460004520E+02  0.10766168875E+03  0.17479334355E+03  0.12508740807E+03 0.  0.
         24    2    1    2    0    0  0.63819038968E+02 -0.11535660926E+02  0.70275659171E+03  0.71018460928E+03  0.79305805963E+02 0.  0.
        -11    1    5    5    0    0  0.22744741623E+02 -0.30461695218E+02  0.12481208106E+03  0.13047334489E+03  0.00000000000E+00 0.  1.
         12    1    5    5    0    0  0.41074297345E+02  0.18926034292E+02  0.57794451064E+03  0.57971126439E+03  0.00000000000E+00 0. -1.
         13    1    3    3    0    0 -0.30592057397E+02  0.20140482008E+02 -0.26913877165E+02  0.45451840176E+02  0.00000000000E+00 0. -1.
        -14    1    3    3    0    0  0.86982150347E+01 -0.48064825602E+02 -0.41338991700E+02  0.63990613684E+02  0.00000000000E+00 0.  1.
          5    1    4    4  501    0 -0.75476419628E+02  0.59964008294E+02  0.63459975645E+02  0.11548598668E+03  0.41800000000E+01 0.  1.
         -5    1    4    4    0  501  0.33551223022E+02 -0.20504003774E+02  0.44201713106E+02  0.59307356867E+02  0.41800000000E+01 0.  1.
</event>
<event>
11    1  0.6625361E-009  0.1415443E+03  0.7561462E-02  0.1105846E+00
         22   -1    0    0    0    0  0.00000000000E+00  0.00000000000E+00  0.14719002311E+03  0.14719002311E+03  0.00000000000E+00 0.  1.
         22   -1    0    0    0    0 -0.00000000000E+00 -0.00000000000E+00 -0.77222773753E+03  0.77222773753E+03  0.00000000000E+00 0. -1.
        -24    2    1    2    0    0  0.56279701686E+02  0.29336975267E+02 -0.65159553264E+03  0.65958122325E+03  0.80265739692E+02 0.  0.
         25    2    1    2    0    0  0.27130800539E+02 -0.45759948628E+01 -0.24624176301E+02  0.13042410557E+03  0.12508827758E+03 0.  0.
         24    2    1    2    0    0 -0.83410502226E+02 -0.24760980404E+02  0.51181994521E+02  0.12941243182E+03  0.80978780640E+02 0.  0.
        -13    1    5    5    0    0 -0.34253492119E+02  0.27536897941E+02  0.34117342272E+02  0.55637896386E+02  0.00000000000E+00 0.  1.
         14    1    5    5    0    0 -0.49157010107E+02 -0.52297878345E+02  0.17064652249E+02  0.73774535433E+02  0.00000000000E+00 0. -1.
         13    1    3    3    0    0  0.32534945878E+02 -0.26294248176E+02 -0.27034045036E+03  0.27355779882E+03  0.00000000000E+00 0. -1.
        -14    1    3    3    0    0  0.23744755808E+02  0.55631223443E+02 -0.38125508228E+03  0.38602342443E+03  0.00000000000E+00 0.  1.
          5    1    4    4  501    0  0.20797744901E+02 -0.35267574145E+01  0.50511620275E+02  0.54898819601E+02  0.41800000000E+01 0.  1.
         -5    1    4    4    0  501  0.63330556384E+01 -0.10492374482E+01 -0.75135796576E+02  0.75525285965E+02  0.41800000000E+01 0.  1.
</event>
<event>
11    1  0.6625361E-009  0.1461388E+03  0.7561462E-02  0.1100891E+00
         22   -1    0    0    0    0  0.00000000000E+00  0.00000000000E+00  0.27799120452E+04  0.27799120452E+04  0.00000000000E+00 0.  1.
         22   -1    0    0    0    0 -0.00000000000E+00 -0.00000000000E+00 -0.79005859181E+03  0.79005859181E+03  0.00000000000E+00 0.  1.
         24    2    1    2    0    0  0.30155354103E+02 -0.67355617816E+02 -0.71608396177E+03  0.72460906315E+03  0.82679679900E+02 0.  0.
         25    2    1    2    0    0 -0.29594003487E+02  0.12042702423E+03  0.43790587424E+02  0.18150296689E+03  0.12508892132E+03 0.  0.
        -24    2    1    2    0    0 -0.56135061547E+00 -0.53071406413E+02  0.26621468278E+04  0.26638586070E+04  0.79372893636E+02 0.  0.
        -11    1    3    3    0    0  0.47827586561E+02 -0.41152675982E+02 -0.26453975658E+03  0.27196011397E+03  0.00000000000E+00 0.  1.
         12    1    3    3    0    0 -0.17672232458E+02 -0.26202941834E+02 -0.45154420519E+03  0.45264894919E+03  0.00000000000E+00 0. -1.
         13    1    5    5    0    0  0.24647424607E+02  0.76836280668E+01  0.45501393113E+03  0.45574577475E+03  0.00000000000E+00 0. -1.
        -14    1    5    5    0    0 -0.25208775222E+02 -0.60755034479E+02  0.22071328966E+04  0.22081128323E+04  0.00000000000E+00 0.  1.
          5    1    4    4  501    0 -0.10906257986E+02  0.12735895610E+03  0.71956004145E+02  0.14674600197E+03  0.41800000000E+01 0. -1.
         -5    1    4    4    0  501 -0.18687745502E+02 -0.69319318708E+01 -0.28165416721E+02  0.34756964920E+02  0.41800000000E+01 0. -1.
</event>
<event>
11    1  0.6625361E-009  0.1586533E+03  0.7561462E-02  0.1088351E+00
         22   -1    0    0    0    0  0.00000000000E+00  0.00000000000E+00  0.22585979873E+04  0.22585979873E+04  0.00000000000E+00 0.  1.
         22   -1    0    0    0    0 -0.00000000000E+00 -0.00000000000E+00 -0.76456099391E+03  0.76456099391E+03  0.00000000000E+00 0.  1.
         24    2    1    2    0    0 -0.30142061443E+02 -0.84982804487E+02 -0.72027275827E+03  0.73050594203E+03  0.81947935409E+02 0.  0.
         25    2    1    2    0    0 -0.40156442295E+02  0.14992568126E+03  0.22987895509E+03  0.30427396780E+03  0.12509222089E+03 0.  0.
        -24    2    1    2    0    0  0.70298503738E+02 -0.64942876769E+02  0.19844307966E+04  0.19883790714E+04  0.80785445986E+02 0.  0.
        -11    1    3    3    0    0  0.98950082649E+01 -0.76295363430E+02 -0.37495818315E+03  0.38276955571E+03  0.00000000000E+00 0.  1.
         12    1    3    3    0    0 -0.40037069708E+02 -0.86874410570E+01 -0.34531457512E+03  0.34773638632E+03  0.00000000000E+00 0. -1.
         11    1    5    5    0    0 -0.49025373810E+01 -0.36238785689E+02  0.33598771254E+03  0.33797193292E+03  0.00000000000E+00 0. -1.
        -12    1    5    5    0    0  0.75201041119E+02 -0.28704091080E+02  0.16484430840E+04  0.16504071385E+04  0.00000000000E+00 0.  1.
          5    1    4    4  501    0 -0.65340611613E+02  0.23850929088E+02  0.66383040208E+02  0.96241585459E+02  0.41800000000E+01 0. -1.
         -5    1    4    4    0  501  0.25184169318E+02  0.12607475217E+03  0.16349591488E+03  0.20803238234E+03  0.41800000000E+01 0. -1.
</event>
<event>
11    1  0.6625361E-009  0.1321234E+03  0.7561462E-02  0.1116687E+00
         22   -1    0    0    0    0  0.00000000000E+00  0.00000000000E+00  0.35062192720E+03  0.35062192720E+03  0.00000000000E+00 0.  1.
         22   -1    0    0    0    0 -0.00000000000E+00 -0.00000000000E+00 -0.10597215011E+04  0.10597215011E+04  0.00000000000E+00 0. -1.
        -24    2    1    2    0    0 -0.43123318111E+02 -0.44474747157E+01 -0.10079456921E+04  0.10122378304E+04  0.82410597373E+02 0.  0.
         25    2    1    2    0    0  0.73067319408E+01 -0.19151389820E+02  0.55827831369E+02  0.13850820687E+03  0.12509041750E+03 0.  0.
         24    2    1    2    0    0  0.35816586170E+02  0.23598864536E+02  0.24301828686E+03  0.25959739097E+03  0.80580291640E+02 0.  0.
        -13    1    5    5    0    0  0.25156209162E+02  0.52478256643E+02  0.18471952112E+03  0.19367009001E+03  0.00000000000E+00 0.  1.
         14    1    5    5    0    0  0.10660377008E+02 -0.28879392107E+02  0.58298765732E+02  0.65927300964E+02  0.00000000000E+00 0. -1.
         11    1    3    3    0    0  0.15650852619E+02 -0.17075757085E+02 -0.53295195462E+03  0.53345507459E+03  0.00000000000E+00 0. -1.
        -12    1    3    3    0    0 -0.58774170730E+02  0.12628282369E+02 -0.47499373746E+03  0.47878275583E+03  0.00000000000E+00 0.  1.
          5    1    4    4  501    0  0.42221296174E+02  0.39394915031E+02  0.19113782131E+02  0.60970535903E+02  0.41800000000E+01 0. -1.
         -5    1    4    4    0  501 -0.34914564233E+02 -0.58546304851E+02  0.36714049238E+02  0.77537670966E+02  0.41800000000E+01 0. -1.
</event>
<event>
11    1  0.6625361E-009  0.1724570E+03  0.7561462E-02  0.1075913E+00
         22   -1    0    0    0    0  0.00000000000E+00  0.00000000000E+00  0.26056705856E+03  0.26056705856E+03  0.00000000000E+00 0.  1.
         22   -1    0    0    0    0 -0.00000000000E+00 -0.00000000000E+00 -0.36681857191E+03  0.36681857191E+03  0.00000000000E+00 0. -1.
         24    2    1    2    0    0 -0.28719841723E+02  0.88917255600E+02 -0.18900100373E+03  0.22591650595E+03  0.81152822471E+02 0.  0.
         25    2    1    2    0    0  0.12293994731E+03 -0.77673309978E+01 -0.70549071142E+02  0.18920924307E+03  0.12509358157E+03 0.  0.
        -24    2    1    2    0    0 -0.94220105585E+02 -0.81149924603E+02  0.15329856153E+03  0.21225988145E+03  0.78045305724E+02 0.  0.
        -13    1    3    3    0    0 -0.15671898554E+02  0.80779191394E+02 -0.76446340193E+02  0.11231620139E+03  0.00000000000E+00 0.  1.
         14    1    3    3    0    0 -0.13047943168E+02  0.81380642064E+01 -0.11255466354E+03  0.11360030455E+03  0.00000000000E+00 0. -1.
         11    1    5    5    0    0 -0.48660506133E+02 -0.86608653319E+02  0.89775201220E+02  0.13389731305E+03  0.00000000000E+00 0. -1.
        -12    1    5    5    0    0 -0.45559599452E+02  0.54587287165E+01  0.63523360308E+02  0.78362568400E+02  0.00000000000E+00 0.  1.
          5    1    4    4  501    0  0.43433693205E+02 -0.47376126877E+02  0.14653809468E+02  0.66054444477E+02  0.41800000000E+01 0.  1.
         -5    1    4    4    0  501  0.79506254103E+02  0.39608795880E+02 -0.85202880610E+02  0.12315479859E+03  0.41800000000E+01 0.  1.
</event>
<event>
11    1  0.6625361E-009  0.1374105E+03  0.7561462E-02  0.1110485E+00
         22   -1    0    0    0    0  0.00000000000E+00  0.00000000000E+00  0.21055471364E+03  0.21055471364E+03  0.00000000000E+00 0. -1.
         22   -1    0    0    0    0 -0.00000000000E+00 -0.00000000000E+00 -0.25494923247E+03  0.25494923247E+03  0.00000000000E+00 0.  1.
        -24    2    1    2    0    0 -0.52079119612E+02 -0.23343443043E+02 -0.13831027072E+03  0.16908060988E+03  0.78748781694E+02 0.  0.
         25    2    1    2    0    0  0.46207048241E+02  0.33544772124E+02 -0.36161812029E+02  0.14218282928E+03  0.12509171535E+03 0.  0.
         24    2    1    2    0    0  0.58720713709E+01 -0.10201329081E+02  0.13007756391E+03  0.15424050695E+03  0.82045188843E+02 0.  0.
        -13    1    5    5    0    0  0.37720548137E+02 -0.59463168564E+01  0.28351626241E+02  0.47560626010E+02  0.00000000000E+00 0.  1.
         14    1    5    5    0    0 -0.31848476766E+02 -0.42550122244E+01  0.10172593767E+03  0.10667988094E+03  0.00000000000E+00 0. -1.
         11    1    3    3    0    0 -0.13210746542E+02  0.26384951074E+02 -0.22205697497E+02  0.36929425512E+02  0.00000000000E+00 0. -1.
        -12    1    3    3    0    0 -0.38868373070E+02 -0.49728394117E+02 -0.11610457322E+03  0.13215118437E+03  0.00000000000E+00 0.  1.
          5    1    4    4  501    0  0.55927025346E+02  0.13952813315E+02 -0.76638018668E+02  0.95986308757E+02  0.41800000000E+01 0.  1.
         -5    1    4    4    0  501 -0.97199771046E+01  0.19591958809E+02  0.40476206639E+02  0.46196520526E+02  0.41800000000E+01 0.  1.
</event>
<event>
11    1  0.6625361E-009  0.1610920E+03  0.7561462E-02  0.1086055E+00
         22   -1    0    0    0    0  0.00000000000E+00  0.00000000000E+00  0.31152231406E+03  0.31152231406E+03  0.00000000000E+00 0. -1.
         22   -1    0    0    0    0 -0.00000000000E+00 -0.00000000000E+00 -0.89483737481E+03  0.89483737481E+03  0.00000000000E+00 0. -1.
        -24    2    1    2    0    0  0.26044675758E+02  0.98294070466E+02 -0.79732401893E+03  0.80759751861E+03  0.78409894019E+02 0.  0.
         25    2    1    2    0    0 -0.33467540857E+01 -0.10104346323E+03  0.19467755656E+01  0.16084657026E+03  0.12508735750E+03 0.  0.
         24    2    1    2    0    0 -0.22697921672E+02  0.27493927627E+01  0.21206218261E+03  0.23791560000E+03  0.10540734615E+03 0.  0.
        -11    1    5    5    0    0 -0.34665957412E+02 -0.33053712069E+02  0.41970769443E+02  0.63685335616E+02  0.00000000000E+00 0.  1.
         12    1    5    5    0    0  0.11968035740E+02  0.35803104832E+02  0.17009141316E+03  0.17423026438E+03  0.00000000000E+00 0. -1.
         11    1    3    3    0    0  0.22404412012E+02  0.84192668957E+02 -0.78049215397E+03  0.78533964983E+03  0.00000000000E+00 0. -1.
        -12    1    3    3    0    0  0.36402637458E+01  0.14101401509E+02 -0.16831864954E+02  0.22257868777E+02  0.00000000000E+00 0.  1.
          5    1    4    4  501    0  0.52467647460E+02 -0.85485415032E+02 -0.11996476583E+02  0.10110389737E+03  0.41800000000E+01 0. -1.
         -5    1    4    4    0  501 -0.55814401546E+02 -0.15558048196E+02  0.13943252149E+02  0.59742672890E+02  0.41800000000E+01 0. -1.
</event>
<event>
11    1  0.6625361E-009  0.1359506E+03  0.7561462E-02  0.1112166E+00
         22   -1    0    0    0    0  0.00000000000E+00  0.00000000000E+00  0.13171053933E+04  0.13171053933E+04  0.00000000000E+00 0. -1.
         22   -1    0    0    0    0 -0.00000000000E+00 -0.00000000000E+00 -0.98570998788E+03  0.98570998788E+03  0.00000000000E+00 0.  1.
         24    2    1    2    0    0 -0.13314268127E+02  0.55772712044E+02 -0.76127615120E+03  0.76780246634E+03  0.81800878850E+02 0.  0.
         25    2    1    2    0    0  0.37534847338E+02 -0.18830877944E+02 -0.19970693394E+03  0.23936010359E+03  0.12508770122E+03 0.  0.
        -24    2    1    2    0    0 -0.24220579211E+02 -0.36941834100E+02  0.12923784905E+04  0.12956528112E+04  0.80763289248E+02 0.  0.
        -13    1    3    3    0    0 -0.14855850840E+02  0.39831444892E+02 -0.73975741200E+03  0.74097791392E+03  0.00000000000E+00 0.  1.
         14    1    3    3    0    0  0.15415827130E+01  0.15941267152E+02 -0.21518739206E+02  0.26824552423E+02  0.00000000000E+00 0. -1.
         13    1    5    5    0    0 -0.83400565307E+01 -0.16252834602E+02  0.11854068536E+04  0.11855476033E+04  0.00000000000E+00 0. -1.
        -14    1    5    5    0    0 -0.15880522680E+02 -0.20688999498E+02  0.10697163696E+03  0.11010520793E+03  0.00000000000E+00 0.  1.
          5    1    4    4  501    0  0.17351026670E+02  0.38788502769E+02 -0.16188289691E+03  0.16741908728E+03  0.41800000000E+01 0. -1.
         -5    1    4    4    0  501  0.20183820668E+02 -0.57619380713E+02 -0.37824037032E+02  0.71941016311E+02  0.41800000000E+01 0. -1.
</event>
<event>
11    1  0.6625361E-009  0.1539464E+03  0.7561462E-02  0.1092913E+00
         22   -1    0    0    0    0  0.00000000000E+00  0.00000000000E+00  0.95530070902E+03  0.95530070902E+03  0.00000000000E+00 0. -1.
         22   -1    0    0    0    0 -0.00000000000E+00 -0.00000000000E+00 -0.59199274220E+03  0.59199274220E+03  0.00000000000E+00 0. -1.
        -24    2    1    2    0    0  0.72921131963E+02 -0.57496077898E+02 -0.51443779606E+03  0.53084848084E+03  0.92361101824E+02 0.  0.
         25    2    1    2    0    0 -0.70139784254E+02  0.71885466400E+01  0.10528288107E+02  0.14397671246E+03  0.12508870590E+03 0.  0.
         24    2    1    2    0    0 -0.27813477088E+01  0.50307531258E+02  0.86721747478E+03  0.87246825792E+03  0.81216555724E+02 0.  0.
        -11    1    5    5    0    0  0.30234751706E+02  0.31357643880E+02  0.22834572567E+03  0.23246335727E+03  0.00000000000E+00 0.  1.
         12    1    5    5    0    0 -0.33016099415E+02  0.18949887378E+02  0.63887174910E+03  0.64000490065E+03  0.00000000000E+00 0. -1.
         13    1    3    3    0    0  0.11799856419E+02 -0.64799552532E+02 -0.20409380823E+03  0.21445862346E+03  0.00000000000E+00 0. -1.
        -14    1    3    3    0    0  0.61121275544E+02  0.73034746345E+01 -0.31034398783E+03  0.31638985738E+03  0.00000000000E+00 0.  1.
          5    1    4    4  501    0 -0.54375117984E+02 -0.26808912514E+02  0.57555787458E+02  0.83698938559E+02  0.41800000000E+01 0.  1.
         -5    1    4    4    0  501 -0.15764666271E+02  0.33997459154E+02 -0.47027499352E+02  0.60277773904E+02  0.41800000000E+01 0.  1.
</event>
<event>
11    1  0.6625361E-009  0.2162810E+03  0.7561462E-02  0.1043572E+00
         22   -1    0    0    0    0  0.00000000000E+00  0.00000000000E+00  0.52305357877E+03  0.52305357877E+03  0.00000000000E+00 0.  1.
         22   -1    0    0    0    0 -0.00000000000E+00 -0.00000000000E+00 -0.39200005879E+03  0.39200005879E+03  0.00000000000E+00 0.  1.
        -24    2    1    2    0    0 -0.13411362965E+03 -0.10650263748E+03 -0.27995979616E+03  0.33938242163E+03  0.86450351065E+02 0.  0.
         25    2    1    2    0    0  0.12750872252E+03  0.19228476330E+03  0.18792302935E+03  0.32279251336E+03  0.12509211486E+03 0.  0.
         24    2    1    2    0    0  0.66049071280E+01 -0.85782125824E+02  0.22309028679E+03  0.25287870257E+03  0.82317460135E+02 0.  0.
        -11    1    5    5    0    0  0.14970582382E+02 -0.42035119557E+02  0.19540677491E+03  0.20043671643E+03  0.00000000000E+00 0.  1.
         12    1    5    5    0    0 -0.83656752538E+01 -0.43747006268E+02  0.27683511878E+02  0.52441986135E+02  0.00000000000E+00 0. -1.
         13    1    3    3    0    0 -0.98156509648E+02 -0.70902009478E+02 -0.11558870059E+03  0.16739935196E+03  0.00000000000E+00 0. -1.
        -14    1    3    3    0    0 -0.35957120002E+02 -0.35600627998E+02 -0.16437109557E+03  0.17198306967E+03  0.00000000000E+00 0.  1.
          5    1    4    4  501    0 -0.22108865494E+01  0.49331919897E+02  0.97959131191E+02  0.10978155639E+03  0.41800000000E+01 0. -1.
         -5    1    4    4    0  501  0.12971960907E+03  0.14295284340E+03  0.89963898163E+02  0.21301095697E+03  0.41800000000E+01 0. -1.
</event>
<event>
11    1  0.6625361E-009  0.1579397E+03  0.7561462E-02  0.1089031E+00
         22   -1    0    0    0    0  0.00000000000E+00  0.00000000000E+00  0.19048015172E+04  0.19048015172E+04  0.00000000000E+00 0.  1.
         22   -1    0    0    0    0 -0.00000000000E+00 -0.00000000000E+00 -0.84338325045E+03  0.84338325045E+03  0.00000000000E+00 0. -1.
        -24    2    1    2    0    0  0.33659600981E+02  0.35308846427E+02 -0.73176879366E+03  0.73786429105E+03  0.81107713867E+02 0.  0.
         25    2    1    2    0    0  0.22081706533E+02  0.44450435030E+02 -0.63811354110E+02  0.14898976886E+03  0.12515038703E+03 0.  0.
         24    2    1    2    0    0 -0.55741307514E+02 -0.79759281457E+02  0.18569984145E+04  0.18613307078E+04  0.81487764124E+02 0.  0.
        -11    1    5    5    0    0 -0.16491148454E+02 -0.84849601891E+02  0.11657718526E+04  0.11689719523E+04  0.00000000000E+00 0.  1.
         12    1    5    5    0    0 -0.39250159059E+02  0.50903204342E+01  0.69122656193E+03  0.69235875546E+03  0.00000000000E+00 0. -1.
         11    1    3    3    0    0  0.58843590944E+02  0.15075097378E+02 -0.40957335349E+03  0.41405332826E+03  0.00000000000E+00 0. -1.
        -12    1    3    3    0    0 -0.25183989963E+02  0.20233749049E+02 -0.32219544017E+03  0.32381096278E+03  0.00000000000E+00 0.  1.
          5    1    4    4  501    0  0.14825313247E+02 -0.66218994567E+01  0.34236189652E+02  0.38121234859E+02  0.41800000000E+01 0. -1.
         -5    1    4    4    0  501  0.72563932853E+01  0.51072334486E+02 -0.98047543762E+02  0.11086853400E+03  0.41800000000E+01 0. -1.
</event>
<event>
11    1  0.6625361E-009  0.1580288E+03  0.7561462E-02  0.1088946E+00
         22   -1    0    0    0    0  0.00000000000E+00  0.00000000000E+00  0.12174037121E+04  0.12174037121E+04  0.00000000000E+00 0. -1.
         22   -1    0    0    0    0 -0.00000000000E+00 -0.00000000000E+00 -0.77952684767E+03  0.77952684767E+03  0.00000000000E+00 0.  1.
        -24    2    1    2    0    0  0.31393266679E+01  0.24225375306E+02 -0.61087755079E+03  0.61668081032E+03  0.80790566155E+02 0.  0.
         25    2    1    2    0    0  0.42660954484E+02 -0.10878936753E+03 -0.11727835544E+03  0.20749991425E+03  0.12508764221E+03 0.  0.
         24    2    1    2    0    0 -0.45800281152E+02  0.84563992226E+02  0.11660327707E+04  0.11727498352E+04  0.80380464922E+02 0.  0.
        -11    1    5    5    0    0  0.18710496583E+02  0.36031549648E+01  0.10829834801E+03  0.10996180059E+03  0.00000000000E+00 0.  1.
         12    1    5    5    0    0 -0.64510777735E+02  0.80960837262E+02  0.10577344227E+04  0.10627880346E+04  0.00000000000E+00 0. -1.
         11    1    3    3    0    0 -0.25193873819E+02  0.33257434027E+02 -0.17974455840E+03  0.18452342526E+03  0.00000000000E+00 0. -1.
        -12    1    3    3    0    0  0.28333200486E+02 -0.90320587212E+01 -0.43113299240E+03  0.43215738507E+03  0.00000000000E+00 0.  1.
          5    1    4    4  501    0  0.63843824291E+02 -0.86191809991E+02 -0.13428697428E+03  0.17191720644E+03  0.41800000000E+01 0. -1.
         -5    1    4    4    0  501 -0.21182869807E+02 -0.22597557542E+02  0.17008618839E+02  0.35582707808E+02  0.41800000000E+01 0. -1.
</event>
<event>
11    1  0.6625361E-009  0.2210907E+03  0.7561462E-02  0.1040536E+00
         22   -1    0    0    0    0  0.00000000000E+00  0.00000000000E+00  0.16286145352E+03  0.16286145352E+03  0.00000000000E+00 0. -1.
         22   -1    0    0    0    0 -0.00000000000E+00 -0.00000000000E+00 -0.12354535528E+04  0.12354535528E+04  0.00000000000E+00 0.  1.
        -24    2    1    2    0    0 -0.73352240806E+02 -0.16283458049E+03 -0.72320246905E+03  0.74926246104E+03  0.80478397423E+02 0.  0.
         25    2    1    2    0    0  0.46948789461E+02  0.18617214940E+03 -0.45549090418E+03  0.50988648519E+03  0.12509198993E+03 0.  0.
         24    2    1    2    0    0  0.26403451344E+02 -0.23337568909E+02  0.10610127399E+03  0.13916606005E+03  0.82872960385E+02 0.  0.
        -11    1    5    5    0    0  0.33008692224E+00 -0.31130690172E+02  0.15933430960E+01  0.31173186719E+02  0.00000000000E+00 0.  1.
         12    1    5    5    0    0  0.26073364422E+02  0.77931212632E+01  0.10450793089E+03  0.10799287333E+03  0.00000000000E+00 0. -1.
         11    1    3    3    0    0 -0.51264450559E+02 -0.27591777035E+02 -0.18896611206E+03  0.19773098280E+03  0.00000000000E+00 0. -1.
        -12    1    3    3    0    0 -0.22087790247E+02 -0.13524280345E+03 -0.53423635699E+03  0.55153147824E+03  0.00000000000E+00 0.  1.
          5    1    4    4  501    0 -0.14713593551E+01  0.41818355582E+02 -0.16416620468E+02  0.45143300605E+02  0.41800000000E+01 0. -1.
         -5    1    4    4    0  501  0.48420148817E+02  0.14435379381E+03 -0.43907428371E+03  0.46474318459E+03  0.41800000000E+01 0. -1.
</event>
<event>
11    1  0.6625361E-009  0.1655616E+03  0.7561462E-02  0.1081960E+00
         22   -1    0    0    0    0  0.00000000000E+00  0.00000000000E+00  0.42817151264E+03  0.42817151264E+03  0.00000000000E+00 0.  1.
         22   -1    0    0    0    0 -0.00000000000E+00 -0.00000000000E+00 -0.30924615324E+03  0.30924615324E+03  0.00000000000E+00 0.  1.
        -24    2    1    2    0    0  0.33501075358E+02  0.26141299181E+02 -0.23566713426E+03  0.25259983185E+03  0.80386487108E+02 0.  0.
         25    2    1    2    0    0  0.11185295150E+02  0.83197078271E+02  0.70508944261E+02  0.16629640931E+03  0.12504447156E+03 0.  0.
         24    2    1    2    0    0 -0.44686370508E+02 -0.10933837745E+03  0.28408354939E+03  0.31852142472E+03  0.82466250533E+02 0.  0.
        -13    1    5    5    0    0  0.20703365272E+02 -0.55345354650E+02  0.12424178155E+03  0.13757818830E+03  0.00000000000E+00 0.  1.
         14    1    5    5    0    0 -0.65389735780E+02 -0.53993022802E+02  0.15984176785E+03  0.18094323642E+03  0.00000000000E+00 0. -1.
         11    1    3    3    0    0 -0.19368214452E+01 -0.26875434088E+02 -0.78095995483E+02  0.82613707974E+02  0.00000000000E+00 0. -1.
        -12    1    3    3    0    0  0.35437896804E+02  0.53016733269E+02 -0.15757113877E+03  0.16998612388E+03  0.00000000000E+00 0.  1.
          5    1    4    4  501    0  0.17686354655E+02 -0.29765542794E+02  0.43167315182E+01  0.35141161760E+02  0.41800000000E+01 0.  1.
         -5    1    4    4    0  501 -0.65010595054E+01  0.11296262106E+03  0.66192212743E+02  0.13115524755E+03  0.41800000000E+01 0.  1.
</event>
<event>
11    1  0.6625361E-009  0.1363914E+03  0.7561462E-02  0.1111656E+00
         22   -1    0    0    0    0  0.00000000000E+00  0.00000000000E+00  0.58296578859E+03  0.58296578859E+03  0.00000000000E+00 0.  1.
         22   -1    0    0    0    0 -0.00000000000E+00 -0.00000000000E+00 -0.35763685753E+03  0.35763685753E+03  0.00000000000E+00 0. -1.
        -24    2    1    2    0    0 -0.49471360050E+02 -0.35255324309E+02 -0.26157185524E+03  0.27956529965E+03  0.77759680786E+02 0.  0.
         25    2    1    2    0    0  0.39790090031E+01  0.26746461991E+02 -0.33506874395E+02  0.13229247034E+03  0.12508949331E+03 0.  0.
         24    2    1    2    0    0  0.45492351047E+02  0.85088623184E+01  0.52040766069E+03  0.52874487613E+03  0.81271495539E+02 0.  0.
        -11    1    5    5    0    0  0.53010963537E+02  0.35456577214E+02  0.40524405755E+03  0.41023173610E+03  0.00000000000E+00 0.  1.
         12    1    5    5    0    0 -0.75186124907E+01 -0.26947714896E+02  0.11516360314E+03  0.11851314003E+03  0.00000000000E+00 0. -1.
         11    1    3    3    0    0 -0.32421729994E+02 -0.94674172571E+01 -0.23878079813E+03  0.24115777018E+03  0.00000000000E+00 0. -1.
        -12    1    3    3    0    0 -0.17049630056E+02 -0.25787907052E+02 -0.22791057110E+02  0.38407529462E+02  0.00000000000E+00 0.  1.
          5    1    4    4  501    0  0.64293342739E+02  0.10102527837E+02 -0.19009590438E+02  0.67930346075E+02  0.41800000000E+01 0. -1.
         -5    1    4    4    0  501 -0.60314333736E+02  0.16643934154E+02 -0.14497283957E+02  0.64362124268E+02  0.41800000000E+01 0. -1.
</event>
<event>
11    1  0.6625361E-009  0.2262769E+03  0.7561462E-02  0.1037355E+00
         22   -1    0    0    0    0  0.00000000000E+00  0.00000000000E+00  0.48941606322E+03  0.48941606322E+03  0.00000000000E+00 0. -1.
         22   -1    0    0    0    0 -0.00000000000E+00 -0.00000000000E+00 -0.87981234659E+03  0.87981234659E+03  0.00000000000E+00 0.  1.
         24    2    1    2    0    0  0.17634612041E+03 -0.43377791585E+02 -0.55535426464E+03  0.58977445607E+03  0.80224452546E+02 0.  0.
         25    2    1    2    0    0 -0.20116812255E+03  0.53672406991E+02 -0.25499785786E+03  0.35216750629E+03  0.12509478075E+03 0.  0.
        -24    2    1    2    0    0  0.24822002141E+02 -0.10294615407E+02  0.41995583914E+03  0.42728644745E+03  0.74085696645E+02 0.  0.
        -11    1    3    3    0    0  0.93877426669E+02 -0.47774743251E+02 -0.40229115988E+03  0.41585282811E+03  0.00000000000E+00 0.  1.
         12    1    3    3    0    0  0.82468693740E+02  0.43969516668E+01 -0.15306310476E+03  0.17392162796E+03  0.00000000000E+00 0. -1.
         13    1    5    5    0    0  0.17795255336E+02 -0.36234852487E+02  0.35042300327E+03  0.35274058012E+03  0.00000000000E+00 0. -1.
        -14    1    5    5    0    0  0.70267468046E+01  0.25940237081E+02  0.69532835875E+02  0.74545867325E+02  0.00000000000E+00 0.  1.
          5    1    4    4  501    0 -0.35281409192E+02 -0.39036519982E+02 -0.53135903659E+02  0.74896758171E+02  0.41800000000E+01 0.  1.
         -5    1    4    4    0  501 -0.16588671336E+03  0.92708926973E+02 -0.20186195421E+03  0.27727074812E+03  0.41800000000E+01 0.  1.
</event>
<event>
11    1  0.6625361E-009  0.1313323E+03  0.7561462E-02  0.1117643E+00
         22   -1    0    0    0    0  0.00000000000E+00  0.00000000000E+00  0.79516813367E+03  0.79516813367E+03  0.00000000000E+00 0. -1.
         22   -1    0    0    0    0 -0.00000000000E+00 -0.00000000000E+00 -0.49206608547E+03  0.49206608547E+03  0.00000000000E+00 0. -1.
        -24    2    1    2    0    0  0.97148104799E+01 -0.18730865906E+02 -0.47010392396E+03  0.47720196645E+03  0.79238845160E+02 0.  0.
         25    2    1    2    0    0 -0.27451651443E+02 -0.19873966882E+02  0.27144354337E+03  0.30079665688E+03  0.12509382010E+03 0.  0.
         24    2    1    2    0    0  0.17736840963E+02  0.38604832787E+02  0.50176242879E+03  0.50923559582E+03  0.75831579559E+02 0.  0.
        -13    1    5    5    0    0  0.20757795170E+02 -0.13426168560E+02  0.68020492420E+02  0.72373582553E+02  0.00000000000E+00 0.  1.
         14    1    5    5    0    0 -0.30209542066E+01  0.52031001348E+02  0.43374193637E+03  0.43686201327E+03  0.00000000000E+00 0. -1.
         13    1    3    3    0    0 -0.25940787118E+02 -0.32862889823E+02 -0.29428292526E+03  0.29724625155E+03  0.00000000000E+00 0. -1.
        -14    1    3    3    0    0  0.35655597598E+02  0.14132023917E+02 -0.17582099870E+03  0.17995571489E+03  0.00000000000E+00 0.  1.
          5    1    4    4  501    0 -0.39725618223E+02 -0.24895071558E+02  0.28035698410E+03  0.28428049575E+03  0.41800000000E+01 0. -1.
         -5    1    4    4    0  501  0.12273966780E+02  0.50211046762E+01 -0.89134407337E+01  0.16516161128E+02  0.41800000000E+01 0. -1.
</event>
<event>
11    1  0.6625361E-009  0.2912727E+03  0.7561462E-02  0.1003954E+00
         22   -1    0    0    0    0  0.00000000000E+00  0.00000000000E+00  0.24982465379E+04  0.24982465379E+04  0.00000000000E+00 0.  1.
         22   -1    0    0    0    0 -0.00000000000E+00 -0.00000000000E+00 -0.15780588677E+04  0.15780588677E+04  0.00000000000E+00 0. -1.
        -24    2    1    2    0    0  0.22595399038E+03  0.13974300250E+03 -0.14546417286E+04  0.14806956876E+04  0.76771401113E+02 0.  0.
         25    2    1    2    0    0 -0.20268889615E+03 -0.11168742876E+03  0.48310312965E+02  0.26746678887E+03  0.12509087275E+03 0.  0.
         24    2    1    2    0    0 -0.23265094223E+02 -0.28055573737E+02  0.23265190858E+04  0.23281429292E+04  0.78930743062E+02 0.  0.
        -13    1    5    5    0    0  0.10870817874E+02 -0.46361505795E+02  0.14155288094E+04  0.14163295429E+04  0.00000000000E+00 0.  1.
         14    1    5    5    0    0 -0.34135912097E+02  0.18305932058E+02  0.91099027642E+03  0.91181338626E+03  0.00000000000E+00 0. -1.
         11    1    3    3    0    0  0.22586999330E+03  0.11806310402E+03 -0.13407399638E+04  0.13647489883E+04  0.00000000000E+00 0. -1.
        -12    1    3    3    0    0  0.83997076009E-01  0.21679898473E+02 -0.11390176480E+03  0.11594669930E+03  0.00000000000E+00 0.  1.
          5    1    4    4  501    0  0.12919328869E+02 -0.28984336570E+02  0.35216615566E+01  0.32200548520E+02  0.41800000000E+01 0. -1.
         -5    1    4    4    0  501 -0.21560822502E+03 -0.82703092190E+02  0.44788651408E+02  0.23526624035E+03  0.41800000000E+01 0. -1.
</event>
<event>
11    1  0.6625361E-009  0.1888298E+03  0.7561462E-02  0.1062716E+00
         22   -1    0    0    0    0  0.00000000000E+00  0.00000000000E+00  0.23960018586E+04  0.23960018586E+04  0.00000000000E+00 0. -1.
         22   -1    0    0    0    0 -0.00000000000E+00 -0.00000000000E+00 -0.31997125435E+02  0.31997125435E+02  0.00000000000E+00 0.  1.
         24    2    1    2    0    0 -0.15861588165E+02  0.32800287454E+02  0.13084068614E+03  0.15555413961E+03  0.75831104207E+02 0.  0.
         25    2    1    2    0    0 -0.12245362442E+03 -0.68186455937E+02  0.54741608629E+03  0.57874518531E+03  0.12504933061E+03 0.  0.
        -24    2    1    2    0    0  0.13831521259E+03  0.35386168483E+02  0.16857479608E+04  0.16936996591E+04  0.80554758948E+02 0.  0.
        -13    1    3    3    0    0 -0.10205648463E+02  0.16478051234E+02 -0.38492055970E+01  0.19761017604E+02  0.00000000000E+00 0.  1.
         14    1    3    3    0    0 -0.56559397024E+01  0.16322236221E+02  0.13468989174E+03  0.13579312201E+03  0.00000000000E+00 0. -1.
         11    1    5    5    0    0  0.13286661660E+03  0.25142971803E+02  0.16595187173E+04  0.16650189428E+04  0.00000000000E+00 0. -1.
        -12    1    5    5    0    0  0.54485959898E+01  0.10243196680E+02  0.26229243456E+02  0.28680716322E+02  0.00000000000E+00 0.  1.
          5    1    4    4  501    0 -0.49297728812E+02 -0.22931659542E+02  0.50179400441E+02  0.74105139525E+02  0.41800000000E+01 0.  1.
         -5    1    4    4    0  501 -0.73155895609E+02 -0.45254796395E+02  0.49723668585E+03  0.50464004579E+03  0.41800000000E+01 0.  1.
</event>
<event>
11    1  0.6625361E-009  0.1860767E+03  0.7561462E-02  0.1064831E+00
         22   -1    0    0    0    0  0.00000000000E+00  0.00000000000E+00  0.98727136034E+03  0.98727136034E+03  0.00000000000E+00 0.  1.
         22   -1    0    0    0    0 -0.00000000000E+00 -0.00000000000E+00 -0.11551763208E+03  0.11551763208E+03  0.00000000000E+00 0.  1.
         24    2    1    2    0    0  0.16568093668E+02 -0.51152442207E+01 -0.55397182909E+02  0.97421886846E+02  0.78240071007E+02 0.  0.
         25    2    1    2    0    0  0.11557774835E+03  0.55015693266E+02  0.24709097451E+03  0.30510633704E+03  0.12510389602E+03 0.  0.
        -24    2    1    2    0    0 -0.13214584202E+03 -0.49900449046E+02  0.68005993665E+03  0.70026076853E+03  0.89056432262E+02 0.  0.
        -11    1    3    3    0    0 -0.27041733027E+02  0.16245870602E+02 -0.23155497024E+02  0.39132603787E+02  0.00000000000E+00 0.  1.
         12    1    3    3    0    0  0.43609826696E+02 -0.21361114822E+02 -0.32241685884E+02  0.58289283059E+02  0.00000000000E+00 0. -1.
         11    1    5    5    0    0  0.81379249659E+01 -0.75445777321E+01  0.12110189331E+02  0.16425686029E+02  0.00000000000E+00 0. -1.
        -12    1    5    5    0    0 -0.14028376699E+03 -0.42355871314E+02  0.66794974732E+03  0.68383508250E+03  0.00000000000E+00 0.  1.
          5    1    4    4  501    0  0.28560984173E+02  0.13149744718E+02  0.19045966886E+03  0.19308289273E+03  0.41800000000E+01 0. -1.
         -5    1    4    4    0  501  0.87016764178E+02  0.41865948548E+02  0.56631305657E+02  0.11202344432E+03  0.41800000000E+01 0. -1.
</event>
<event>
11    1  0.6625361E-009  0.1322828E+03  0.7561462E-02  0.1116496E+00
         22   -1    0    0    0    0  0.00000000000E+00  0.00000000000E+00  0.15970615708E+04  0.15970615708E+04  0.00000000000E+00 0. -1.
         22   -1    0    0    0    0 -0.00000000000E+00 -0.00000000000E+00 -0.95382849651E+02  0.95382849651E+02  0.00000000000E+00 0.  1.
         24    2    1    2    0    0  0.15102774160E+02  0.13693068856E+02 -0.65664671575E+02  0.10683739307E+03  0.81772767727E+02 0.  0.
         25    2    1    2    0    0 -0.15271497878E+02 -0.53195301719E+02  0.67098610786E+03  0.68478697538E+03  0.12509151027E+03 0.  0.
        -24    2    1    2    0    0  0.16872371778E+00  0.39502232863E+02  0.89635728482E+03  0.90082005196E+03  0.80373684074E+02 0.  0.
        -13    1    3    3    0    0  0.31543366334E+02  0.16595766096E+02 -0.78213590555E+02  0.85952132955E+02  0.00000000000E+00 0.  1.
         14    1    3    3    0    0 -0.16440592174E+02 -0.29026972396E+01  0.12548918980E+02  0.20885260110E+02  0.00000000000E+00 0. -1.
         13    1    5    5    0    0  0.35296931774E+02  0.32682003714E+02  0.34973093216E+03  0.35302367012E+03  0.00000000000E+00 0. -1.
        -14    1    5    5    0    0 -0.35128208056E+02  0.68202291494E+01  0.54662635266E+03  0.54779638183E+03  0.00000000000E+00 0.  1.
          5    1    4    4  501    0 -0.31762737325E+02 -0.38215047330E+02  0.86374736546E+02  0.99736296493E+02  0.41800000000E+01 0. -1.
         -5    1    4    4    0  501  0.16491239446E+02 -0.14980254389E+02  0.58461137131E+03  0.58505067889E+03  0.41800000000E+01 0. -1.
</event>
<event>
11    1  0.6625361E-009  0.1382375E+03  0.7561462E-02  0.1109543E+00
         22   -1    0    0    0    0  0.00000000000E+00  0.00000000000E+00  0.13785791075E+04  0.13785791075E+04  0.00000000000E+00 0.  1.
         22   -1    0    0    0    0 -0.00000000000E+00 -0.00000000000E+00 -0.18342391002E+03  0.18342391002E+03  0.00000000000E+00 0. -1.
        -24    2    1    2    0    0  0.40766992069E+02  0.19659220887E+02 -0.15201198401E+03  0.17712948050E+03  0.78859222494E+02 0.  0.
         25    2    1    2    0    0  0.23416724477E+02 -0.18150120532E+02  0.23602530423E+03  0.26876568769E+03  0.12509708543E+03 0.  0.
         24    2    1    2    0    0 -0.64183716546E+02 -0.15091003547E+01  0.11111418773E+04  0.11161078493E+04  0.83298457693E+02 0.  0.
        -13    1    5    5    0    0 -0.39470849758E+02 -0.42041409268E+02  0.59610771345E+03  0.59889050261E+03  0.00000000000E+00 0.  1.
         14    1    5    5    0    0 -0.24712866788E+02  0.40532308914E+02  0.51503416380E+03  0.51721734671E+03  0.00000000000E+00 0. -1.
         13    1    3    3    0    0  0.29150963873E+02 -0.28386381073E+02 -0.80473234272E+02  0.90174867670E+02  0.00000000000E+00 0. -1.
        -14    1    3    3    0    0  0.11616028196E+02  0.48045601960E+02 -0.71538749736E+02  0.86954612831E+02  0.00000000000E+00 0.  1.
          5    1    4    4  501    0  0.25285709525E+02 -0.49216357854E+02  0.35672100762E+02  0.65966568498E+02  0.41800000000E+01 0. -1.
         -5    1    4    4    0  501 -0.18689850486E+01  0.31066237322E+02  0.20035320346E+03  0.20279911919E+03  0.41800000000E+01 0. -1.
</event>
<event>
11    1  0.6625361E-009  0.1454635E+03  0.7561462E-02  0.1101606E+00
         22   -1    0    0    0    0  0.00000000000E+00  0.00000000000E+00  0.89212920064E+03  0.89212920064E+03  0.00000000000E+00 0. -1.
         22   -1    0    0    0    0 -0.00000000000E+00 -0.00000000000E+00 -0.40138809816E+03  0.40138809816E+03  0.00000000000E+00 0. -1.
        -24    2    1    2    0    0  0.22218418499E+02 -0.14815960474E+02 -0.27691544584E+03  0.28969980558E+03  0.80812390164E+02 0.  0.
         25    2    1    2    0    0 -0.23062041989E+02  0.88548627657E+02 -0.61444921839E+02  0.16671689596E+03  0.12508528186E+03 0.  0.
         24    2    1    2    0    0  0.84362349086E+00 -0.73732667184E+02  0.82910147015E+03  0.83710059726E+03  0.88830986781E+02 0.  0.
        -13    1    5    5    0    0 -0.42429881836E+02 -0.26075810420E+02  0.42430999043E+03  0.42722267115E+03  0.00000000000E+00 0.  1.
         14    1    5    5    0    0  0.43273505326E+02 -0.47656856764E+02  0.40479147972E+03  0.40987792611E+03  0.00000000000E+00 0. -1.
         11    1    3    3    0    0 -0.11057991129E+02 -0.11059166338E+02 -0.23735093018E+03  0.23786560993E+03  0.00000000000E+00 0. -1.
        -12    1    3    3    0    0  0.33276409628E+02 -0.37567941353E+01 -0.39564515657E+02  0.51834195654E+02  0.00000000000E+00 0.  1.
          5    1    4    4  501    0  0.15661304127E+02  0.76327268019E+02  0.15555887184E+02  0.79564981721E+02  0.41800000000E+01 0.  1.
         -5    1    4    4    0  501 -0.38723346116E+02  0.12221359639E+02 -0.77000809022E+02  0.87151914241E+02  0.41800000000E+01 0.  1.
</event>
<event>
11    1  0.6625361E-009  0.1791246E+03  0.7561462E-02  0.1070353E+00
         22   -1    0    0    0    0  0.00000000000E+00  0.00000000000E+00  0.14529607539E+04  0.14529607539E+04  0.00000000000E+00 0.  1.
         22   -1    0    0    0    0 -0.00000000000E+00 -0.00000000000E+00 -0.43093281448E+03  0.43093281448E+03  0.00000000000E+00 0.  1.
        -24    2    1    2    0    0 -0.97432786682E+02  0.75896877264E+02 -0.33647612772E+03  0.36680632905E+03  0.77956491756E+02 0.  0.
         25    2    1    2    0    0  0.15603490782E+03 -0.84805021915E+02  0.74993698219E+02  0.22980496131E+03  0.12508989275E+03 0.  0.
         24    2    1    2    0    0 -0.58602121141E+02  0.89081446509E+01  0.12835103689E+04  0.12872822780E+04  0.78633533238E+02 0.  0.
        -13    1    5    5    0    0 -0.73936712735E+02  0.72365758218E+00  0.78648202109E+03  0.78995008112E+03  0.00000000000E+00 0.  1.
         14    1    5    5    0    0  0.15334591594E+02  0.81844870687E+01  0.49702834779E+03  0.49733219686E+03  0.00000000000E+00 0. -1.
         11    1    3    3    0    0  0.36701253507E+00 -0.73125953547E+01 -0.76477482498E+02  0.76827170183E+02  0.00000000000E+00 0. -1.
        -12    1    3    3    0    0 -0.97799799217E+02  0.83209472619E+02 -0.25999864522E+03  0.28997915886E+03  0.00000000000E+00 0.  1.
          5    1    4    4  501    0  0.14834860415E+03 -0.21221938965E+02  0.34241130417E+02  0.15377778272E+03  0.41800000000E+01 0.  1.
         -5    1    4    4    0  501  0.76863036727E+01 -0.63583082950E+02  0.40752567801E+02  0.76027178588E+02  0.41800000000E+01 0.  1.
</event>
<event>
11    1  0.6625361E-009  0.2705864E+03  0.7561462E-02  0.1013470E+00
         22   -1    0    0    0    0  0.00000000000E+00  0.00000000000E+00  0.27670864952E+04  0.27670864952E+04  0.00000000000E+00 0.  1.
         22   -1    0    0    0    0 -0.00000000000E+00 -0.00000000000E+00 -0.44668284832E+03  0.44668284832E+03  0.00000000000E+00 0.  1.
         24    2    1    2    0    0 -0.63738134645E+02  0.85906372634E+01 -0.37762051765E+03  0.39146408144E+03  0.80687811068E+02 0.  0.
         25    2    1    2    0    0  0.18748005587E+03  0.19364760625E+03  0.34205503796E+03  0.45309751560E+03  0.12509013909E+03 0.  0.
        -24    2    1    2    0    0 -0.12374192122E+03 -0.20223824351E+03  0.23559691266E+04  0.23692077465E+04  0.79639502645E+02 0.  0.
        -13    1    3    3    0    0 -0.61047553208E+02 -0.27105356518E+02 -0.26517364359E+03  0.27345669742E+03  0.00000000000E+00 0.  1.
         14    1    3    3    0    0 -0.26905814375E+01  0.35695993781E+02 -0.11244687405E+03  0.11800738403E+03  0.00000000000E+00 0. -1.
         13    1    5    5    0    0 -0.24984477468E+02 -0.12097577282E+00  0.21052242137E+03  0.21199983172E+03  0.00000000000E+00 0. -1.
        -14    1    5    5    0    0 -0.98757443757E+02 -0.20211726774E+03  0.21454467052E+04  0.21572079147E+04  0.00000000000E+00 0.  1.
          5    1    4    4  501    0  0.73526251304E+02  0.83529651031E+01  0.52125395433E+02  0.90611317758E+02  0.41800000000E+01 0. -1.
         -5    1    4    4    0  501  0.11395380457E+03  0.18529464115E+03  0.28992964252E+03  0.36248619784E+03  0.41800000000E+01 0. -1.
</event>
<event>
11    1  0.6625361E-009  0.3713592E+03  0.7561462E-02  0.9738261E-01
         22   -1    0    0    0    0  0.00000000000E+00  0.00000000000E+00  0.90794595652E+03  0.90794595652E+03  0.00000000000E+00 0.  1.
         22   -1    0    0    0    0 -0.00000000000E+00 -0.00000000000E+00 -0.43584998732E+03  0.43584998732E+03  0.00000000000E+00 0.  1.
         24    2    1    2    0    0 -0.10616108302E+03 -0.33826760893E+03 -0.73952086577E+02  0.37092205119E+03  0.80119324440E+02 0.  0.
         25    2    1    2    0    0  0.28067677903E+02  0.34772423712E+03 -0.43312404042E+02  0.37312748376E+03  0.12509282621E+03 0.  0.
        -24    2    1    2    0    0  0.78093405112E+02 -0.94566281933E+01  0.58936045983E+03  0.59974640889E+03  0.78498379821E+02 0.  0.
        -13    1    3    3    0    0 -0.10928722535E+03 -0.32430261830E+03 -0.54133821643E+02  0.34647706491E+03  0.00000000000E+00 0.  1.
         14    1    3    3    0    0  0.31261423315E+01 -0.13964990627E+02 -0.19818264934E+02  0.24444986277E+02  0.00000000000E+00 0. -1.
         13    1    5    5    0    0  0.35867959567E+01 -0.32726858509E+02  0.16085032860E+03  0.16418508027E+03  0.00000000000E+00 0. -1.
        -14    1    5    5    0    0  0.74506609156E+02  0.23270230315E+02  0.42851013123E+03  0.43556132862E+03  0.00000000000E+00 0.  1.
          5    1    4    4  501    0  0.11593248321E+02  0.23555337121E+03 -0.87207732570E+02  0.25148052631E+03  0.41800000000E+01 0. -1.
         -5    1    4    4    0  501  0.16474429581E+02  0.11217086591E+03  0.43895328528E+02  0.12164695745E+03  0.41800000000E+01 0. -1.
</event>
<event>
11    1  0.6625361E-009  0.2227686E+03  0.7561462E-02  0.1039497E+00
         22   -1    0    0    0    0  0.00000000000E+00  0.00000000000E+00  0.11069669460E+04  0.11069669460E+04  0.00000000000E+00 0. -1.
         22   -1    0    0    0    0 -0.00000000000E+00 -0.00000000000E+00 -0.10879388650E+03  0.10879388650E+03  0.00000000000E+00 0.  1.
        -24    2    1    2    0    0 -0.10024660892E+02  0.10950687314E+01 -0.12558746552E+02  0.74113865892E+02  0.72342587741E+02 0.  0.
         25    2    1    2    0    0  0.17607871260E+03 -0.76984261420E+02  0.19250924339E+03  0.29939581182E+03  0.12509098212E+03 0.  0.
         24    2    1    2    0    0 -0.16605405171E+03  0.75889192689E+02  0.81822256263E+03  0.84225115475E+03  0.81029180120E+02 0.  0.
        -11    1    5    5    0    0 -0.54620339245E+02 -0.63288754022E+01  0.33864275135E+03  0.34307775964E+03  0.00000000000E+00 0.  1.
         12    1    5    5    0    0 -0.11143371246E+03  0.82218068091E+02  0.47957981128E+03  0.49917339511E+03  0.00000000000E+00 0. -1.
         11    1    3    3    0    0 -0.37618431096E+02  0.98457542639E+01  0.65420467041E+01  0.39432012506E+02  0.00000000000E+00 0. -1.
        -12    1    3    3    0    0  0.27593770204E+02 -0.87506855325E+01 -0.19100793256E+02  0.34681853387E+02  0.00000000000E+00 0.  1.
          5    1    4    4  501    0  0.12613249742E+03 -0.64961691748E+02  0.20210431876E+03  0.24696772332E+03  0.41800000000E+01 0.  1.
         -5    1    4    4    0  501  0.49946215180E+02 -0.12022569672E+02 -0.95950753693E+01  0.52428088499E+02  0.41800000000E+01 0.  1.
</event>
<event>
11    1  0.6625361E-009  0.1306589E+03  0.7561462E-02  0.1118462E+00
         22   -1    0    0    0    0  0.00000000000E+00  0.00000000000E+00  0.18710584349E+04  0.18710584349E+04  0.00000000000E+00 0. -1.
         22   -1    0    0    0    0 -0.00000000000E+00 -0.00000000000E+00 -0.28955031045E+03  0.28955031045E+03  0.00000000000E+00 0.  1.
         24    2    1    2    0    0 -0.25778584023E+02 -0.30986619631E+02 -0.25018465692E+03  0.26568182985E+03  0.79810814832E+02 0.  0.
         25    2    1    2    0    0  0.56934708466E+02  0.49619028818E+02  0.14514006766E+03  0.20594857271E+03  0.12508223819E+03 0.  0.
        -24    2    1    2    0    0 -0.31156124443E+02 -0.18632409187E+02  0.16865527137E+04  0.16889783428E+04  0.82884953669E+02 0.  0.
        -11    1    3    3    0    0  0.10987504631E+02 -0.95767205054E+01 -0.19716189608E+03  0.19769990414E+03  0.00000000000E+00 0.  1.
         12    1    3    3    0    0 -0.36766088654E+02 -0.21409899125E+02 -0.53022760846E+02  0.67981925710E+02  0.00000000000E+00 0. -1.
         11    1    5    5    0    0 -0.50357292134E+02 -0.59375231838E+01  0.15196612629E+04  0.15205069763E+04  0.00000000000E+00 0. -1.
        -12    1    5    5    0    0  0.19201167691E+02 -0.12694886004E+02  0.16689145081E+03  0.16847136649E+03  0.00000000000E+00 0.  1.
          5    1    4    4  501    0  0.49776885596E+02 -0.17399570716E+02  0.85569124032E+01  0.53583360762E+02  0.41800000000E+01 0.  1.
         -5    1    4    4    0  501  0.71578228705E+01  0.67018599534E+02  0.13658315526E+03  0.15236521195E+03  0.41800000000E+01 0.  1.
</event>
<event>
11    1  0.6625361E-009  0.1446677E+03  0.7561462E-02  0.1102455E+00
         22   -1    0    0    0    0  0.00000000000E+00  0.00000000000E+00  0.49729936671E+03  0.49729936671E+03  0.00000000000E+00 0.  1.
         22   -1    0    0    0    0 -0.00000000000E+00 -0.00000000000E+00 -0.30054273764E+03  0.30054273764E+03  0.00000000000E+00 0. -1.
         24    2    1    2    0    0  0.37754250791E+02 -0.58764298670E+02 -0.25429509707E+03  0.27553615351E+03  0.79847036531E+02 0.  0.
         25    2    1    2    0    0  0.30322270197E+02  0.83877368061E+02  0.28489162103E+03  0.32367597898E+03  0.12509216879E+03 0.  0.
        -24    2    1    2    0    0 -0.68076520988E+02 -0.25113069391E+02  0.16616010511E+03  0.19862997186E+03  0.81114771952E+02 0.  0.
        -13    1    3    3    0    0 -0.15655747661E+02 -0.28241852907E+02 -0.34326282356E+02  0.47127469175E+02  0.00000000000E+00 0.  1.
         14    1    3    3    0    0  0.53409998452E+02 -0.30522445763E+02 -0.21996881472E+03  0.22840868433E+03  0.00000000000E+00 0. -1.
         13    1    5    5    0    0 -0.85633930208E+02 -0.22182406331E+02  0.11941799208E+03  0.14861320932E+03  0.00000000000E+00 0. -1.
        -14    1    5    5    0    0  0.17557409219E+02 -0.29306630592E+01  0.46742113028E+02  0.50016762538E+02  0.00000000000E+00 0.  1.
          5    1    4    4  501    0 -0.24619519924E+02  0.52403259388E+02  0.39502649655E+02  0.70215055975E+02  0.41800000000E+01 0.  1.
         -5    1    4    4    0  501  0.54941790121E+02  0.31474108672E+02  0.24538897138E+03  0.25346092301E+03  0.41800000000E+01 0.  1.
</event>
<event>
11    1  0.6625361E-009  0.4738190E+03  0.7561462E-02  0.9454005E-01
         22   -1    0    0    0    0  0.00000000000E+00  0.00000000000E+00  0.34240704855E+04  0.34240704855E+04  0.00000000000E+00 0.  1.
         22   -1    0    0    0    0 -0.00000000000E+00 -0.00000000000E+00 -0.16806851743E+04  0.16806851743E+04  0.00000000000E+00 0. -1.
        -24    2    1    2    0    0  0.13333446675E+03  0.43674898786E+03 -0.15629747396E+04  0.16302951584E+04  0.80277696387E+02 0.  0.
         25    2    1    2    0    0 -0.19951078910E+03 -0.42466181162E+03  0.62697200293E+03  0.79302122027E+03  0.12508618684E+03 0.  0.
         24    2    1    2    0    0  0.66176322354E+02 -0.12087176248E+02  0.26793880479E+04  0.26814392811E+04  0.80441912720E+02 0.  0.
        -13    1    5    5    0    0  0.72172860939E+02  0.17536633830E+02  0.20020124035E+04  0.20033896573E+04  0.00000000000E+00 0.  1.
         14    1    5    5    0    0 -0.59965385850E+01 -0.29623810078E+02  0.67737564442E+03  0.67804962374E+03  0.00000000000E+00 0. -1.
         13    1    3    3    0    0  0.80024339687E+02  0.36801021236E+03 -0.12791398510E+04  0.13334294768E+04  0.00000000000E+00 0. -1.
        -14    1    3    3    0    0  0.53310127062E+02  0.68738775504E+02 -0.28383488863E+03  0.29686568160E+03  0.00000000000E+00 0.  1.
          5    1    4    4  501    0 -0.17320034647E+03 -0.41482732740E+03  0.61595752568E+03  0.76256227117E+03  0.41800000000E+01 0.  1.
         -5    1    4    4    0  501 -0.26310442632E+02 -0.98344842118E+01  0.11014477246E+02  0.30458949099E+02  0.41800000000E+01 0.  1.
</event>
<event>
11    1  0.6625361E-009  0.1434099E+03  0.7561462E-02  0.1103809E+00
         22   -1    0    0    0    0  0.00000000000E+00  0.00000000000E+00  0.13408424320E+03  0.13408424320E+03  0.00000000000E+00 0.  1.
         22   -1    0    0    0    0 -0.00000000000E+00 -0.00000000000E+00 -0.90470233250E+03  0.90470233250E+03  0.00000000000E+00 0. -1.
        -24    2    1    2    0    0 -0.27070784483E+02  0.56224316188E+02 -0.60616878108E+03  0.61471094668E+03  0.80839072898E+02 0.  0.
         25    2    1    2    0    0  0.29872190692E+02 -0.12076474595E+03 -0.24059610282E+03  0.29834774778E+03  0.12509365401E+03 0.  0.
         24    2    1    2    0    0 -0.28014062085E+01  0.64540429766E+02  0.76146794608E+02  0.12572788124E+03  0.76392740757E+02 0.  0.
        -11    1    5    5    0    0  0.10932081505E+02  0.48467115902E+02  0.88317227399E+02  0.10133362909E+03  0.00000000000E+00 0.  1.
         12    1    5    5    0    0 -0.13733487713E+02  0.16073313864E+02 -0.12170432791E+02  0.24394252144E+02  0.00000000000E+00 0. -1.
         13    1    3    3    0    0 -0.22202473181E+02  0.73738636781E+02 -0.55683053480E+03  0.56213039489E+03  0.00000000000E+00 0. -1.
        -14    1    3    3    0    0 -0.48683113025E+01 -0.17514320592E+02 -0.49338246278E+02  0.52580551790E+02  0.00000000000E+00 0.  1.
          5    1    4    4  501    0 -0.39996381403E+02 -0.53550779565E+02 -0.47074436166E+02  0.81858850821E+02  0.41800000000E+01 0.  1.
         -5    1    4    4    0  501  0.69868572095E+02 -0.67213966389E+02 -0.19352166665E+03  0.21648889696E+03  0.41800000000E+01 0.  1.
</event>
<event>
11    1  0.6625361E-009  0.1535608E+03  0.7561462E-02  0.1093295E+00
         22   -1    0    0    0    0  0.00000000000E+00  0.00000000000E+00  0.13780919788E+03  0.13780919788E+03  0.00000000000E+00 0.  1.
         22   -1    0    0    0    0 -0.00000000000E+00 -0.00000000000E+00 -0.10560063552E+04  0.10560063552E+04  0.00000000000E+00 0.  1.
        -24    2    1    2    0    0 -0.16727558660E+02 -0.11820248930E+02 -0.52007688039E+03  0.52644101691E+03  0.78997805435E+02 0.  0.
         25    2    1    2    0    0  0.83965164542E+02  0.68489795215E+02 -0.48967609236E+03  0.51688728902E+03  0.12509513664E+03 0.  0.
         24    2    1    2    0    0 -0.67237605882E+02 -0.56669546286E+02  0.91555815469E+02  0.15048724712E+03  0.80818383296E+02 0.  0.
        -11    1    5    5    0    0 -0.82811766468E+02 -0.49326945495E+02  0.57266723067E+02  0.11211785669E+03  0.00000000000E+00 0.  1.
         12    1    5    5    0    0  0.15574160587E+02 -0.73426007903E+01  0.34289092402E+02  0.38369390431E+02  0.00000000000E+00 0. -1.
         13    1    3    3    0    0  0.16172221447E+02 -0.19132368044E+02 -0.58538220935E+02  0.63673476140E+02  0.00000000000E+00 0. -1.
        -14    1    3    3    0    0 -0.32899780107E+02  0.73121191145E+01 -0.46153865946E+03  0.46276754077E+03  0.00000000000E+00 0.  1.
          5    1    4    4  501    0  0.61752755210E+02 -0.15050401606E+02 -0.32150380262E+03  0.32775308521E+03  0.41800000000E+01 0.  1.
         -5    1    4    4    0  501  0.22212409331E+02  0.83540196821E+02 -0.16817228974E+03  0.18913420381E+03  0.41800000000E+01 0.  1.
</event>
<event>
11    1  0.6625361E-009  0.1956261E+03  0.7561462E-02  0.1057661E+00
         22   -1    0    0    0    0  0.00000000000E+00  0.00000000000E+00  0.35941853279E+03  0.35941853279E+03  0.00000000000E+00 0. -1.
         22   -1    0    0    0    0 -0.00000000000E+00 -0.00000000000E+00 -0.67631295397E+03  0.67631295397E+03  0.00000000000E+00 0.  1.
        -24    2    1    2    0    0 -0.98759396620E+02 -0.11758540851E+03 -0.48657398063E+03  0.51612510155E+03  0.77789042398E+02 0.  0.
         25    2    1    2    0    0  0.71568252623E+02  0.12117263913E+03 -0.11617499713E+03  0.22124374681E+03  0.12508933722E+03 0.  0.
         24    2    1    2    0    0  0.27191143996E+02 -0.35872306183E+01  0.28585455658E+03  0.29836263841E+03  0.80964251050E+02 0.  0.
        -11    1    5    5    0    0  0.19673691481E+02  0.33694498689E+02  0.79804337475E+02  0.88831895500E+02  0.00000000000E+00 0.  1.
         12    1    5    5    0    0  0.75174525150E+01 -0.37281729307E+02  0.20605021910E+03  0.20953074291E+03  0.00000000000E+00 0. -1.
         11    1    3    3    0    0 -0.33570657462E+02 -0.59570504384E+02 -0.10959111364E+03  0.12917370562E+03  0.00000000000E+00 0. -1.
        -12    1    3    3    0    0 -0.65188739158E+02 -0.58014904123E+02 -0.37698286699E+03  0.38695139593E+03  0.00000000000E+00 0.  1.
          5    1    4    4  501    0 -0.27882253390E+02  0.47909929523E+01  0.68663921955E+00  0.28606250034E+02  0.41800000000E+01 0.  1.
         -5    1    4    4    0  501  0.99450506014E+02  0.11638164617E+03 -0.11686163635E+03  0.19263749677E+03  0.41800000000E+01 0.  1.
</event>
<event>
11    1  0.6625361E-009  0.2496032E+03  0.7561462E-02  0.1024111E+00
         22   -1    0    0    0    0  0.00000000000E+00  0.00000000000E+00  0.10661291602E+04  0.10661291602E+04  0.00000000000E+00 0. -1.
         22   -1    0    0    0    0 -0.00000000000E+00 -0.00000000000E+00 -0.69092062209E+03  0.69092062209E+03  0.00000000000E+00 0.  1.
         24    2    1    2    0    0 -0.16927161268E+02 -0.37773862765E+01 -0.54394048833E+03  0.55039274562E+03  0.82219961949E+02 0.  0.
         25    2    1    2    0    0 -0.13746062702E+03 -0.14933273447E+03 -0.20095107051E+02  0.23925954909E+03  0.12508248853E+03 0.  0.
        -24    2    1    2    0    0  0.15438778829E+03  0.15311012075E+03  0.93924413353E+03  0.96739748762E+03  0.80000365199E+02 0.  0.
        -11    1    3    3    0    0 -0.29648584151E+02 -0.16892897939E+02 -0.51524612551E+03  0.51637484292E+03  0.00000000000E+00 0.  1.
         12    1    3    3    0    0  0.12721422883E+02  0.13115511662E+02 -0.28694362824E+02  0.34017902701E+02  0.00000000000E+00 0. -1.
         11    1    5    5    0    0  0.60817196571E+02  0.11168770933E+03  0.45362733151E+03  0.47111636748E+03  0.00000000000E+00 0. -1.
        -12    1    5    5    0    0  0.93570591721E+02  0.41422411416E+02  0.48561680202E+03  0.49628112014E+03  0.00000000000E+00 0.  1.
          5    1    4    4  501    0 -0.12962607392E+03 -0.89226195248E+02 -0.57862324157E+02  0.16771927115E+03  0.41800000000E+01 0. -1.
         -5    1    4    4    0  501 -0.78345531018E+01 -0.60106539222E+02  0.37767217106E+02  0.71540277939E+02  0.41800000000E+01 0. -1.
</event>
<event>
11    1  0.6625361E-009  0.2719332E+03  0.7561462E-02  0.1012823E+00
         22   -1    0    0    0    0  0.00000000000E+00  0.00000000000E+00  0.47552120555E+03  0.47552120555E+03  0.00000000000E+00 0.  1.
         22   -1    0    0    0    0 -0.00000000000E+00 -0.00000000000E+00 -0.95127853045E+03  0.95127853045E+03  0.00000000000E+00 0. -1.
        -24    2    1    2    0    0 -0.19967253859E+03  0.13275287463E+03 -0.67839032068E+03  0.72372431701E+03  0.77916695590E+02 0.  0.
         25    2    1    2    0    0  0.19852592620E+03 -0.14779922386E+03 -0.16756766066E+03  0.32401409798E+03  0.12509620635E+03 0.  0.
         24    2    1    2    0    0  0.11466123828E+01  0.15046349238E+02  0.37020065644E+03  0.37906132101E+03  0.80070292316E+02 0.  0.
        -11    1    5    5    0    0  0.13061721488E+02  0.28447575104E+02  0.35242286851E+03  0.35381033244E+03  0.00000000000E+00 0.  1.
         12    1    5    5    0    0 -0.11915109105E+02 -0.13401225866E+02  0.17777787930E+02  0.25250988562E+02  0.00000000000E+00 0. -1.
         13    1    3    3    0    0 -0.20004768483E+03  0.11221811609E+03 -0.64446351818E+03  0.68406520746E+03  0.00000000000E+00 0. -1.
        -14    1    3    3    0    0  0.37514624515E+00  0.20534758534E+02 -0.33926802497E+02  0.39659109551E+02  0.00000000000E+00 0.  1.
          5    1    4    4  501    0  0.16552452057E+03 -0.69073110787E+02 -0.15604538899E+03  0.23777530858E+03  0.41800000000E+01 0. -1.
         -5    1    4    4    0  501  0.33001405630E+02 -0.78726113077E+02 -0.11522271673E+02  0.86238789406E+02  0.41800000000E+01 0. -1.
</event>
<event>
11    1  0.6625361E-009  0.1583914E+03  0.7561462E-02  0.1088600E+00
         22   -1    0    0    0    0  0.00000000000E+00  0.00000000000E+00  0.16185824512E+03  0.16185824512E+03  0.00000000000E+00 0.  1.
         22   -1    0    0    0    0 -0.00000000000E+00 -0.00000000000E+00 -0.69775418396E+03  0.69775418396E+03  0.00000000000E+00 0.  1.
        -24    2    1    2    0    0  0.86591321027E+02  0.34670501352E+02 -0.53024254768E+03  0.54432456770E+03  0.80199595282E+02 0.  0.
         25    2    1    2    0    0 -0.11733672507E+03 -0.10812623824E+03 -0.10639325803E+02  0.20302729066E+03  0.12509074727E+03 0.  0.
         24    2    1    2    0    0  0.30745404041E+02  0.73455736885E+02  0.49859346460E+01  0.11226057073E+03  0.78971837035E+02 0.  0.
        -11    1    5    5    0    0  0.32152146173E+02  0.87758292717E+02  0.15116569303E+02  0.94677289313E+02  0.00000000000E+00 0.  1.
         12    1    5    5    0    0 -0.14067421313E+01 -0.14302555832E+02 -0.10130634657E+02  0.17583281415E+02  0.00000000000E+00 0. -1.
         11    1    3    3    0    0  0.19430241042E+02 -0.22626809787E+02 -0.77200286407E+02  0.82761047658E+02  0.00000000000E+00 0. -1.
        -12    1    3    3    0    0  0.67161079985E+02  0.57297311139E+02 -0.45304226128E+03  0.46156352004E+03  0.00000000000E+00 0.  1.
          5    1    4    4  501    0 -0.71690018581E+02 -0.65127878538E+02  0.55566027038E+02  0.11174146539E+03  0.41800000000E+01 0.  1.
         -5    1    4    4    0  501 -0.45646706488E+02 -0.42998359700E+02 -0.66205352841E+02  0.91285825268E+02  0.41800000000E+01 0.  1.
</event>
<event>
11    1  0.6625361E-009  0.1509183E+03  0.7561462E-02  0.1095944E+00
         22   -1    0    0    0    0  0.00000000000E+00  0.00000000000E+00  0.15388210460E+03  0.15388210460E+03  0.00000000000E+00 0.  1.
         22   -1    0    0    0    0 -0.00000000000E+00 -0.00000000000E+00 -0.14856131644E+04  0.14856131644E+04  0.00000000000E+00 0. -1.
         24    2    1    2    0    0 -0.40013901647E+02 -0.77973080153E+02 -0.11782862526E+04  0.11860832762E+04  0.10370212873E+03 0.  0.
         25    2    1    2    0    0 -0.38379053980E+02  0.88425911578E+02 -0.25594965548E+03  0.30074684283E+03  0.12508534570E+03 0.  0.
        -24    2    1    2    0    0  0.78392955627E+02 -0.10452831425E+02  0.10250484830E+03  0.15266514993E+03  0.80899239203E+02 0.  0.
        -11    1    3    3    0    0  0.81963786110E+01  0.22407492256E+02 -0.16994708530E+03  0.17161377606E+03  0.00000000000E+00 0.  1.
         12    1    3    3    0    0 -0.48210280258E+02 -0.10038057241E+03 -0.10083391673E+04  0.10144695001E+04  0.00000000000E+00 0. -1.
         11    1    5    5    0    0  0.25638923024E+02 -0.42874456077E+02  0.34603436235E+02  0.60769821104E+02  0.00000000000E+00 0. -1.
        -12    1    5    5    0    0  0.52754032603E+02  0.32421624652E+02  0.67901412062E+02  0.91895328831E+02  0.00000000000E+00 0.  1.
          5    1    4    4  501    0  0.27568623402E+01 -0.14604196444E+02 -0.13765164219E+03  0.13851472788E+03  0.41800000000E+01 0. -1.
         -5    1    4    4    0  501 -0.41135916320E+02  0.10303010802E+03 -0.11829801329E+03  0.16223211494E+03  0.41800000000E+01 0. -1.
</event>
<event>
11    1  0.6625361E-009  0.1354965E+03  0.7561462E-02  0.1112694E+00
         22   -1    0    0    0    0  0.00000000000E+00  0.00000000000E+00  0.25281174883E+03  0.25281174883E+03  0.00000000000E+00 0.  1.
         22   -1    0    0    0    0 -0.00000000000E+00 -0.00000000000E+00 -0.99347080772E+03  0.99347080772E+03  0.00000000000E+00 0.  1.
         24    2    1    2    0    0 -0.35804606142E+02 -0.35925754627E+02 -0.82109375580E+03  0.82662759922E+03  0.80904896740E+02 0.  0.
         25    2    1    2    0    0  0.47169994723E+02  0.48601929991E+02 -0.13053036562E+03  0.19305403708E+03  0.12507809113E+03 0.  0.
        -24    2    1    2    0    0 -0.11365388581E+02 -0.12676175365E+02  0.21096506254E+03  0.22660092025E+03  0.80943572745E+02 0.  0.
        -11    1    3    3    0    0 -0.24210660012E+02 -0.57131716566E+02 -0.72067891615E+03  0.72334520754E+03  0.00000000000E+00 0.  1.
         12    1    3    3    0    0 -0.11593946130E+02  0.21205961939E+02 -0.10041483965E+03  0.10328239168E+03  0.00000000000E+00 0. -1.
         13    1    5    5    0    0 -0.76398863906E+01 -0.47200670623E+02  0.11487124164E+03  0.12442537252E+03  0.00000000000E+00 0. -1.
        -14    1    5    5    0    0 -0.37255021900E+01  0.34524495259E+02  0.96093820899E+02  0.10217554773E+03  0.00000000000E+00 0.  1.
          5    1    4    4  501    0  0.44245037457E+02  0.66479434270E+02 -0.21992421300E+02  0.82935381563E+02  0.41800000000E+01 0.  1.
         -5    1    4    4    0  501  0.29249572665E+01 -0.17877504278E+02 -0.10853794432E+03  0.11011865551E+03  0.41800000000E+01 0.  1.
</event>
<event>
11    1  0.6625361E-009  0.1321075E+03  0.7561462E-02  0.1116706E+00
         22   -1    0    0    0    0  0.00000000000E+00  0.00000000000E+00  0.97735956116E+02  0.97735956116E+02  0.00000000000E+00 0. -1.
         22   -1    0    0    0    0 -0.00000000000E+00 -0.00000000000E+00 -0.80462382745E+03  0.80462382745E+03  0.00000000000E+00 0.  1.
         24    2    1    2    0    0  0.60571537242E+01 -0.68095249393E+01 -0.53680386260E+03  0.54159026221E+03  0.71264061600E+02 0.  0.
         25    2    1    2    0    0  0.33745566237E+02 -0.10417562464E+02 -0.21913512038E+03  0.25478378305E+03  0.12508911333E+03 0.  0.
        -24    2    1    2    0    0 -0.39802719961E+02  0.17227087403E+02  0.49051111644E+02  0.10598573831E+03  0.83342282875E+02 0.  0.
        -11    1    3    3    0    0  0.10877260254E+02  0.26157996799E+02 -0.11368291057E+03  0.11715954823E+03  0.00000000000E+00 0.  1.
         12    1    3    3    0    0 -0.48201065299E+01 -0.32967521738E+02 -0.42312095203E+03  0.42443071398E+03  0.00000000000E+00 0. -1.
         11    1    5    5    0    0  0.22797429282E+02  0.14339205049E+02  0.30374954185E+02  0.40595238945E+02  0.00000000000E+00 0. -1.
        -12    1    5    5    0    0 -0.62600149243E+02  0.28878823544E+01  0.18676157459E+02  0.65390499365E+02  0.00000000000E+00 0.  1.
          5    1    4    4  501    0  0.14331073002E+02  0.27993143202E+02 -0.20762825677E+03  0.21003799925E+03  0.41800000000E+01 0.  1.
         -5    1    4    4    0  501  0.19414493235E+02 -0.38410705665E+02 -0.11506863604E+02  0.44745783793E+02  0.41800000000E+01 0.  1.
</event>
<event>
11    1  0.6625361E-009  0.1358872E+03  0.7561462E-02  0.1112240E+00
         22   -1    0    0    0    0  0.00000000000E+00  0.00000000000E+00  0.37916420526E+03  0.37916420526E+03  0.00000000000E+00 0. -1.
         22   -1    0    0    0    0 -0.00000000000E+00 -0.00000000000E+00 -0.25182678518E+03  0.25182678518E+03  0.00000000000E+00 0. -1.
        -24    2    1    2    0    0 -0.31898932951E+01 -0.56187710775E+02 -0.18968131177E+03  0.21223521286E+03  0.76795516041E+02 0.  0.
         25    2    1    2    0    0  0.35814891698E+01  0.26750488165E+02  0.47113022805E+02  0.13637303604E+03  0.12509817088E+03 0.  0.
         24    2    1    2    0    0 -0.39159587469E+00  0.29437222609E+02  0.26990570905E+03  0.28238274153E+03  0.77615832905E+02 0.  0.
        -13    1    5    5    0    0  0.35479310553E+02  0.25408560427E+02  0.10762043609E+03  0.11613154044E+03  0.00000000000E+00 0.  1.
         14    1    5    5    0    0 -0.35870906428E+02  0.40286621822E+01  0.16228527296E+03  0.16625120110E+03  0.00000000000E+00 0. -1.
         13    1    3    3    0    0  0.35132727140E+01  0.89899409038E+00 -0.12752182381E+03  0.12757337819E+03  0.00000000000E+00 0. -1.
        -14    1    3    3    0    0 -0.67031660092E+01 -0.57086704865E+02 -0.62159487961E+02  0.84661834674E+02  0.00000000000E+00 0.  1.
          5    1    4    4  501    0 -0.42065028231E+02  0.58008114010E+02  0.19379902969E+02  0.74346895901E+02  0.41800000000E+01 0. -1.
         -5    1    4    4    0  501  0.45646517401E+02 -0.31257625844E+02  0.27733119836E+02  0.62026140136E+02  0.41800000000E+01 0. -1.
</event>
<event>
11    1  0.6625361E-009  0.1607525E+03  0.7561462E-02  0.1086372E+00
         22   -1    0    0    0    0  0.00000000000E+00  0.00000000000E+00  0.82149909516E+03  0.82149909516E+03  0.00000000000E+00 0.  1.
         22   -1    0    0    0    0 -0.00000000000E+00 -0.00000000000E+00 -0.68105291797E+03  0.68105291797E+03  0.00000000000E+00 0. -1.
        -24    2    1    2    0    0 -0.13423785451E+02  0.59181249598E+01 -0.53731085072E+03  0.54271548981E+03  0.74979532899E+02 0.  0.
         25    2    1    2    0    0 -0.97837956740E+01 -0.10407690793E+03 -0.86821429967E+02  0.18469661655E+03  0.12508858477E+03 0.  0.
         24    2    1    2    0    0  0.23207581125E+02  0.98158782973E+02  0.76457845789E+03  0.77513990678E+03  0.78025113326E+02 0.  0.
        -13    1    5    5    0    0  0.27670338185E+02  0.10740983569E+03  0.59495311383E+03  0.60520387315E+03  0.00000000000E+00 0.  1.
         14    1    5    5    0    0 -0.44627570597E+01 -0.92510527205E+01  0.16962534406E+03  0.16993603363E+03  0.00000000000E+00 0. -1.
         13    1    3    3    0    0  0.52127427285E+01  0.36887567582E+02 -0.34772282806E+03  0.34971278284E+03  0.00000000000E+00 0. -1.
        -14    1    3    3    0    0 -0.18636528180E+02 -0.30969442622E+02 -0.18958802267E+03  0.19300270697E+03  0.00000000000E+00 0.  1.
          5    1    4    4  501    0 -0.63431315831E+02 -0.43456132851E+02 -0.64956994704E+02  0.10074150521E+03  0.41800000000E+01 0.  1.
         -5    1    4    4    0  501  0.53647520157E+02 -0.60620775081E+02 -0.21864435263E+02  0.83955111338E+02  0.41800000000E+01 0.  1.
</event>
<event>
11    1  0.6625361E-009  0.1416902E+03  0.7561462E-02  0.1105686E+00
         22   -1    0    0    0    0  0.00000000000E+00  0.00000000000E+00  0.38762193322E+03  0.38762193322E+03  0.00000000000E+00 0.  1.
         22   -1    0    0    0    0 -0.00000000000E+00 -0.00000000000E+00 -0.11983058710E+04  0.11983058710E+04  0.00000000000E+00 0.  1.
         24    2    1    2    0    0 -0.67034497216E+01  0.71608601122E+01 -0.22630343417E+03  0.24109486697E+03  0.82566799683E+02 0.  0.
         25    2    1    2    0    0  0.10408081639E+02 -0.73542857906E+02 -0.95135611971E+03  0.96241526645E+03  0.12509116065E+03 0.  0.
        -24    2    1    2    0    0 -0.37046319172E+01  0.66381997794E+02  0.36697561614E+03  0.38241767076E+03  0.84568777563E+02 0.  0.
        -13    1    3    3    0    0 -0.24193763795E+02  0.86176529962E+01 -0.22138238262E+03  0.22286713864E+03  0.00000000000E+00 0.  1.
         14    1    3    3    0    0  0.17490314074E+02 -0.14567928840E+01 -0.49210515429E+01  0.18227728333E+02  0.00000000000E+00 0. -1.
         13    1    5    5    0    0 -0.10743484359E+02 -0.18929637525E+02  0.65278784092E+02  0.68811868784E+02  0.00000000000E+00 0. -1.
        -14    1    5    5    0    0  0.70388524413E+01  0.85311635319E+02  0.30169683205E+03  0.31360580198E+03  0.00000000000E+00 0.  1.
          5    1    4    4  501    0  0.24986547533E+02 -0.10612580700E+03 -0.68211465130E+03  0.69078570077E+03  0.41800000000E+01 0.  1.
         -5    1    4    4    0  501 -0.14578465895E+02  0.32582949097E+02 -0.26924146842E+03  0.27162956569E+03  0.41800000000E+01 0.  1.
</event>
<event>
11    1  0.6625361E-009  0.1746384E+03  0.7561462E-02  0.1074064E+00
         22   -1    0    0    0    0  0.00000000000E+00  0.00000000000E+00  0.10401371972E+04  0.10401371972E+04  0.00000000000E+00 0. -1.
         22   -1    0    0    0    0 -0.00000000000E+00 -0.00000000000E+00 -0.24780683118E+03  0.24780683118E+03  0.00000000000E+00 0.  1.
        -24    2    1    2    0    0 -0.37252952584E+02 -0.11573798573E+03 -0.20607795197E+03  0.25256233179E+03  0.80848904363E+02 0.  0.
         25    2    1    2    0    0  0.41296625705E+01  0.13451222291E+03  0.62175406057E+03  0.64833331813E+03  0.12508951734E+03 0.  0.
         24    2    1    2    0    0  0.33123290014E+02 -0.18774237188E+02  0.37665425746E+03  0.38704837848E+03  0.80550563640E+02 0.  0.
        -11    1    5    5    0    0 -0.23436350347E+01  0.26012294345E+02  0.62429935245E+02  0.67672955433E+02  0.00000000000E+00 0.  1.
         12    1    5    5    0    0  0.35466925049E+02 -0.44786531533E+02  0.31422432221E+03  0.31937542305E+03  0.00000000000E+00 0. -1.
         11    1    3    3    0    0  0.85416544472E+01 -0.14552873151E+02  0.17027796140E+01  0.16960113091E+02  0.00000000000E+00 0. -1.
        -12    1    3    3    0    0 -0.45794607032E+02 -0.10118511257E+03 -0.20778073158E+03  0.23560221870E+03  0.00000000000E+00 0.  1.
          5    1    4    4  501    0 -0.37303251419E+02  0.11979351269E+01  0.73122024227E+02  0.82202618219E+02  0.41800000000E+01 0.  1.
         -5    1    4    4    0  501  0.41432913989E+02  0.13331428779E+03  0.54863203634E+03  0.56613069992E+03  0.41800000000E+01 0.  1.
</event>
<event>
11    1  0.6625361E-009  0.1491107E+03  0.7561462E-02  0.1097791E+00
         22   -1    0    0    0    0  0.00000000000E+00  0.00000000000E+00  0.41088971759E+03  0.41088971759E+03  0.00000000000E+00 0. -1.
         22   -1    0    0    0    0 -0.00000000000E+00 -0.00000000000E+00 -0.68015902948E+03  0.68015902948E+03  0.00000000000E+00 0. -1.
         24    2    1    2    0    0 -0.33103060369E+01  0.48952052551E+02 -0.57737852491E+03  0.58527336811E+03  0.82290296059E+02 0.  0.
         25    2    1    2    0    0  0.21422707768E+02 -0.12314738498E+03 -0.12888535151E+01  0.17684365301E+03  0.12509118927E+03 0.  0.
        -24    2    1    2    0    0 -0.18112401731E+02  0.74195332430E+02  0.30939806653E+03  0.32893172594E+03  0.81461096899E+02 0.  0.
        -13    1    3    3    0    0 -0.10334646190E+02  0.51624686776E+02 -0.17320718950E+03  0.18103216204E+03  0.00000000000E+00 0.  1.
         14    1    3    3    0    0  0.70243401532E+01 -0.26726342248E+01 -0.40417133540E+03  0.40424120607E+03  0.00000000000E+00 0. -1.
         11    1    5    5    0    0 -0.37822011391E+02  0.75294994450E+02  0.28682108713E+03  0.29894176148E+03  0.00000000000E+00 0. -1.
        -12    1    5    5    0    0  0.19709609660E+02 -0.10996620202E+01  0.22576979394E+02  0.29989964456E+02  0.00000000000E+00 0.  1.
          5    1    4    4  501    0 -0.51076427444E+02 -0.47691885368E+02  0.12831632950E+02  0.71171908605E+02  0.41800000000E+01 0. -1.
         -5    1    4    4    0  501  0.72499135212E+02 -0.75455499613E+02 -0.14120486465E+02  0.10567174441E+03  0.41800000000E+01 0. -1.
</event>
<event>
11    1  0.6625361E-009  0.1615098E+03  0.7561462E-02  0.1085666E+00
         22   -1    0    0    0    0  0.00000000000E+00  0.00000000000E+00  0.15390083325E+03  0.15390083325E+03  0.00000000000E+00 0. -1.
         22   -1    0    0    0    0 -0.00000000000E+00 -0.00000000000E+00 -0.34211765804E+03  0.34211765804E+03  0.00000000000E+00 0. -1.
         24    2    1    2    0    0  0.10418567440E+03  0.16092103924E+02 -0.14811619076E+03  0.19880299713E+03  0.80440133924E+02 0.  0.
         25    2    1    2    0    0 -0.94629458759E+02 -0.20900215606E+02 -0.10780341746E+03  0.19147184881E+03  0.12509331954E+03 0.  0.
        -24    2    1    2    0    0 -0.95562156400E+01  0.48081116822E+01  0.67702783428E+02  0.10574364535E+03  0.80520882093E+02 0.  0.
        -11    1    3    3    0    0  0.66962740348E+02  0.12400136289E+02 -0.29119347078E+02  0.74065567905E+02  0.00000000000E+00 0.  1.
         12    1    3    3    0    0  0.37222934051E+02  0.36919676347E+01 -0.11899684368E+03  0.12473742923E+03  0.00000000000E+00 0. -1.
         11    1    5    5    0    0  0.27135600929E+02  0.11477956939E+02  0.61151829499E+02  0.67879529936E+02  0.00000000000E+00 0. -1.
        -12    1    5    5    0    0 -0.36691816569E+02 -0.66698452569E+01  0.65509539295E+01  0.37864115416E+02  0.00000000000E+00 0.  1.
          5    1    4    4  501    0 -0.48881576147E+02 -0.68758800310E+02 -0.30977450556E+02  0.89968082950E+02  0.41800000000E+01 0. -1.
         -5    1    4    4    0  501 -0.45747882612E+02  0.47858584704E+02 -0.76825966904E+02  0.10150376586E+03  0.41800000000E+01 0. -1.
</event>
<event>
11    1  0.6625361E-009  0.1374256E+03  0.7561462E-02  0.1110468E+00
         22   -1    0    0    0    0  0.00000000000E+00  0.00000000000E+00  0.94681848666E+03  0.94681848666E+03  0.00000000000E+00 0.  1.
         22   -1    0    0    0    0 -0.00000000000E+00 -0.00000000000E+00 -0.10992130856E+03  0.10992130856E+03  0.00000000000E+00 0.  1.
         24    2    1    2    0    0  0.20077916626E+02 -0.55846766048E+02 -0.55036960496E+02  0.11231581212E+03  0.77870344922E+02 0.  0.
         25    2    1    2    0    0 -0.43328095008E+02  0.26003086698E+02  0.17166202217E+03  0.21833227066E+03  0.12509055209E+03 0.  0.
        -24    2    1    2    0    0  0.23250178382E+02  0.29843679350E+02  0.72027211642E+03  0.72609171244E+03  0.83582517227E+02 0.  0.
        -11    1    3    3    0    0  0.32376232598E+02 -0.60694888508E+02 -0.65857275618E+02  0.95232718537E+02  0.00000000000E+00 0.  1.
         12    1    3    3    0    0 -0.12298315972E+02  0.48481224599E+01  0.10820315122E+02  0.17083093586E+02  0.00000000000E+00 0. -1.
         13    1    5    5    0    0  0.47428377322E+01  0.46423977856E+02  0.20599381277E+03  0.21121347289E+03  0.00000000000E+00 0. -1.
        -14    1    5    5    0    0  0.18507340650E+02 -0.16580298506E+02  0.51427830365E+03  0.51487823955E+03  0.00000000000E+00 0.  1.
          5    1    4    4  501    0 -0.62674758920E+02 -0.33125342660E+02  0.74837712959E+02  0.10316767620E+03  0.41800000000E+01 0. -1.
         -5    1    4    4    0  501  0.19346663913E+02  0.59128429358E+02  0.96824309213E+02  0.11516459446E+03  0.41800000000E+01 0. -1.
</event>
<event>
11    1  0.6625361E-009  0.1298787E+03  0.7561462E-02  0.1119418E+00
         22   -1    0    0    0    0  0.00000000000E+00  0.00000000000E+00  0.48684511097E+02  0.48684511097E+02  0.00000000000E+00 0. -1.
         22   -1    0    0    0    0 -0.00000000000E+00 -0.00000000000E+00 -0.22453910179E+04  0.22453910179E+04  0.00000000000E+00 0. -1.
         24    2    1    2    0    0  0.42950287210E+01 -0.11721123353E+02 -0.18883625870E+04  0.18900818982E+04  0.79627194527E+02 0.  0.
         25    2    1    2    0    0 -0.36794458183E+02 -0.11203657266E+01 -0.29172131300E+03  0.31953673808E+03  0.12508922876E+03 0.  0.
        -24    2    1    2    0    0  0.32499429462E+02  0.12841489079E+02 -0.16622606821E+02  0.84456892684E+02  0.75070226503E+02 0.  0.
        -11    1    3    3    0    0 -0.82881245159E+01 -0.41155046073E+02 -0.67954027479E+03  0.68083582154E+03  0.00000000000E+00 0.  1.
         12    1    3    3    0    0  0.12583153237E+02  0.29433922720E+02 -0.12088223122E+04  0.12092460767E+04  0.00000000000E+00 0. -1.
         11    1    5    5    0    0  0.21510424687E+02 -0.59180939019E+01  0.27414621412E+02  0.35345207211E+02  0.00000000000E+00 0. -1.
        -12    1    5    5    0    0  0.10989004775E+02  0.18759582981E+02 -0.44037228233E+02  0.49111685473E+02  0.00000000000E+00 0.  1.
          5    1    4    4  501    0 -0.26689777893E+02  0.59912753907E+02 -0.11780126470E+03  0.13489437605E+03  0.41800000000E+01 0. -1.
         -5    1    4    4    0  501 -0.10104680290E+02 -0.61033119634E+02 -0.17392004829E+03  0.18464236202E+03  0.41800000000E+01 0. -1.
</event>
<event>
11    1  0.6625361E-009  0.1606064E+03  0.7561462E-02  0.1086508E+00
         22   -1    0    0    0    0  0.00000000000E+00  0.00000000000E+00  0.29095502810E+03  0.29095502810E+03  0.00000000000E+00 0.  1.
         22   -1    0    0    0    0 -0.00000000000E+00 -0.00000000000E+00 -0.10496986293E+04  0.10496986293E+04  0.00000000000E+00 0.  1.
        -24    2    1    2    0    0 -0.31902018805E+02 -0.87050588628E+00 -0.82055703702E+03  0.82504269729E+03  0.79769071388E+02 0.  0.
         25    2    1    2    0    0  0.85762371494E+02 -0.82831072237E+02 -0.17529327290E+03  0.24615371196E+03  0.12509095689E+03 0.  0.
         24    2    1    2    0    0 -0.53860352689E+02  0.83701578124E+02  0.23710670878E+03  0.26945724811E+03  0.80502952988E+02 0.  0.
        -11    1    5    5    0    0 -0.73018014962E+02  0.80317361551E+02  0.19969739743E+03  0.22729179400E+03  0.00000000000E+00 0.  1.
         12    1    5    5    0    0  0.19157662273E+02  0.33842165724E+01  0.37409311342E+02  0.42165454115E+02  0.00000000000E+00 0. -1.
         13    1    3    3    0    0 -0.72800139873E+01 -0.85265845233E+01 -0.13390603444E+02  0.17464521405E+02  0.00000000000E+00 0. -1.
        -14    1    3    3    0    0 -0.24622004818E+02  0.76560786370E+01 -0.80716643358E+03  0.80757817588E+03  0.00000000000E+00 0.  1.
          5    1    4    4  501    0 -0.19097882160E+02 -0.55463580221E+02 -0.92913774256E+02  0.10996080975E+03  0.41800000000E+01 0.  1.
         -5    1    4    4    0  501  0.10486025365E+03 -0.27367492017E+02 -0.82379498644E+02  0.13619290221E+03  0.41800000000E+01 0.  1.
</event>
<event>
11    1  0.6625361E-009  0.1694268E+03  0.7561462E-02  0.1078532E+00
         22   -1    0    0    0    0  0.00000000000E+00  0.00000000000E+00  0.92603155518E+02  0.92603155518E+02  0.00000000000E+00 0. -1.
         22   -1    0    0    0    0 -0.00000000000E+00 -0.00000000000E+00 -0.16637610619E+04  0.16637610619E+04  0.00000000000E+00 0.  1.
        -24    2    1    2    0    0 -0.70376069945E+01 -0.40522569582E+02 -0.13646409045E+04  0.13675948131E+04  0.79869693463E+02 0.  0.
         25    2    1    2    0    0 -0.86676293947E+02  0.96738613757E+02 -0.16939597769E+03  0.24739923457E+03  0.12506096387E+03 0.  0.
         24    2    1    2    0    0  0.93713900941E+02 -0.56216044175E+02 -0.37121024188E+02  0.14137016978E+03  0.81639546879E+02 0.  0.
        -11    1    5    5    0    0  0.54030153432E+02 -0.22478274157E+01 -0.49426149257E+02  0.73261548157E+02  0.00000000000E+00 0.  1.
         12    1    5    5    0    0  0.39683747509E+02 -0.53968216759E+02  0.12305125068E+02  0.68108621623E+02  0.00000000000E+00 0. -1.
         13    1    3    3    0    0 -0.54528822572E+00 -0.49776506938E+02 -0.42791499861E+03  0.43080070104E+03  0.00000000000E+00 0. -1.
        -14    1    3    3    0    0 -0.64923187688E+01  0.92539373561E+01 -0.93672590590E+03  0.93679411204E+03  0.00000000000E+00 0.  1.
          5    1    4    4  501    0 -0.17644676905E+02  0.99184607013E+02 -0.58176211685E+02  0.11640818226E+03  0.41800000000E+01 0.  1.
         -5    1    4    4    0  501 -0.69031617042E+02 -0.24459932563E+01 -0.11121976601E+03  0.13099105231E+03  0.41800000000E+01 0.  1.
</event>
<event>
11    1  0.6625361E-009  0.1551862E+03  0.7561462E-02  0.1091694E+00
         22   -1    0    0    0    0  0.00000000000E+00  0.00000000000E+00  0.18844228418E+03  0.18844228418E+03  0.00000000000E+00 0. -1.
         22   -1    0    0    0    0 -0.00000000000E+00 -0.00000000000E+00 -0.78109261304E+03  0.78109261304E+03  0.00000000000E+00 0.  1.
         24    2    1    2    0    0  0.72450644578E+02 -0.10136817391E+02 -0.61012030283E+03  0.61952892403E+03  0.78850826307E+02 0.  0.
         25    2    1    2    0    0 -0.11156881042E+01 -0.61865498875E+02 -0.10299996101E+03  0.17344933111E+03  0.12508834391E+03 0.  0.
        -24    2    1    2    0    0 -0.71334956474E+02  0.72002316265E+02  0.12046993498E+03  0.17655664209E+03  0.79913910357E+02 0.  0.
        -13    1    3    3    0    0  0.75312521564E+01  0.28773125599E+02 -0.23281620658E+03  0.23470832657E+03  0.00000000000E+00 0.  1.
         14    1    3    3    0    0  0.64919392422E+02 -0.38909942990E+02 -0.37730409626E+03  0.38482059746E+03  0.00000000000E+00 0. -1.
         13    1    5    5    0    0 -0.51192836268E+02 -0.29756721279E+00  0.67392042754E+02  0.84631450761E+02  0.00000000000E+00 0. -1.
        -14    1    5    5    0    0 -0.20142120206E+02  0.72299883478E+02  0.53077892229E+02  0.91925191329E+02  0.00000000000E+00 0.  1.
          5    1    4    4  501    0 -0.47306737305E+02  0.10532096631E+02 -0.16192777496E+02  0.51269200275E+02  0.41800000000E+01 0.  1.
         -5    1    4    4    0  501  0.46191049200E+02 -0.72397595506E+02 -0.86807183510E+02  0.12218013083E+03  0.41800000000E+01 0.  1.
</event>
<event>
11    1  0.6625361E-009  0.1378266E+03  0.7561462E-02  0.1110010E+00
         22   -1    0    0    0    0  0.00000000000E+00  0.00000000000E+00  0.57416970691E+03  0.57416970691E+03  0.00000000000E+00 0.  1.
         22   -1    0    0    0    0 -0.00000000000E+00 -0.00000000000E+00 -0.72557270261E+03  0.72557270261E+03  0.00000000000E+00 0.  1.
         24    2    1    2    0    0  0.49999966389E+02 -0.27501766638E+02 -0.64128475909E+03  0.64889937763E+03  0.81042681569E+02 0.  0.
         25    2    1    2    0    0 -0.60059284488E+02  0.42741530693E+02 -0.77123609772E+01  0.14538117643E+03  0.12506898037E+03 0.  0.
        -24    2    1    2    0    0  0.10059318100E+02 -0.15239764055E+02  0.49759412436E+03  0.50546185545E+03  0.86938682003E+02 0.  0.
        -11    1    3    3    0    0  0.60671662056E+02 -0.21591738596E+02 -0.62618411613E+03  0.62948693477E+03  0.00000000000E+00 0.  1.
         12    1    3    3    0    0 -0.10671695667E+02 -0.59100280415E+01 -0.15100642961E+02  0.19412442857E+02  0.00000000000E+00 0. -1.
         13    1    5    5    0    0  0.24472726169E+02 -0.14190983561E+02  0.48590689747E+02  0.56225914582E+02  0.00000000000E+00 0. -1.
        -14    1    5    5    0    0 -0.14413408069E+02 -0.10487804937E+01  0.44900343462E+03  0.44923594087E+03  0.00000000000E+00 0.  1.
          5    1    4    4  501    0 -0.95901026933E+02  0.49347762343E+02 -0.19196179761E+00  0.10793385875E+03  0.41800000000E+01 0. -1.
         -5    1    4    4    0  501  0.35841742444E+02 -0.66062316500E+01 -0.75203991796E+01  0.37447317686E+02  0.41800000000E+01 0. -1.
</event>
<event>
11    1  0.6625361E-009  0.1443337E+03  0.7561462E-02  0.1102813E+00
         22   -1    0    0    0    0  0.00000000000E+00  0.00000000000E+00  0.63970014258E+02  0.63970014258E+02  0.00000000000E+00 0. -1.
         22   -1    0    0    0    0 -0.00000000000E+00 -0.00000000000E+00 -0.18374576426E+04  0.18374576426E+04  0.00000000000E+00 0.  1.
        -24    2    1    2    0    0 -0.11018467211E+02 -0.33424379300E+02 -0.46728031238E+03  0.47558653941E+03  0.81197723995E+02 0.  0.
         25    2    1    2    0    0 -0.72239546975E+01  0.10180579625E+03 -0.13040274411E+04  0.13139830288E+04  0.12508887709E+03 0.  0.
         24    2    1    2    0    0  0.18242421909E+02 -0.68381416953E+02 -0.21798749030E+01  0.11185808868E+03  0.86594895967E+02 0.  0.
        -13    1    5    5    0    0  0.40442426708E+02 -0.19988848579E+02 -0.27572154323E+02  0.52871236410E+02  0.00000000000E+00 0.  1.
         14    1    5    5    0    0 -0.22200004799E+02 -0.48392568374E+02  0.25392279420E+02  0.58986852273E+02  0.00000000000E+00 0. -1.
         11    1    3    3    0    0  0.25463189217E+02 -0.32850308384E+02 -0.13356415333E+03  0.13988173512E+03  0.00000000000E+00 0. -1.
        -12    1    3    3    0    0 -0.36481656428E+02 -0.57407091634E+00 -0.33371615905E+03  0.33570480429E+03  0.00000000000E+00 0.  1.
          5    1    4    4  501    0 -0.31454028561E+00 -0.28561073917E+02 -0.32529275506E+03  0.32657109911E+03  0.41800000000E+01 0. -1.
         -5    1    4    4    0  501 -0.69094144119E+01  0.13036687017E+03 -0.97873468603E+03  0.98741192969E+03  0.41800000000E+01 0. -1.
</event>
<event>
11    1  0.6625361E-009  0.2569832E+03  0.7561462E-02  0.1020244E+00
         22   -1    0    0    0    0  0.00000000000E+00  0.00000000000E+00  0.61835417354E+03  0.61835417354E+03  0.00000000000E+00 0. -1.
         22   -1    0    0    0    0 -0.00000000000E+00 -0.00000000000E+00 -0.30101954598E+03  0.30101954598E+03  0.00000000000E+00 0.  1.
         24    2    1    2    0    0  0.40639585202E+02 -0.22045397080E+02 -0.63993980163E+02  0.11200417284E+03  0.79448913264E+02 0.  0.
         25    2    1    2    0    0 -0.18621548221E+03  0.18525099055E+03 -0.70175778905E+02  0.29927500485E+03  0.12508698280E+03 0.  0.
        -24    2    1    2    0    0  0.14557589701E+03 -0.16320559347E+03  0.45150438663E+03  0.50809454183E+03  0.80470148268E+02 0.  0.
        -11    1    3    3    0    0  0.28868232430E+02 -0.52144585495E+02 -0.41261786963E+02  0.72491156036E+02  0.00000000000E+00 0.  1.
         12    1    3    3    0    0  0.11771352772E+02  0.30099188415E+02 -0.22732193200E+02  0.39513016805E+02  0.00000000000E+00 0. -1.
         13    1    5    5    0    0  0.14255867127E+03 -0.15362105750E+03  0.36405353345E+03  0.42006830311E+03  0.00000000000E+00 0. -1.
        -14    1    5    5    0    0  0.30172257416E+01 -0.95845359632E+01  0.87450853182E+02  0.88026238719E+02  0.00000000000E+00 0.  1.
          5    1    4    4  501    0 -0.18957966338E+03  0.15312706704E+03 -0.27045372502E+02  0.24522901949E+03  0.41800000000E+01 0.  1.
         -5    1    4    4    0  501  0.33641811681E+01  0.32123923508E+02 -0.43130406403E+02  0.54045985355E+02  0.41800000000E+01 0.  1.
</event>
<event>
11    1  0.6625361E-009  0.1685359E+03  0.7561462E-02  0.1079313E+00
         22   -1    0    0    0    0  0.00000000000E+00  0.00000000000E+00  0.42037925116E+03  0.42037925116E+03  0.00000000000E+00 0. -1.
         22   -1    0    0    0    0 -0.00000000000E+00 -0.00000000000E+00 -0.96504101406E+03  0.96504101406E+03  0.00000000000E+00 0. -1.
         24    2    1    2    0    0  0.58782213078E+02 -0.19628175638E+02 -0.77444717578E+03  0.78107191811E+03  0.80400866482E+02 0.  0.
         25    2    1    2    0    0 -0.97030747617E+02 -0.86465825620E+02 -0.12778848979E+03  0.22105608060E+03  0.12507832612E+03 0.  0.
        -24    2    1    2    0    0  0.38248534539E+02  0.10609400126E+03  0.35757390267E+03  0.38329226651E+03  0.79592576261E+02 0.  0.
        -11    1    3    3    0    0 -0.77219063086E+01 -0.10107225122E+02 -0.20417768227E+02  0.24055541900E+02  0.00000000000E+00 0.  1.
         12    1    3    3    0    0  0.66504119386E+02 -0.95209505161E+01 -0.75402940756E+03  0.75701637621E+03  0.00000000000E+00 0. -1.
         11    1    5    5    0    0  0.37891393569E+02  0.14207063181E+02  0.16542477973E+03  0.17030254284E+03  0.00000000000E+00 0. -1.
        -12    1    5    5    0    0  0.35714097027E+00  0.91886938078E+02  0.19214912294E+03  0.21298972367E+03  0.00000000000E+00 0.  1.
          5    1    4    4  501    0 -0.84758750987E+02  0.72692343751E+01 -0.69378799955E+02  0.10985343836E+03  0.41800000000E+01 0.  1.
         -5    1    4    4    0  501 -0.12271996630E+02 -0.93735059996E+02 -0.58409689834E+02  0.11120264224E+03  0.41800000000E+01 0.  1.
</event>
<event>
11    1  0.6625361E-009  0.1339064E+03  0.7561462E-02  0.1114560E+00
         22   -1    0    0    0    0  0.00000000000E+00  0.00000000000E+00  0.12079150988E+04  0.12079150988E+04  0.00000000000E+00 0.  1.
         22   -1    0    0    0    0 -0.00000000000E+00 -0.00000000000E+00 -0.52480190514E+02  0.52480190514E+02  0.00000000000E+00 0.  1.
        -24    2    1    2    0    0  0.37099104019E+02 -0.16486652616E+02  0.72878931560E+01  0.84465633869E+02  0.73710085366E+02 0.  0.
         25    2    1    2    0    0 -0.41563608133E+02 -0.33392760707E+02  0.43166429447E+03  0.45257458330E+03  0.12508829017E+03 0.  0.
         24    2    1    2    0    0  0.44645041134E+01  0.49879413323E+02  0.71648272070E+03  0.72335507219E+03  0.85948727311E+02 0.  0.
        -11    1    5    5    0    0 -0.35831981820E+02  0.39900702780E+02  0.50475628558E+03  0.50759718758E+03  0.00000000000E+00 0.  1.
         12    1    5    5    0    0  0.40296485934E+02  0.99787105426E+01  0.21172643512E+03  0.21575788461E+03  0.00000000000E+00 0. -1.
         13    1    3    3    0    0  0.20853077170E+02 -0.45927323920E+02  0.25097511404E+01  0.50502165902E+02  0.00000000000E+00 0. -1.
        -14    1    3    3    0    0  0.16246026849E+02  0.29440671305E+02  0.47781420156E+01  0.33963467967E+02  0.00000000000E+00 0.  1.
          5    1    4    4  501    0 -0.24789555619E+02  0.46082592472E+02  0.13161632715E+03  0.14169847342E+03  0.41800000000E+01 0. -1.
         -5    1    4    4    0  501 -0.16774052514E+02 -0.79475353179E+02  0.30004796731E+03  0.31087610987E+03  0.41800000000E+01 0. -1.
</event>
<event>
11    1  0.6625361E-009  0.1268728E+03  0.7561462E-02  0.1123172E+00
         22   -1    0    0    0    0  0.00000000000E+00  0.00000000000E+00  0.14637458281E+03  0.14637458281E+03  0.00000000000E+00 0.  1.
         22   -1    0    0    0    0 -0.00000000000E+00 -0.00000000000E+00 -0.13318208194E+04  0.13318208194E+04  0.00000000000E+00 0. -1.
         24    2    1    2    0    0  0.17732565016E+02  0.13922746919E+02 -0.11927617915E+04  0.11960813636E+04  0.86149000241E+02 0.  0.
         25    2    1    2    0    0  0.22526366018E+01  0.49912016965E+01 -0.88851612047E+02  0.15353019611E+03  0.12508767200E+03 0.  0.
        -24    2    1    2    0    0 -0.19985201618E+02 -0.18913948615E+02  0.96167166942E+02  0.12858384255E+03  0.80799349208E+02 0.  0.
        -13    1    3    3    0    0  0.16932272560E+02 -0.13604812082E+02 -0.77681892898E+02  0.80661448351E+02  0.00000000000E+00 0.  1.
         14    1    3    3    0    0  0.80029245587E+00  0.27527559000E+02 -0.11150798986E+04  0.11154199152E+04  0.00000000000E+00 0. -1.
         13    1    5    5    0    0  0.21985303350E+02 -0.29880891038E+02  0.23379807537E+02  0.43850160924E+02  0.00000000000E+00 0. -1.
        -14    1    5    5    0    0 -0.41970504968E+02  0.10966942423E+02  0.72787359405E+02  0.84733681629E+02  0.00000000000E+00 0.  1.
          5    1    4    4  501    0  0.25648778016E+02  0.51628164413E+02 -0.96574725844E+01  0.58600907426E+02  0.41800000000E+01 0.  1.
         -5    1    4    4    0  501 -0.23396141414E+02 -0.46636962717E+02 -0.79194139463E+02  0.94929288682E+02  0.41800000000E+01 0.  1.
</event>
<event>
11    1  0.6625361E-009  0.1308381E+03  0.7561462E-02  0.1118244E+00
         22   -1    0    0    0    0  0.00000000000E+00  0.00000000000E+00  0.57224790554E+03  0.57224790554E+03  0.00000000000E+00 0. -1.
         22   -1    0    0    0    0 -0.00000000000E+00 -0.00000000000E+00 -0.20698861655E+04  0.20698861655E+04  0.00000000000E+00 0. -1.
        -24    2    1    2    0    0  0.37672442627E+02 -0.70791208020E+01 -0.20390753875E+04  0.20410093464E+04  0.80133572307E+02 0.  0.
         25    2    1    2    0    0 -0.46088237525E+02 -0.16915932030E+02  0.15162376665E+03  0.20260232139E+03  0.12509060566E+03 0.  0.
         24    2    1    2    0    0  0.84157948978E+01  0.23995052832E+02  0.38981336093E+03  0.39852240319E+03  0.78861025368E+02 0.  0.
        -13    1    5    5    0    0  0.83685592282E+01 -0.69572818991E+01  0.41943317913E+01  0.11663145980E+02  0.00000000000E+00 0.  1.
         14    1    5    5    0    0  0.47235669591E-01  0.30952334731E+02  0.38561902914E+03  0.38685925721E+03  0.00000000000E+00 0. -1.
         11    1    3    3    0    0  0.57926824895E+02 -0.23681423916E+02 -0.14027541358E+04  0.14041493839E+04  0.00000000000E+00 0. -1.
        -12    1    3    3    0    0 -0.20254382267E+02  0.16602303115E+02 -0.63632125170E+03  0.63685996250E+03  0.00000000000E+00 0.  1.
          5    1    4    4  501    0 -0.25097082560E+02  0.30275465457E+02 -0.28693491335E+01  0.39650635885E+02  0.41800000000E+01 0. -1.
         -5    1    4    4    0  501 -0.20991154966E+02 -0.47191397487E+02  0.15449311578E+03  0.16295168550E+03  0.41800000000E+01 0. -1.
</event>
<event>
11    1  0.6625361E-009  0.1374309E+03  0.7561462E-02  0.1110462E+00
         22   -1    0    0    0    0  0.00000000000E+00  0.00000000000E+00  0.24841368057E+04  0.24841368057E+04  0.00000000000E+00 0.  1.
         22   -1    0    0    0    0 -0.00000000000E+00 -0.00000000000E+00 -0.11501432145E+03  0.11501432145E+03  0.00000000000E+00 0. -1.
        -24    2    1    2    0    0 -0.27876279834E+02  0.37944805417E+01 -0.42469503709E+02  0.10540243450E+03  0.92274207628E+02 0.  0.
         25    2    1    2    0    0  0.41084801454E+02  0.51475367936E+02  0.84740962522E+02  0.16482795744E+03  0.12509816310E+03 0.  0.
         24    2    1    2    0    0 -0.13208521620E+02 -0.55269848477E+02  0.23268510255E+04  0.23289207352E+04  0.80042958195E+02 0.  0.
        -11    1    5    5    0    0 -0.41993698155E+02 -0.43980244231E+02  0.10994751609E+04  0.11011554668E+04  0.00000000000E+00 0.  1.
         12    1    5    5    0    0  0.28785176535E+02 -0.11289604246E+02  0.12273758646E+04  0.12277652685E+04  0.00000000000E+00 0. -1.
         13    1    3    3    0    0 -0.60393756856E+02  0.44752147128E+01 -0.40427952045E+02  0.72813822317E+02  0.00000000000E+00 0. -1.
        -14    1    3    3    0    0  0.32517477021E+02 -0.68073417106E+00 -0.20415516642E+01  0.32588612183E+02  0.00000000000E+00 0.  1.
          5    1    4    4  501    0  0.36164219708E+01  0.39557424661E+02  0.11059450829E+03  0.11758607918E+03  0.41800000000E+01 0.  1.
         -5    1    4    4    0  501  0.37468379484E+02  0.11917943275E+02 -0.25853545765E+02  0.47241878261E+02  0.41800000000E+01 0.  1.
</event>
<event>
11    1  0.7208188E-009  0.1694462E+03  0.7561462E-02  0.1078515E+00
         22   -1    0    0    0    0  0.00000000000E+00  0.00000000000E+00  0.23162074043E+04  0.23162074043E+04  0.00000000000E+00 0.  1.
         22   -1    0    0    0    0 -0.00000000000E+00 -0.00000000000E+00 -0.30573835580E+03  0.30573835580E+03  0.00000000000E+00 0.  1.
        -24    2    1    2    0    0 -0.68738235246E+02 -0.32378672358E+02 -0.22354346290E+03  0.24891388547E+03  0.78823341504E+02 0.  0.
         25    2    1    2    0    0  0.10332771482E+02 -0.68201435868E+02  0.85749737462E+01  0.14310697900E+03  0.12509146750E+03 0.  0.
         24    2    1    2    0    0  0.58405463764E+02  0.10058010823E+03  0.22254375376E+04  0.22299248956E+04  0.80406777271E+02 0.  0.
        -11    1    5    5    0    0  0.67061558504E+02  0.49874861662E+02  0.16767297143E+04  0.16788112726E+04  0.00000000000E+00 0.  1.
         12    1    5    5    0    0 -0.86560947399E+01  0.50705246565E+02  0.54870782339E+03  0.55111362300E+03  0.00000000000E+00 0. -1.
         11    1    3    3    0    0  0.15332956084E+02  0.77113832732E+00 -0.14263930590E+02  0.20955999438E+02  0.00000000000E+00 0. -1.
        -12    1    3    3    0    0 -0.84071191330E+02 -0.33149810686E+02 -0.20927953231E+03  0.22795788603E+03  0.00000000000E+00 0.  1.
          5    1    4    4  501    0 -0.17013870846E+02 -0.81228586280E+02  0.45840401821E+02  0.94901896026E+02  0.41800000000E+01 0.  1.
         -5    1    4    4    0  501  0.27346642328E+02  0.13027150412E+02 -0.37265428075E+02  0.48205082969E+02  0.41800000000E+01 0.  1.
</event>
<event>
11    1  0.6625361E-009  0.1510680E+03  0.7561462E-02  0.1095792E+00
         22   -1    0    0    0    0  0.00000000000E+00  0.00000000000E+00  0.47042263125E+03  0.47042263125E+03  0.00000000000E+00 0.  1.
         22   -1    0    0    0    0 -0.00000000000E+00 -0.00000000000E+00 -0.51249049066E+03  0.51249049066E+03  0.00000000000E+00 0. -1.
        -24    2    1    2    0    0  0.14064308894E+02  0.13591624296E+02 -0.23707817847E+03  0.25063798806E+03  0.78935424985E+02 0.  0.
         25    2    1    2    0    0  0.55663367981E+02  0.35469985265E+02 -0.24167662690E+03  0.28002110600E+03  0.12509075676E+03 0.  0.
         24    2    1    2    0    0 -0.69727676875E+02 -0.49061609561E+02  0.43668694596E+03  0.45225402785E+03  0.81050764816E+02 0.  0.
        -11    1    5    5    0    0 -0.50766145381E+02 -0.67148922629E+02  0.38733095102E+03  0.39637286101E+03  0.00000000000E+00 0.  1.
         12    1    5    5    0    0 -0.18961531494E+02  0.18087313068E+02  0.49355994942E+02  0.55881166839E+02  0.00000000000E+00 0. -1.
         13    1    3    3    0    0 -0.93830516428E+01  0.35980489842E+02 -0.18917979853E+03  0.19279946442E+03  0.00000000000E+00 0. -1.
        -14    1    3    3    0    0  0.23447360537E+02 -0.22388865546E+02 -0.47898379937E+02  0.57838523643E+02  0.00000000000E+00 0.  1.
          5    1    4    4  501    0  0.76032625123E+02 -0.20862048392E+02 -0.11107427604E+03  0.13627601529E+03  0.41800000000E+01 0. -1.
         -5    1    4    4    0  501 -0.20369257142E+02  0.56332033657E+02 -0.13060235086E+03  0.14374509071E+03  0.41800000000E+01 0. -1.
</event>
<event>
11    1  0.6625361E-009  0.1280814E+03  0.7561462E-02  0.1121649E+00
         22   -1    0    0    0    0  0.00000000000E+00  0.00000000000E+00  0.19689391642E+03  0.19689391642E+03  0.00000000000E+00 0. -1.
         22   -1    0    0    0    0 -0.00000000000E+00 -0.00000000000E+00 -0.29853780942E+03  0.29853780942E+03  0.00000000000E+00 0.  1.
         24    2    1    2    0    0 -0.14784238614E+02  0.82670974921E+01 -0.22634149518E+03  0.24066275826E+03  0.80007325657E+02 0.  0.
         25    2    1    2    0    0  0.35003641750E+01 -0.32540474948E+02  0.40689999946E+02  0.13555731019E+03  0.12509585601E+03 0.  0.
        -24    2    1    2    0    0  0.11283874439E+02  0.24273377456E+02  0.84007602243E+02  0.11921165739E+03  0.80234776428E+02 0.  0.
        -13    1    3    3    0    0 -0.20412245728E+02  0.18295405527E+02 -0.22746288020E+03  0.22910858453E+03  0.00000000000E+00 0.  1.
         14    1    3    3    0    0  0.56280071136E+01 -0.10028308035E+02  0.11213850155E+01  0.11554173725E+02  0.00000000000E+00 0. -1.
         11    1    5    5    0    0 -0.65633188219E+01  0.46976438709E+02  0.75398527893E+02  0.89077499719E+02  0.00000000000E+00 0. -1.
        -12    1    5    5    0    0  0.17847193261E+02 -0.22703061253E+02  0.86090743493E+01  0.30134157674E+02  0.00000000000E+00 0.  1.
          5    1    4    4  501    0 -0.39267747107E+02  0.30669789446E+02  0.30183818763E+02  0.58404856499E+02  0.41800000000E+01 0. -1.
         -5    1    4    4    0  501  0.42768111282E+02 -0.63210264395E+02  0.10506181184E+02  0.77152453691E+02  0.41800000000E+01 0. -1.
</event>
<event>
11    1  0.6625361E-009  0.1699599E+03  0.7561462E-02  0.1078067E+00
         22   -1    0    0    0    0  0.00000000000E+00  0.00000000000E+00  0.16519888545E+04  0.16519888545E+04  0.00000000000E+00 0.  1.
         22   -1    0    0    0    0 -0.00000000000E+00 -0.00000000000E+00 -0.35687362513E+03  0.35687362513E+03  0.00000000000E+00 0. -1.
        -24    2    1    2    0    0  0.10913412065E+03 -0.31551246009E+02 -0.29934131577E+03  0.32983196756E+03  0.79234879236E+02 0.  0.
         25    2    1    2    0    0 -0.11388148768E+03  0.98145806270E+02  0.19654801329E+03  0.27727300395E+03  0.12509038599E+03 0.  0.
         24    2    1    2    0    0  0.47473670286E+01 -0.66594560261E+02  0.13979085318E+04  0.14017575081E+04  0.79488837192E+02 0.  0.
        -11    1    5    5    0    0 -0.26543099465E+02  0.30923241890E+01  0.29569286442E+03  0.29689790951E+03  0.00000000000E+00 0.  1.
         12    1    5    5    0    0  0.31290466493E+02 -0.69686884450E+02  0.11022156674E+04  0.11048595986E+04  0.00000000000E+00 0. -1.
         11    1    3    3    0    0  0.10796572008E+03 -0.50710704100E+02 -0.26013594998E+03  0.28617981182E+03  0.00000000000E+00 0. -1.
        -12    1    3    3    0    0  0.11684005636E+01  0.19159458091E+02 -0.39205365790E+02  0.43652155742E+02  0.00000000000E+00 0.  1.
          5    1    4    4  501    0 -0.13558343030E+03  0.10595575214E+03  0.17211903994E+03  0.24341718159E+03  0.41800000000E+01 0.  1.
         -5    1    4    4    0  501  0.21701942628E+02 -0.78099458747E+01  0.24428973349E+02  0.33855822354E+02  0.41800000000E+01 0.  1.
</event>
<event>
11    1  0.6625361E-009  0.1867335E+03  0.7561462E-02  0.1064323E+00
         22   -1    0    0    0    0  0.00000000000E+00  0.00000000000E+00  0.66208962779E+03  0.66208962779E+03  0.00000000000E+00 0.  1.
         22   -1    0    0    0    0 -0.00000000000E+00 -0.00000000000E+00 -0.19373150201E+04  0.19373150201E+04  0.00000000000E+00 0.  1.
        -24    2    1    2    0    0  0.50385151383E+01  0.13400406997E+03 -0.13713468676E+04  0.13802510812E+04  0.80736227368E+02 0.  0.
         25    2    1    2    0    0  0.28029930108E+02 -0.15797947499E+03 -0.53779154951E+03  0.57498771927E+03  0.12509170670E+03 0.  0.
         24    2    1    2    0    0 -0.33068445246E+02  0.23975405020E+02  0.63391302479E+03  0.64416584746E+03  0.10693724290E+03 0.  0.
        -11    1    5    5    0    0 -0.57977124341E+02  0.21531687509E+01  0.56208763778E+03  0.56507388511E+03  0.00000000000E+00 0.  1.
         12    1    5    5    0    0  0.24908679094E+02  0.21822236269E+02  0.71825387006E+02  0.79091962351E+02  0.00000000000E+00 0. -1.
         13    1    3    3    0    0 -0.21555262712E+02  0.10119618012E+02 -0.10953764049E+03  0.11209607800E+03  0.00000000000E+00 0. -1.
        -14    1    3    3    0    0  0.26593777850E+02  0.12388445195E+03 -0.12618092271E+04  0.12681550032E+04  0.00000000000E+00 0.  1.
          5    1    4    4  501    0  0.44594854452E+01 -0.10540809112E+03 -0.15306784607E+03  0.18595158129E+03  0.41800000000E+01 0. -1.
         -5    1    4    4    0  501  0.23570444663E+02 -0.52571383867E+02 -0.38472370344E+03  0.38903613798E+03  0.41800000000E+01 0. -1.
</event>
<event>
11    1  0.6625361E-009  0.1467030E+03  0.7561462E-02  0.1100296E+00
         22   -1    0    0    0    0  0.00000000000E+00  0.00000000000E+00  0.33796745372E+03  0.33796745372E+03  0.00000000000E+00 0.  1.
         22   -1    0    0    0    0 -0.00000000000E+00 -0.00000000000E+00 -0.31220333578E+04  0.31220333578E+04  0.00000000000E+00 0.  1.
        -24    2    1    2    0    0  0.45610557963E+02  0.13926241265E+02 -0.24125583508E+04  0.24143594073E+04  0.80120460452E+02 0.  0.
         25    2    1    2    0    0 -0.87990131477E+02  0.49712874984E+02 -0.68989625805E+03  0.70839115402E+03  0.12509015564E+03 0.  0.
         24    2    1    2    0    0  0.42379573514E+02 -0.63639116249E+02  0.31838870485E+03  0.33725025017E+03  0.80748984483E+02 0.  0.
        -13    1    5    5    0    0  0.54374096056E+02 -0.75388282487E+02  0.24692570370E+03  0.26384131330E+03  0.00000000000E+00 0.  1.
         14    1    5    5    0    0 -0.11994522542E+02  0.11749166238E+02  0.71463001151E+02  0.73408936866E+02  0.00000000000E+00 0. -1.
         13    1    3    3    0    0  0.31949443803E+02  0.30295805922E+02 -0.57708050697E+03  0.57875773372E+03  0.00000000000E+00 0. -1.
        -14    1    3    3    0    0  0.13661114160E+02 -0.16369564657E+02 -0.18354778439E+04  0.18356016736E+04  0.00000000000E+00 0.  1.
          5    1    4    4  501    0 -0.67663606410E+02  0.72579173029E+02 -0.27565229285E+03  0.29299788215E+03  0.41800000000E+01 0.  1.
         -5    1    4    4    0  501 -0.20326525066E+02 -0.22866298044E+02 -0.41424396521E+03  0.41539327187E+03  0.41800000000E+01 0.  1.
</event>
<event>
11    1  0.6625361E-009  0.1669816E+03  0.7561462E-02  0.1080689E+00
         22   -1    0    0    0    0  0.00000000000E+00  0.00000000000E+00  0.17610032292E+04  0.17610032292E+04  0.00000000000E+00 0. -1.
         22   -1    0    0    0    0 -0.00000000000E+00 -0.00000000000E+00 -0.38003485788E+02  0.38003485788E+02  0.00000000000E+00 0. -1.
        -24    2    1    2    0    0  0.71193467563E+02  0.44511238364E+02  0.31796924384E+03  0.34351032631E+03  0.99222699487E+02 0.  0.
         25    2    1    2    0    0 -0.92622250814E+02 -0.11591829028E+03  0.40232461251E+03  0.44668580450E+03  0.12508869953E+03 0.  0.
         24    2    1    2    0    0  0.21428783252E+02  0.71407051920E+02  0.10027058870E+04  0.10088105841E+04  0.81984992238E+02 0.  0.
        -11    1    5    5    0    0  0.15117817570E+02 -0.16101137744E+02  0.26125452272E+03  0.26218642354E+03  0.00000000000E+00 0.  1.
         12    1    5    5    0    0  0.63109656819E+01  0.87508189663E+02  0.74145136432E+03  0.74662416060E+03  0.00000000000E+00 0. -1.
         13    1    3    3    0    0  0.67275059370E+02  0.27553657786E+02  0.93837708319E+02  0.11870405711E+03  0.00000000000E+00 0. -1.
        -14    1    3    3    0    0  0.39184081923E+01  0.16957580579E+02  0.22413153552E+03  0.22480626921E+03  0.00000000000E+00 0.  1.
          5    1    4    4  501    0  0.91168491764E+01 -0.10650914833E+02 -0.36697287643E+01  0.15083044616E+02  0.41800000000E+01 0. -1.
         -5    1    4    4    0  501 -0.10173909999E+03 -0.10526737545E+03  0.40599434127E+03  0.43160275989E+03  0.41800000000E+01 0. -1.
</event>
<event>
11    1  0.6625361E-009  0.1554378E+03  0.7561462E-02  0.1091448E+00
         22   -1    0    0    0    0  0.00000000000E+00  0.00000000000E+00  0.23058077419E+03  0.23058077419E+03  0.00000000000E+00 0. -1.
         22   -1    0    0    0    0 -0.00000000000E+00 -0.00000000000E+00 -0.88496243907E+03  0.88496243907E+03  0.00000000000E+00 0. -1.
         24    2    1    2    0    0 -0.10502606209E+01  0.35636697669E+02 -0.73967218241E+03  0.74495974120E+03  0.81111043098E+02 0.  0.
         25    2    1    2    0    0  0.51626923203E+02  0.47480935209E+02 -0.74929160795E+02  0.16180811758E+03  0.12509080450E+03 0.  0.
        -24    2    1    2    0    0 -0.50576662582E+02 -0.83117632877E+02  0.16021967832E+03  0.20877535447E+03  0.91925315446E+02 0.  0.
        -13    1    3    3    0    0 -0.14088564845E+02  0.11822160307E+02 -0.33101848912E+02  0.37867975060E+02  0.00000000000E+00 0.  1.
         14    1    3    3    0    0  0.13038304224E+02  0.23814537362E+02 -0.70657033350E+03  0.70709176614E+03  0.00000000000E+00 0. -1.
         11    1    5    5    0    0 -0.26145971586E+02 -0.27672448679E+02  0.13971767768E+03  0.14481162144E+03  0.00000000000E+00 0. -1.
        -12    1    5    5    0    0 -0.24430690995E+02 -0.55445184198E+02  0.20502000637E+02  0.63963733032E+02  0.00000000000E+00 0.  1.
          5    1    4    4  501    0 -0.10587648108E+02 -0.29901850150E+02  0.73033858606E+01  0.32818147112E+02  0.41800000000E+01 0. -1.
         -5    1    4    4    0  501  0.62214571311E+02  0.77382785358E+02 -0.82232546655E+02  0.12898997047E+03  0.41800000000E+01 0. -1.
</event>
<event>
11    1  0.6625361E-009  0.1404693E+03  0.7561462E-02  0.1107035E+00
         22   -1    0    0    0    0  0.00000000000E+00  0.00000000000E+00  0.29928515700E+04  0.29928515700E+04  0.00000000000E+00 0.  1.
         22   -1    0    0    0    0 -0.00000000000E+00 -0.00000000000E+00 -0.85746279381E+03  0.85746279381E+03  0.00000000000E+00 0. -1.
         24    2    1    2    0    0  0.61322832294E+02 -0.19144026415E+02 -0.74503746276E+03  0.75207472727E+03  0.80053675544E+02 0.  0.
         25    2    1    2    0    0 -0.37346400519E+01 -0.98138364291E+01 -0.71474391451E+02  0.14445082104E+03  0.12508873708E+03 0.  0.
        -24    2    1    2    0    0 -0.57588192242E+02  0.28957862844E+02  0.29519006304E+04  0.29537888155E+04  0.83642556042E+02 0.  0.
        -13    1    3    3    0    0 -0.18612784410E+02 -0.11048393861E+02 -0.12608458212E+03  0.12792898264E+03  0.00000000000E+00 0.  1.
         14    1    3    3    0    0  0.79935616705E+02 -0.80956325540E+01 -0.61895288064E+03  0.62414574463E+03  0.00000000000E+00 0. -1.
         13    1    5    5    0    0  0.17645379147E+01  0.43582159661E+02  0.10484720606E+04  0.10493789497E+04  0.00000000000E+00 0. -1.
        -14    1    5    5    0    0 -0.59352730157E+02 -0.14624296817E+02  0.19034285698E+04  0.19044098658E+04  0.00000000000E+00 0.  1.
          5    1    4    4  501    0  0.12066660989E+02 -0.65544554515E+02 -0.30746149527E+02  0.73515243621E+02  0.41800000000E+01 0.  1.
         -5    1    4    4    0  501 -0.15801301040E+02  0.55730718086E+02 -0.40728241924E+02  0.70935577415E+02  0.41800000000E+01 0.  1.
</event>
<event>
11    1  0.6625361E-009  0.1385841E+03  0.7561462E-02  0.1109150E+00
         22   -1    0    0    0    0  0.00000000000E+00  0.00000000000E+00  0.13351868377E+04  0.13351868377E+04  0.00000000000E+00 0.  1.
         22   -1    0    0    0    0 -0.00000000000E+00 -0.00000000000E+00 -0.83549508917E+02  0.83549508917E+02  0.00000000000E+00 0. -1.
        -24    2    1    2    0    0  0.53225291270E+02  0.58446886679E+01 -0.29581100898E+02  0.10005535768E+03  0.79176644618E+02 0.  0.
         25    2    1    2    0    0 -0.15666576848E+02  0.46607002383E+02  0.26550309201E+03  0.29758440919E+03  0.12508770694E+03 0.  0.
         24    2    1    2    0    0 -0.37558714421E+02 -0.52451691051E+02  0.10157153377E+04  0.10210965797E+04  0.82454478751E+02 0.  0.
        -11    1    5    5    0    0 -0.17119497620E+02 -0.10730356369E+02  0.80784980643E+03  0.80810242389E+03  0.00000000000E+00 0.  1.
         12    1    5    5    0    0 -0.20439216802E+02 -0.41721334682E+02  0.20786553123E+03  0.21299415585E+03  0.00000000000E+00 0. -1.
         13    1    3    3    0    0  0.91961026202E+01  0.29304006431E+02 -0.38630924706E+02  0.49352218187E+02  0.00000000000E+00 0. -1.
        -14    1    3    3    0    0  0.44029188649E+02 -0.23459317763E+02  0.90498238082E+01  0.50703139489E+02  0.00000000000E+00 0.  1.
          5    1    4    4  501    0  0.17705043131E+02  0.38264398026E+02  0.15382139054E+02  0.45074552803E+02  0.41800000000E+01 0.  1.
         -5    1    4    4    0  501 -0.33371619979E+02  0.83426043570E+01  0.25012095295E+03  0.25250985639E+03  0.41800000000E+01 0.  1.
</event>
<event>
11    1  0.6625361E-009  0.1312648E+03  0.7561462E-02  0.1117725E+00
         22   -1    0    0    0    0  0.00000000000E+00  0.00000000000E+00  0.87593008976E+03  0.87593008976E+03  0.00000000000E+00 0.  1.
         22   -1    0    0    0    0 -0.00000000000E+00 -0.00000000000E+00 -0.21840792682E+04  0.21840792682E+04  0.00000000000E+00 0.  1.
        -24    2    1    2    0    0  0.35403634487E+02  0.66821860101E+00 -0.15462935077E+04  0.15488241250E+04  0.81109152444E+02 0.  0.
         25    2    1    2    0    0 -0.67386547780E+02 -0.29804375018E+01 -0.62654541894E+03  0.64246019436E+03  0.12508440952E+03 0.  0.
         24    2    1    2    0    0  0.31982913292E+02  0.23122189008E+01  0.86468974816E+03  0.86872503857E+03  0.77243633932E+02 0.  0.
        -13    1    5    5    0    0  0.79591794984E+01  0.87768580618E+01  0.78824264582E+03  0.78833168810E+03  0.00000000000E+00 0.  1.
         14    1    5    5    0    0  0.24023733794E+02 -0.64646391611E+01  0.76447102339E+02  0.80393350477E+02  0.00000000000E+00 0. -1.
         11    1    3    3    0    0  0.88309556098E+01  0.14111889263E+02 -0.60962110165E+02  0.63194224984E+02  0.00000000000E+00 0. -1.
        -12    1    3    3    0    0  0.26572678878E+02 -0.13443670662E+02 -0.14853313975E+04  0.14856299001E+04  0.00000000000E+00 0.  1.
          5    1    4    4  501    0  0.19375843245E+02  0.39037289129E+02 -0.24642096254E+03  0.25028003601E+03  0.41800000000E+01 0. -1.
         -5    1    4    4    0  501 -0.86762391025E+02 -0.42017726631E+02 -0.38012445640E+03  0.39218015835E+03  0.41800000000E+01 0. -1.
</event>
<event>
11    1  0.6625361E-009  0.1993367E+03  0.7561462E-02  0.1054994E+00
         22   -1    0    0    0    0  0.00000000000E+00  0.00000000000E+00  0.28935938350E+03  0.28935938350E+03  0.00000000000E+00 0.  1.
         22   -1    0    0    0    0 -0.00000000000E+00 -0.00000000000E+00 -0.21100867897E+04  0.21100867897E+04  0.00000000000E+00 0.  1.
         24    2    1    2    0    0  0.16510112383E+02 -0.17348931057E+02 -0.19784387455E+04  0.19802531100E+04  0.81295392503E+02 0.  0.
         25    2    1    2    0    0 -0.15654669246E+03  0.64345534079E+02  0.45799348465E+02  0.21538813480E+03  0.12508898280E+03 0.  0.
        -24    2    1    2    0    0  0.14003658007E+03 -0.46996603022E+02  0.11191199076E+03  0.20380492844E+03  0.84812916028E+02 0.  0.
        -13    1    3    3    0    0  0.11692789698E+02 -0.27130426283E+02 -0.24426113640E+03  0.24604122443E+03  0.00000000000E+00 0.  1.
         14    1    3    3    0    0  0.48173226850E+01  0.97814952259E+01 -0.17341776091E+04  0.17342118856E+04  0.00000000000E+00 0. -1.
         13    1    5    5    0    0  0.53236735356E+02 -0.54248231825E+02  0.23172327986E+02  0.79460540093E+02  0.00000000000E+00 0. -1.
        -14    1    5    5    0    0  0.86799844717E+02  0.72516288037E+01  0.88739662779E+02  0.12434438835E+03  0.00000000000E+00 0.  1.
          5    1    4    4  501    0 -0.26518187938E+02  0.52103684916E+01 -0.40186539026E+02  0.48608564577E+02  0.41800000000E+01 0. -1.
         -5    1    4    4    0  501 -0.13002850452E+03  0.59135165587E+02  0.85985887491E+02  0.16677957022E+03  0.41800000000E+01 0. -1.
</event>
<event>
11    1  0.6625361E-009  0.1346397E+03  0.7561462E-02  0.1113696E+00
         22   -1    0    0    0    0  0.00000000000E+00  0.00000000000E+00  0.33827777838E+04  0.33827777838E+04  0.00000000000E+00 0. -1.
         22   -1    0    0    0    0 -0.00000000000E+00 -0.00000000000E+00 -0.30217155453E+03  0.30217155453E+03  0.00000000000E+00 0. -1.
        -24    2    1    2    0    0 -0.47267865677E+02  0.54894266143E+01 -0.23621240413E+03  0.25308515502E+03  0.77404204647E+02 0.  0.
         25    2    1    2    0    0  0.76527521234E+02  0.14008656037E+02  0.38356723207E+02  0.15222239265E+03  0.12509082564E+03 0.  0.
         24    2    1    2    0    0 -0.29259655558E+02 -0.19498082651E+02  0.32784619102E+04  0.32796417906E+04  0.80631729605E+02 0.  0.
        -11    1    5    5    0    0  0.26637016305E+02  0.41685230427E+01  0.88708079894E+03  0.88749042309E+03  0.00000000000E+00 0.  1.
         12    1    5    5    0    0 -0.55896671863E+02 -0.23666605694E+02  0.23913811112E+04  0.23921513676E+04  0.00000000000E+00 0. -1.
         11    1    3    3    0    0 -0.25216743774E+02  0.28450834289E+02 -0.20502190639E+03  0.20851694473E+03  0.00000000000E+00 0. -1.
        -12    1    3    3    0    0 -0.22051121903E+02 -0.22961407674E+02 -0.31190497739E+02  0.44568210293E+02  0.00000000000E+00 0.  1.
          5    1    4    4  501    0  0.11969207017E+02 -0.52295766372E+02  0.62153703909E+01  0.54168370164E+02  0.41800000000E+01 0.  1.
         -5    1    4    4    0  501  0.64558314217E+02  0.66304422409E+02  0.32141352816E+02  0.98054022490E+02  0.41800000000E+01 0.  1.
</event>
<event>
11    1  0.6625361E-009  0.1652540E+03  0.7561462E-02  0.1082237E+00
         22   -1    0    0    0    0  0.00000000000E+00  0.00000000000E+00  0.28416195876E+03  0.28416195876E+03  0.00000000000E+00 0. -1.
         22   -1    0    0    0    0 -0.00000000000E+00 -0.00000000000E+00 -0.10730868110E+04  0.10730868110E+04  0.00000000000E+00 0. -1.
         24    2    1    2    0    0  0.80072298517E+01 -0.10822563718E+03 -0.91038780186E+03  0.92038920884E+03  0.80829708117E+02 0.  0.
         25    2    1    2    0    0 -0.10249391454E+03  0.90853930636E+02 -0.76551405268E+02  0.20066831374E+03  0.12509282659E+03 0.  0.
        -24    2    1    2    0    0  0.94486684683E+02  0.17371706543E+02  0.19801435490E+03  0.23619124715E+03  0.85715288682E+02 0.  0.
        -13    1    3    3    0    0  0.12610411411E+02 -0.12119758903E+02 -0.29747233093E+02  0.34508099173E+02  0.00000000000E+00 0.  1.
         14    1    3    3    0    0 -0.46031815596E+01 -0.96105878275E+02 -0.88064056876E+03  0.88588110967E+03  0.00000000000E+00 0. -1.
         13    1    5    5    0    0  0.73688505010E+02 -0.71915866010E+01  0.18866882755E+03  0.20267619785E+03  0.00000000000E+00 0. -1.
        -14    1    5    5    0    0  0.20798179673E+02  0.24563293144E+02  0.93455273501E+01  0.33515049295E+02  0.00000000000E+00 0.  1.
          5    1    4    4  501    0  0.32580354948E+00  0.81900502307E+02 -0.29356211103E+02  0.87103719533E+02  0.41800000000E+01 0.  1.
         -5    1    4    4    0  501 -0.10281971808E+03  0.89534283286E+01 -0.47195194165E+02  0.11356459421E+03  0.41800000000E+01 0.  1.
</event>
<event>
11    1  0.6625361E-009  0.1461600E+03  0.7561462E-02  0.1100868E+00
         22   -1    0    0    0    0  0.00000000000E+00  0.00000000000E+00  0.16974815571E+03  0.16974815571E+03  0.00000000000E+00 0. -1.
         22   -1    0    0    0    0 -0.00000000000E+00 -0.00000000000E+00 -0.92037898775E+03  0.92037898775E+03  0.00000000000E+00 0. -1.
         24    2    1    2    0    0  0.16877695688E+01  0.55217970700E+02 -0.77996375019E+03  0.78614706252E+03  0.81436352090E+02 0.  0.
         25    2    1    2    0    0  0.69380234493E+02 -0.71708179313E+02 -0.55058528950E+02  0.16921768202E+03  0.12508997713E+03 0.  0.
        -24    2    1    2    0    0 -0.71068004062E+02  0.16490208614E+02  0.84391447099E+02  0.13476239892E+03  0.75606875595E+02 0.  0.
        -11    1    3    3    0    0 -0.55604744198E+01 -0.11238761978E+02 -0.22656222423E+02  0.25894653136E+02  0.00000000000E+00 0.  1.
         12    1    3    3    0    0  0.72482439886E+01  0.66456732677E+02 -0.75730752777E+03  0.76025240938E+03  0.00000000000E+00 0. -1.
         13    1    5    5    0    0 -0.22368123046E+02  0.41162113217E+02  0.21689533205E+02  0.51624493641E+02  0.00000000000E+00 0. -1.
        -14    1    5    5    0    0 -0.48699881016E+02 -0.24671904604E+02  0.62701913894E+02  0.83137905276E+02  0.00000000000E+00 0.  1.
          5    1    4    4  501    0  0.29467320276E+02  0.83394547711E+01  0.31886003859E+02  0.44407872188E+02  0.41800000000E+01 0. -1.
         -5    1    4    4    0  501  0.39912914217E+02 -0.80047634084E+02 -0.86944532809E+02  0.12480980983E+03  0.41800000000E+01 0. -1.
</event>
<event>
11    1  0.6625361E-009  0.1861805E+03  0.7561462E-02  0.1064750E+00
         22   -1    0    0    0    0  0.00000000000E+00  0.00000000000E+00  0.57845557886E+02  0.57845557886E+02  0.00000000000E+00 0. -1.
         22   -1    0    0    0    0 -0.00000000000E+00 -0.00000000000E+00 -0.13915535599E+04  0.13915535599E+04  0.00000000000E+00 0. -1.
        -24    2    1    2    0    0  0.10946522602E+03 -0.95998277573E+02 -0.98127342418E+03  0.99521068799E+03  0.79677321063E+02 0.  0.
         25    2    1    2    0    0 -0.11467538743E+03  0.34300148628E+02 -0.28139026281E+03  0.33038621561E+03  0.12509047439E+03 0.  0.
         24    2    1    2    0    0  0.52101614113E+01  0.61698128945E+02 -0.71044315031E+02  0.12380221419E+03  0.80286291747E+02 0.  0.
        -11    1    5    5    0    0 -0.30546555572E+02  0.25727594655E+02 -0.59705126199E+02  0.71831074602E+02  0.00000000000E+00 0.  1.
         12    1    5    5    0    0  0.35756716983E+02  0.35970534290E+02 -0.11339188832E+02  0.51971139586E+02  0.00000000000E+00 0. -1.
         13    1    3    3    0    0  0.11618110817E+03 -0.77062923106E+02 -0.92523142066E+03  0.93567618639E+03  0.00000000000E+00 0. -1.
        -14    1    3    3    0    0 -0.67158821546E+01 -0.18935354467E+02 -0.56042003520E+02  0.59534501597E+02  0.00000000000E+00 0.  1.
          5    1    4    4  501    0 -0.10350779190E+03  0.76329895966E+02 -0.19592369570E+03  0.23440068886E+03  0.41800000000E+01 0.  1.
         -5    1    4    4    0  501 -0.11167595529E+02 -0.42029747338E+02 -0.85466567108E+02  0.95985526744E+02  0.41800000000E+01 0.  1.
</event>
<event>
11    1  0.6625361E-009  0.3449167E+03  0.7561462E-02  0.9827910E-01
         22   -1    0    0    0    0  0.00000000000E+00  0.00000000000E+00  0.25608797118E+03  0.25608797118E+03  0.00000000000E+00 0. -1.
         22   -1    0    0    0    0 -0.00000000000E+00 -0.00000000000E+00 -0.10379758496E+04  0.10379758496E+04  0.00000000000E+00 0.  1.
         24    2    1    2    0    0 -0.90900642360E+02 -0.10087069188E+03 -0.44467216025E+03  0.47184826857E+03  0.80434042485E+02 0.  0.
         25    2    1    2    0    0  0.11524410082E+03  0.38845695545E+03 -0.29874009927E+03  0.51872274502E+03  0.12509048834E+03 0.  0.
        -24    2    1    2    0    0 -0.24343458458E+02 -0.28758626358E+03 -0.38475618930E+02  0.30349280722E+03  0.85609858149E+02 0.  0.
        -13    1    3    3    0    0 -0.87501600311E+02 -0.85206184912E+02 -0.43760769413E+03  0.45433150669E+03  0.00000000000E+00 0.  1.
         14    1    3    3    0    0 -0.33990420497E+01 -0.15664506967E+02 -0.70644661163E+01  0.17516761883E+02  0.00000000000E+00 0. -1.
         11    1    5    5    0    0  0.31634703705E+02 -0.10309158857E+03 -0.62398666757E+01  0.10801650822E+03  0.00000000000E+00 0. -1.
        -12    1    5    5    0    0 -0.55978162163E+02 -0.18449467501E+03 -0.32235752254E+02  0.19547629900E+03  0.00000000000E+00 0.  1.
          5    1    4    4  501    0  0.12470613403E+03  0.26561264978E+03 -0.16432726542E+03  0.33633706627E+03  0.41800000000E+01 0.  1.
         -5    1    4    4    0  501 -0.94620332124E+01  0.12284430568E+03 -0.13441283385E+03  0.18238567875E+03  0.41800000000E+01 0.  1.
</event>
<event>
11    1  0.6625361E-009  0.1919230E+03  0.7561462E-02  0.1060387E+00
         22   -1    0    0    0    0  0.00000000000E+00  0.00000000000E+00  0.11809617902E+04  0.11809617902E+04  0.00000000000E+00 0.  1.
         22   -1    0    0    0    0 -0.00000000000E+00 -0.00000000000E+00 -0.10587701324E+04  0.10587701324E+04  0.00000000000E+00 0. -1.
        -24    2    1    2    0    0 -0.71425979073E+02  0.12660275047E+03 -0.99903552051E+03  0.10127780795E+04  0.80731283654E+02 0.  0.
         25    2    1    2    0    0  0.93433451597E+02 -0.12113623657E+03  0.14025626438E+03  0.24231897284E+03  0.12507144843E+03 0.  0.
         24    2    1    2    0    0 -0.22007472524E+02 -0.54665139074E+01  0.98097091390E+03  0.98463487032E+03  0.81778250853E+02 0.  0.
        -11    1    5    5    0    0 -0.37408851481E+02 -0.20950480291E+02  0.89174235333E+03  0.89277251834E+03  0.00000000000E+00 0.  1.
         12    1    5    5    0    0  0.15401378957E+02  0.15483966383E+02  0.89228560570E+02  0.91862351974E+02  0.00000000000E+00 0. -1.
         11    1    3    3    0    0 -0.32892042616E+02  0.94587254484E+02 -0.84225909253E+03  0.84819161404E+03  0.00000000000E+00 0. -1.
        -12    1    3    3    0    0 -0.38533936456E+02  0.32015495989E+02 -0.15677642797E+03  0.16458646545E+03  0.00000000000E+00 0.  1.
          5    1    4    4  501    0  0.11642641324E+03 -0.63678237666E+02  0.11387063428E+03  0.17491146733E+03  0.41800000000E+01 0. -1.
         -5    1    4    4    0  501 -0.22992961646E+02 -0.57457998900E+02  0.26385630102E+02  0.67407505507E+02  0.41800000000E+01 0. -1.
</event>
<event>
11    1  0.6625361E-009  0.1946381E+03  0.7561462E-02  0.1058381E+00
         22   -1    0    0    0    0  0.00000000000E+00  0.00000000000E+00  0.44879262256E+03  0.44879262256E+03  0.00000000000E+00 0.  1.
         22   -1    0    0    0    0 -0.00000000000E+00 -0.00000000000E+00 -0.46552542385E+03  0.46552542385E+03  0.00000000000E+00 0.  1.
         24    2    1    2    0    0  0.15041113525E+03 -0.20856916305E+02 -0.40291400709E+03  0.43765318883E+03  0.78371525576E+02 0.  0.
         25    2    1    2    0    0 -0.11892081953E+03 -0.88138150542E+01  0.16980461065E+03  0.24228151550E+03  0.12508749857E+03 0.  0.
        -24    2    1    2    0    0 -0.31490315724E+02  0.29670731359E+02  0.21637659515E+03  0.23438334208E+03  0.79023590345E+02 0.  0.
        -13    1    3    3    0    0  0.14580743816E+03 -0.29180427213E+02 -0.30540654964E+03  0.33968289171E+03  0.00000000000E+00 0.  1.
         14    1    3    3    0    0  0.46036970925E+01  0.83235109088E+01 -0.97507457451E+02  0.97970297128E+02  0.00000000000E+00 0. -1.
         11    1    5    5    0    0 -0.24277636198E+02  0.95227675700E+01  0.11685934041E+02  0.28577049812E+02  0.00000000000E+00 0. -1.
        -12    1    5    5    0    0 -0.72126795261E+01  0.20147963789E+02  0.20469066111E+03  0.20580629227E+03  0.00000000000E+00 0.  1.
          5    1    4    4  501    0 -0.57898835134E+02  0.53004038556E+02  0.46293086933E+02  0.91226232581E+02  0.41800000000E+01 0.  1.
         -5    1    4    4    0  501 -0.61021984392E+02 -0.61817853611E+02  0.12351152372E+03  0.15105528291E+03  0.41800000000E+01 0.  1.
</event>
<event>
11    1  0.6625361E-009  0.1275007E+03  0.7561462E-02  0.1122378E+00
         22   -1    0    0    0    0  0.00000000000E+00  0.00000000000E+00  0.23073683890E+03  0.23073683890E+03  0.00000000000E+00 0. -1.
         22   -1    0    0    0    0 -0.00000000000E+00 -0.00000000000E+00 -0.98340755619E+03  0.98340755619E+03  0.00000000000E+00 0.  1.
        -24    2    1    2    0    0 -0.59851408523E+01 -0.19226418236E+02 -0.90490248103E+03  0.90854453915E+03  0.78735013622E+02 0.  0.
         25    2    1    2    0    0  0.28240292501E+02  0.25151518624E+02 -0.14240298954E+01  0.13069784367E+03  0.12509910259E+03 0.  0.
         24    2    1    2    0    0 -0.22255151648E+02 -0.59251003887E+01  0.15365579364E+03  0.17490201227E+03  0.80313214281E+02 0.  0.
        -11    1    5    5    0    0 -0.36125307237E+02 -0.16155449212E+02  0.29002863844E+02  0.49063249723E+02  0.00000000000E+00 0.  1.
         12    1    5    5    0    0  0.13870155589E+02  0.10230348823E+02  0.12465292980E+03  0.12583876255E+03  0.00000000000E+00 0. -1.
         11    1    3    3    0    0  0.77825443312E+01  0.14230804721E+02 -0.71740965897E+03  0.71759299229E+03  0.00000000000E+00 0. -1.
        -12    1    3    3    0    0 -0.13767685183E+02 -0.33457222957E+02 -0.18749282207E+03  0.19095154686E+03  0.00000000000E+00 0.  1.
          5    1    4    4  501    0 -0.33744830808E+02  0.85192215499E+01 -0.41959890652E+02  0.54675365253E+02  0.41800000000E+01 0. -1.
         -5    1    4    4    0  501  0.61985123309E+02  0.16632297075E+02  0.40535860756E+02  0.76022478418E+02  0.41800000000E+01 0. -1.
</event>
<event>
11    1  0.6625361E-009  0.1301788E+03  0.7561462E-02  0.1119049E+00
         22   -1    0    0    0    0  0.00000000000E+00  0.00000000000E+00  0.15863620655E+04  0.15863620655E+04  0.00000000000E+00 0.  1.
         22   -1    0    0    0    0 -0.00000000000E+00 -0.00000000000E+00 -0.14307565668E+03  0.14307565668E+03  0.00000000000E+00 0.  1.
         24    2    1    2    0    0 -0.31324008401E+02  0.60513575026E+01 -0.78146454177E+02  0.11901494915E+03  0.83903977201E+02 0.  0.
         25    2    1    2    0    0  0.56000913728E+02 -0.16795216647E+02  0.66843462815E+02  0.15341084193E+03  0.12509458926E+03 0.  0.
        -24    2    1    2    0    0 -0.24676905327E+02  0.10743859145E+02  0.14545894001E+04  0.14570119311E+04  0.79555415199E+02 0.  0.
        -11    1    3    3    0    0 -0.57853448070E+02  0.77470393363E+01 -0.70142760625E+02  0.91252643470E+02  0.00000000000E+00 0.  1.
         12    1    3    3    0    0  0.26529439669E+02 -0.16956818337E+01 -0.80036935520E+01  0.27762305677E+02  0.00000000000E+00 0. -1.
         13    1    5    5    0    0 -0.85216873847E+01 -0.77418298904E+01  0.28868304271E+02  0.31079480005E+02  0.00000000000E+00 0. -1.
        -14    1    5    5    0    0 -0.16155217942E+02  0.18485689035E+02  0.14257210959E+04  0.14259324510E+04  0.00000000000E+00 0.  1.
          5    1    4    4  501    0 -0.10788801279E+02  0.42275240691E+01 -0.30806774358E+02  0.33178305248E+02  0.41800000000E+01 0. -1.
         -5    1    4    4    0  501  0.66789715006E+02 -0.21022740716E+02  0.97650237174E+02  0.12023253669E+03  0.41800000000E+01 0. -1.
</event>
<event>
11    1  0.6625361E-009  0.1589277E+03  0.7561462E-02  0.1088090E+00
         22   -1    0    0    0    0  0.00000000000E+00  0.00000000000E+00  0.39135146105E+03  0.39135146105E+03  0.00000000000E+00 0. -1.
         22   -1    0    0    0    0 -0.00000000000E+00 -0.00000000000E+00 -0.71955480461E+03  0.71955480461E+03  0.00000000000E+00 0. -1.
         24    2    1    2    0    0 -0.56339235481E+02  0.83795305421E+02 -0.57464849478E+03  0.58897484493E+03  0.80465599751E+02 0.  0.
         25    2    1    2    0    0  0.54534731932E+02 -0.60684220955E+02 -0.90642861534E+02  0.17469189725E+03  0.12507805147E+03 0.  0.
        -24    2    1    2    0    0  0.18045035498E+01 -0.23111084466E+02  0.33708801276E+03  0.34723952348E+03  0.80059851766E+02 0.  0.
        -13    1    3    3    0    0 -0.36125390596E+02 -0.45412852288E+01 -0.21647001151E+03  0.21951066717E+03  0.00000000000E+00 0.  1.
         14    1    3    3    0    0 -0.20213844885E+02  0.88336590650E+02 -0.35817848327E+03  0.36946417776E+03  0.00000000000E+00 0. -1.
         11    1    5    5    0    0  0.31593998149E+02 -0.25674204682E+02  0.27853374401E+03  0.28149314744E+03  0.00000000000E+00 0. -1.
        -12    1    5    5    0    0 -0.29789494599E+02  0.25631202159E+01  0.58554268750E+02  0.65746376042E+02  0.00000000000E+00 0.  1.
          5    1    4    4  501    0  0.86768699095E+01  0.36585704954E+02 -0.42191130874E+02  0.56668913902E+02  0.41800000000E+01 0.  1.
         -5    1    4    4    0  501  0.45857862022E+02 -0.97269925909E+02 -0.48451730660E+02  0.11802298335E+03  0.41800000000E+01 0.  1.
</event>
<event>
11    1  0.6625361E-009  0.1466557E+03  0.7561462E-02  0.1100346E+00
         22   -1    0    0    0    0  0.00000000000E+00  0.00000000000E+00  0.50429693636E+02  0.50429693636E+02  0.00000000000E+00 0. -1.
         22   -1    0    0    0    0 -0.00000000000E+00 -0.00000000000E+00 -0.19778081802E+04  0.19778081802E+04  0.00000000000E+00 0.  1.
         24    2    1    2    0    0  0.62818770443E+02 -0.61480430889E+02 -0.15117842244E+04  0.15165341081E+04  0.81597296639E+02 0.  0.
         25    2    1    2    0    0 -0.11363806589E+02 -0.19831432737E+02 -0.34489093749E+03  0.36758678325E+03  0.12509141710E+03 0.  0.
        -24    2    1    2    0    0 -0.51454963855E+02  0.81311863626E+02 -0.70703324739E+02  0.14411698248E+03  0.80693940522E+02 0.  0.
        -13    1    3    3    0    0  0.39526882882E+02 -0.34959282857E+02 -0.13460004540E+04  0.13470344272E+04  0.00000000000E+00 0.  1.
         14    1    3    3    0    0  0.23291887561E+02 -0.26521148032E+02 -0.16578377039E+03  0.16949968096E+03  0.00000000000E+00 0. -1.
         13    1    5    5    0    0 -0.39630915114E+02  0.67085142922E+02 -0.75171752330E+01  0.78278565119E+02  0.00000000000E+00 0. -1.
        -14    1    5    5    0    0 -0.11824048741E+02  0.14226720705E+02 -0.63186149506E+02  0.65838417356E+02  0.00000000000E+00 0.  1.
          5    1    4    4  501    0  0.13222905738E+01 -0.25028814533E+02 -0.35106327588E+03  0.35198165589E+03  0.41800000000E+01 0. -1.
         -5    1    4    4    0  501 -0.12686097162E+02  0.51973817964E+01  0.61723383902E+01  0.15605127361E+02  0.41800000000E+01 0. -1.
</event>
<event>
11    1  0.1598814E-008  0.1842050E+03  0.7561462E-02  0.1066291E+00
         22   -1    0    0    0    0  0.00000000000E+00  0.00000000000E+00  0.21220289037E+04  0.21220289037E+04  0.00000000000E+00 0. -1.
         22   -1    0    0    0    0 -0.00000000000E+00 -0.00000000000E+00 -0.10216027584E+04  0.10216027584E+04  0.00000000000E+00 0.  1.
         24    2    1    2    0    0  0.28723450571E+02  0.77312417840E+02 -0.73073938911E+03  0.73993422864E+03  0.81977810036E+02 0.  0.
         25    2    1    2    0    0 -0.16180560539E+03 -0.98711669911E+02 -0.23778479885E+03  0.32880842768E+03  0.12509326055E+03 0.  0.
        -24    2    1    2    0    0  0.13308215482E+03  0.21399252072E+02  0.20689503333E+04  0.20748890058E+04  0.80250338424E+02 0.  0.
        -11    1    3    3    0    0 -0.10205276776E+02  0.42491776940E+02 -0.55181147185E+03  0.55353915782E+03  0.00000000000E+00 0.  1.
         12    1    3    3    0    0  0.38928727347E+02  0.34820640899E+02 -0.17892791727E+03  0.18639507081E+03  0.00000000000E+00 0. -1.
         11    1    5    5    0    0  0.18711940609E+02  0.82822195820E+01  0.91111001042E+03  0.91133977362E+03  0.00000000000E+00 0. -1.
        -12    1    5    5    0    0  0.11437021421E+03  0.13117032490E+02  0.11578403228E+04  0.11635492321E+04  0.00000000000E+00 0.  1.
          5    1    4    4  501    0  0.64190773772E+01 -0.48154422822E+02 -0.32513128686E+02  0.58605707305E+02  0.41800000000E+01 0.  1.
         -5    1    4    4    0  501 -0.16822468277E+03 -0.50557247089E+02 -0.20527167017E+03  0.27020272038E+03  0.41800000000E+01 0.  1.
</event>
<event>
11    1  0.6839199E-009  0.1548625E+03  0.7561462E-02  0.1092011E+00
         22   -1    0    0    0    0  0.00000000000E+00  0.00000000000E+00  0.12174012755E+04  0.12174012755E+04  0.00000000000E+00 0.  1.
         22   -1    0    0    0    0 -0.00000000000E+00 -0.00000000000E+00 -0.20546114250E+03  0.20546114250E+03  0.00000000000E+00 0. -1.
         24    2    1    2    0    0 -0.55552150746E+01  0.68724696940E+02 -0.10838578841E+03  0.14919580539E+03  0.75881254821E+02 0.  0.
         25    2    1    2    0    0  0.23733535723E+02 -0.15493763790E+03  0.64408388455E+02  0.21063553881E+03  0.12509970964E+03 0.  0.
        -24    2    1    2    0    0 -0.18178320649E+02  0.86212940958E+02  0.10559175329E+04  0.10630310738E+04  0.85499151553E+02 0.  0.
        -13    1    3    3    0    0  0.66931940778E+01 -0.34377543321E+01  0.84572570331E+01  0.11319991092E+02  0.00000000000E+00 0.  1.
         14    1    3    3    0    0 -0.12248409152E+02  0.72162451272E+02 -0.11684304544E+03  0.13787581430E+03  0.00000000000E+00 0. -1.
         13    1    5    5    0    0 -0.27813355162E+02 -0.66948061321E+01  0.20089911471E+03  0.20292574368E+03  0.00000000000E+00 0. -1.
        -14    1    5    5    0    0  0.96350345137E+01  0.92907747090E+02  0.85501841822E+03  0.86010533009E+03  0.00000000000E+00 0.  1.
          5    1    4    4  501    0 -0.37837544058E+02 -0.99117623232E+02  0.70097580493E+02  0.12722863737E+03  0.41800000000E+01 0. -1.
         -5    1    4    4    0  501  0.61571079781E+02 -0.55820014666E+02 -0.56891920374E+01  0.83406901446E+02  0.41800000000E+01 0. -1.
</event>
<event>
11    1  0.6625361E-009  0.1773592E+03  0.7561462E-02  0.1071799E+00
         22   -1    0    0    0    0  0.00000000000E+00  0.00000000000E+00  0.94623517874E+02  0.94623517874E+02  0.00000000000E+00 0.  1.
         22   -1    0    0    0    0 -0.00000000000E+00 -0.00000000000E+00 -0.14805414780E+04  0.14805414780E+04  0.00000000000E+00 0.  1.
        -24    2    1    2    0    0 -0.14280032688E+02  0.12192173637E+03 -0.11888321688E+04  0.11978598626E+04  0.80482892102E+02 0.  0.
         25    2    1    2    0    0 -0.36776684829E+02 -0.16180179781E+03 -0.17635517708E+03  0.27254503843E+03  0.12508918086E+03 0.  0.
         24    2    1    2    0    0  0.51056717516E+02  0.39880061438E+02 -0.20730614339E+02  0.10476009485E+03  0.79672525993E+02 0.  0.
        -11    1    5    5    0    0  0.58622310906E+02  0.64335467986E+01  0.86476350965E+01  0.59604928094E+02  0.00000000000E+00 0.  1.
         12    1    5    5    0    0 -0.75655933893E+01  0.33446514639E+02 -0.29378249435E+02  0.45155166755E+02  0.00000000000E+00 0. -1.
         11    1    3    3    0    0 -0.22668903245E+02  0.38176057598E+02 -0.17515662016E+03  0.18069624272E+03  0.00000000000E+00 0. -1.
        -12    1    3    3    0    0  0.83888705573E+01  0.83745678774E+02 -0.10136755486E+04  0.10171636199E+04  0.00000000000E+00 0.  1.
          5    1    4    4  501    0  0.39294563913E+02 -0.21905873403E+02 -0.20252988177E+02  0.49513492835E+02  0.41800000000E+01 0. -1.
         -5    1    4    4    0  501 -0.76071248741E+02 -0.13989592441E+03 -0.15610218890E+03  0.22303154559E+03  0.41800000000E+01 0. -1.
</event>
<event>
11    1  0.6625361E-009  0.1462987E+03  0.7561462E-02  0.1100722E+00
         22   -1    0    0    0    0  0.00000000000E+00  0.00000000000E+00  0.29474673555E+04  0.29474673555E+04  0.00000000000E+00 0.  1.
         22   -1    0    0    0    0 -0.00000000000E+00 -0.00000000000E+00 -0.58110884339E+02  0.58110884339E+02  0.00000000000E+00 0. -1.
         24    2    1    2    0    0  0.26242980662E+02 -0.19422256484E+02 -0.44078372161E+01  0.83933322426E+02  0.77197509698E+02 0.  0.
         25    2    1    2    0    0  0.29346785179E+02  0.71716196985E+02  0.41270368688E+03  0.43815115250E+03  0.12509057744E+03 0.  0.
        -24    2    1    2    0    0 -0.55589765840E+02 -0.52293940501E+02  0.24810606215E+04  0.24834937650E+04  0.79085994498E+02 0.  0.
        -11    1    3    3    0    0  0.17280646088E+02 -0.32781940341E+02  0.28866586986E+02  0.46973994784E+02  0.00000000000E+00 0.  1.
         12    1    3    3    0    0  0.89623345735E+01  0.13359683857E+02 -0.33274424202E+02  0.36959327642E+02  0.00000000000E+00 0. -1.
         11    1    5    5    0    0 -0.50234851041E+02 -0.44658897413E+02  0.93809694339E+03  0.94050190461E+03  0.00000000000E+00 0. -1.
        -12    1    5    5    0    0 -0.53549147998E+01 -0.76350430875E+01  0.15429636782E+04  0.15429918604E+04  0.00000000000E+00 0.  1.
          5    1    4    4  501    0 -0.26648075335E+02  0.19973284368E+02  0.22174066117E+02  0.40227025936E+02  0.41800000000E+01 0.  1.
         -5    1    4    4    0  501  0.55994860514E+02  0.51742912617E+02  0.39052962076E+03  0.39792412656E+03  0.41800000000E+01 0.  1.
</event>
<event>
11    1  0.6625361E-009  0.1316948E+03  0.7561462E-02  0.1117204E+00
         22   -1    0    0    0    0  0.00000000000E+00  0.00000000000E+00  0.33474288450E+03  0.33474288450E+03  0.00000000000E+00 0.  1.
         22   -1    0    0    0    0 -0.00000000000E+00 -0.00000000000E+00 -0.51809227145E+03  0.51809227145E+03  0.00000000000E+00 0.  1.
         24    2    1    2    0    0  0.72363299824E+01 -0.28329451132E+02 -0.27587431386E+03  0.28923571515E+03  0.81827499054E+02 0.  0.
         25    2    1    2    0    0 -0.16753419890E+02 -0.12499812940E+02 -0.21126159255E+03  0.24640523590E+03  0.12508859817E+03 0.  0.
        -24    2    1    2    0    0  0.95170899072E+01  0.40829264072E+02  0.30378651946E+03  0.31719420489E+03  0.81045113396E+02 0.  0.
        -11    1    3    3    0    0  0.35913528233E+01 -0.50416560073E+02 -0.24983537436E+03  0.25489692353E+03  0.00000000000E+00 0.  1.
         12    1    3    3    0    0  0.36449771591E+01  0.22087108941E+02 -0.26038939496E+02  0.34338791621E+02  0.00000000000E+00 0. -1.
         11    1    5    5    0    0  0.24302039366E+01  0.56988460145E+01 -0.39698758959E+01  0.73581690453E+01  0.00000000000E+00 0. -1.
        -12    1    5    5    0    0  0.70868859706E+01  0.35130418057E+02  0.30775639536E+03  0.30983603585E+03  0.00000000000E+00 0.  1.
          5    1    4    4  501    0 -0.41407620424E+02 -0.41699035469E+02 -0.19663881387E+03  0.20527468452E+03  0.41800000000E+01 0. -1.
         -5    1    4    4    0  501  0.24654200535E+02  0.29199222529E+02 -0.14622778687E+02  0.41130551380E+02  0.41800000000E+01 0. -1.
</event>
<event>
11    1  0.6625361E-009  0.1807357E+03  0.7561462E-02  0.1069049E+00
         22   -1    0    0    0    0  0.00000000000E+00  0.00000000000E+00  0.24114242921E+03  0.24114242921E+03  0.00000000000E+00 0.  1.
         22   -1    0    0    0    0 -0.00000000000E+00 -0.00000000000E+00 -0.23852319048E+04  0.23852319048E+04  0.00000000000E+00 0.  1.
         24    2    1    2    0    0  0.10644910514E+03 -0.74556222196E+02 -0.22462398989E+04  0.22513911369E+04  0.79235883638E+02 0.  0.
         25    2    1    2    0    0 -0.12685365228E+03  0.69788200985E+02 -0.53074889438E+02  0.19856933209E+03  0.12510233278E+03 0.  0.
        -24    2    1    2    0    0  0.20404547131E+02  0.47680212104E+01  0.15522531283E+03  0.17641386503E+03  0.81165722197E+02 0.  0.
        -11    1    3    3    0    0  0.53008882756E+02 -0.42667981167E+01 -0.12863047062E+04  0.12874035671E+04  0.00000000000E+00 0.  1.
         12    1    3    3    0    0  0.53440222389E+02 -0.70289424079E+02 -0.95993519272E+03  0.96398756980E+03  0.00000000000E+00 0. -1.
         11    1    5    5    0    0  0.34426264105E+02 -0.11553081758E+02  0.24210530397E+02  0.43643912983E+02  0.00000000000E+00 0. -1.
        -12    1    5    5    0    0 -0.14021716975E+02  0.16321102969E+02  0.13101478244E+03  0.13276995204E+03  0.00000000000E+00 0.  1.
          5    1    4    4  501    0  0.13560983700E+02  0.16442260709E+02  0.21722323395E+02  0.30717746496E+02  0.41800000000E+01 0. -1.
         -5    1    4    4    0  501 -0.14041463598E+03  0.53345940277E+02 -0.74797212833E+02  0.16785158560E+03  0.41800000000E+01 0. -1.
</event>
<event>
11    1  0.6625361E-009  0.1613313E+03  0.7561462E-02  0.1085832E+00
         22   -1    0    0    0    0  0.00000000000E+00  0.00000000000E+00  0.48030276909E+03  0.48030276909E+03  0.00000000000E+00 0.  1.
         22   -1    0    0    0    0 -0.00000000000E+00 -0.00000000000E+00 -0.53602627520E+03  0.53602627520E+03  0.00000000000E+00 0.  1.
        -24    2    1    2    0    0 -0.81986970388E+02 -0.55297071745E+02 -0.42286487223E+03  0.44316288820E+03  0.88312036827E+02 0.  0.
         25    2    1    2    0    0  0.11085906920E+03  0.59780086876E+02 -0.18663285172E+02  0.17849279669E+03  0.12509183925E+03 0.  0.
         24    2    1    2    0    0 -0.28872098810E+02 -0.44830151310E+01  0.38580465130E+03  0.39467335940E+03  0.77898242239E+02 0.  0.
        -11    1    5    5    0    0 -0.55182460713E+02 -0.10393303030E+02  0.25246818089E+03  0.25863740464E+03  0.00000000000E+00 0.  1.
         12    1    5    5    0    0  0.26310361903E+02  0.59102878985E+01  0.13333647041E+03  0.13603595476E+03  0.00000000000E+00 0. -1.
         11    1    3    3    0    0  0.63426099564E+01  0.25498076569E+01  0.47697203355E+00  0.68525705007E+01  0.00000000000E+00 0. -1.
        -12    1    3    3    0    0 -0.88329580344E+02 -0.57846879402E+02 -0.42334184427E+03  0.43631031769E+03  0.00000000000E+00 0.  1.
          5    1    4    4  501    0  0.85724052061E+02 -0.48881149739E+01 -0.52976374594E+02  0.10097759868E+03  0.41800000000E+01 0.  1.
         -5    1    4    4    0  501  0.25135017137E+02  0.64668201850E+02  0.34313089422E+02  0.77515198011E+02  0.41800000000E+01 0.  1.
</event>
<event>
11    1  0.6625361E-009  0.1523124E+03  0.7561462E-02  0.1094539E+00
         22   -1    0    0    0    0  0.00000000000E+00  0.00000000000E+00  0.28457201466E+03  0.28457201466E+03  0.00000000000E+00 0. -1.
         22   -1    0    0    0    0 -0.00000000000E+00 -0.00000000000E+00 -0.30430694728E+04  0.30430694728E+04  0.00000000000E+00 0. -1.
         24    2    1    2    0    0  0.62018278425E+02  0.52966118137E+02 -0.23418771884E+04  0.23446999411E+04  0.81100996725E+02 0.  0.
         25    2    1    2    0    0 -0.93538478928E+02 -0.93657588100E+02 -0.67953908487E+03  0.70352471839E+03  0.12510983442E+03 0.  0.
        -24    2    1    2    0    0  0.31520200503E+02  0.40691469963E+02  0.26291881509E+03  0.27941682802E+03  0.79360832188E+02 0.  0.
        -13    1    3    3    0    0  0.35158271486E+02 -0.16084953836E+02 -0.10375353074E+04  0.10382554328E+04  0.00000000000E+00 0.  1.
         14    1    3    3    0    0  0.26860006939E+02  0.69051071973E+02 -0.13043418810E+04  0.13064445082E+04  0.00000000000E+00 0. -1.
         13    1    5    5    0    0  0.27557521253E+02  0.56595837140E+02  0.25194987174E+03  0.25969451983E+03  0.00000000000E+00 0. -1.
        -14    1    5    5    0    0  0.39626792500E+01 -0.15904367177E+02  0.10968943344E+02  0.19722308187E+02  0.00000000000E+00 0.  1.
          5    1    4    4  501    0 -0.47162138036E+02 -0.11949083052E+03 -0.45988785038E+03  0.47751087230E+03  0.41800000000E+01 0.  1.
         -5    1    4    4    0  501 -0.46376340892E+02  0.25833242419E+02 -0.21965123449E+03  0.22601384609E+03  0.41800000000E+01 0.  1.
</event>
<event>
11    1  0.6625361E-009  0.1501780E+03  0.7561462E-02  0.1096697E+00
         22   -1    0    0    0    0  0.00000000000E+00  0.00000000000E+00  0.14520638412E+04  0.14520638412E+04  0.00000000000E+00 0. -1.
         22   -1    0    0    0    0 -0.00000000000E+00 -0.00000000000E+00 -0.46048988656E+03  0.46048988656E+03  0.00000000000E+00 0.  1.
         24    2    1    2    0    0  0.75690474540E+02 -0.11806050379E+02 -0.29578908550E+03  0.31606376137E+03  0.80849782876E+02 0.  0.
         25    2    1    2    0    0 -0.11609746322E+03 -0.12427891853E+02 -0.10511247649E+03  0.20082243394E+03  0.12509174153E+03 0.  0.
        -24    2    1    2    0    0  0.40406988684E+02  0.24233942232E+02  0.13924755166E+04  0.13956675324E+04  0.81729970167E+02 0.  0.
        -11    1    3    3    0    0  0.34031386318E+02 -0.28580431385E+02 -0.24174335940E+03  0.24579428009E+03  0.00000000000E+00 0.  1.
         12    1    3    3    0    0  0.41659088222E+02  0.16774381006E+02 -0.54045726099E+02  0.70269481279E+02  0.00000000000E+00 0. -1.
         11    1    5    5    0    0  0.12759469372E+02 -0.51620448122E+01  0.11320720224E+04  0.11321556937E+04  0.00000000000E+00 0. -1.
        -12    1    5    5    0    0  0.27647519311E+02  0.29395987044E+02  0.26040349416E+03  0.26351183872E+03  0.00000000000E+00 0.  1.
          5    1    4    4  501    0  0.16683447004E+02 -0.17220625996E+02 -0.52480026598E+02  0.57849053194E+02  0.41800000000E+01 0. -1.
         -5    1    4    4    0  501 -0.13278091023E+03  0.47927341424E+01 -0.52632449893E+02  0.14297338075E+03  0.41800000000E+01 0. -1.
</event>
<event>
11    1  0.6625361E-009  0.1698001E+03  0.7561462E-02  0.1078206E+00
         22   -1    0    0    0    0  0.00000000000E+00  0.00000000000E+00  0.10021974548E+03  0.10021974548E+03  0.00000000000E+00 0. -1.
         22   -1    0    0    0    0 -0.00000000000E+00 -0.00000000000E+00 -0.74840408031E+03  0.74840408031E+03  0.00000000000E+00 0. -1.
         24    2    1    2    0    0  0.50997450245E+02 -0.74306618388E+02 -0.42140439686E+03  0.43835944698E+03  0.80343796229E+02 0.  0.
         25    2    1    2    0    0 -0.14856294995E+03  0.27981021847E+02 -0.18620216541E+03  0.27050534561E+03  0.12509199781E+03 0.  0.
        -24    2    1    2    0    0  0.97565499708E+02  0.46325596541E+02 -0.40577772553E+02  0.13975903320E+03  0.78872961823E+02 0.  0.
        -13    1    3    3    0    0  0.42486333386E+02 -0.23048436331E+02 -0.83479756860E+02  0.96463406260E+02  0.00000000000E+00 0.  1.
         14    1    3    3    0    0  0.85111168584E+01 -0.51258182057E+02 -0.33792464000E+03  0.34189604072E+03  0.00000000000E+00 0. -1.
         13    1    5    5    0    0  0.96132590396E+02  0.16968857268E+02 -0.48941906114E+02  0.10920039939E+03  0.00000000000E+00 0. -1.
        -14    1    5    5    0    0  0.14329093118E+01  0.29356739273E+02  0.83641335614E+01  0.30558633806E+02  0.00000000000E+00 0.  1.
          5    1    4    4  501    0 -0.13374597670E+03  0.11684817841E+02 -0.68673559904E+02  0.15085771933E+03  0.41800000000E+01 0.  1.
         -5    1    4    4    0  501 -0.14816973252E+02  0.16296204006E+02 -0.11752860551E+03  0.11964762628E+03  0.41800000000E+01 0.  1.
</event>
<event>
11    1  0.6625361E-009  0.1635239E+03  0.7561462E-02  0.1083809E+00
         22   -1    0    0    0    0  0.00000000000E+00  0.00000000000E+00  0.89986121167E+03  0.89986121167E+03  0.00000000000E+00 0.  1.
         22   -1    0    0    0    0 -0.00000000000E+00 -0.00000000000E+00 -0.38125564778E+03  0.38125564778E+03  0.00000000000E+00 0. -1.
        -24    2    1    2    0    0  0.48738480724E+02  0.12170516661E+02 -0.33753253482E+03  0.35050448916E+03  0.80010148582E+02 0.  0.
         25    2    1    2    0    0  0.63273182321E+02  0.11844912568E+02  0.13243475672E+03  0.19320983045E+03  0.12508907323E+03 0.  0.
         24    2    1    2    0    0 -0.11201166304E+03 -0.24015429229E+02  0.72370334200E+03  0.73740253984E+03  0.83021834763E+02 0.  0.
        -13    1    5    5    0    0 -0.65335312281E+02 -0.48687845172E+02  0.54519953630E+03  0.55125469946E+03  0.00000000000E+00 0.  1.
         14    1    5    5    0    0 -0.46676350764E+02  0.24672415943E+02  0.17850380570E+03  0.18614784038E+03  0.00000000000E+00 0. -1.
         11    1    3    3    0    0  0.46289152290E+02  0.60475785471E+01 -0.34020205163E+03  0.34339000387E+03  0.00000000000E+00 0. -1.
        -12    1    3    3    0    0  0.24493284337E+01  0.61229381137E+01  0.26695168053E+01  0.71144852866E+01  0.00000000000E+00 0.  1.
          5    1    4    4  501    0 -0.33495070897E+01 -0.12754101853E+01  0.12460871367E+03  0.12473030823E+03  0.41800000000E+01 0. -1.
         -5    1    4    4    0  501  0.66622689411E+02  0.13120322753E+02  0.78260430478E+01  0.68479522218E+02  0.41800000000E+01 0. -1.
</event>
<event>
11    1  0.6625361E-009  0.1303651E+03  0.7561462E-02  0.1118821E+00
         22   -1    0    0    0    0  0.00000000000E+00  0.00000000000E+00  0.89386916690E+02  0.89386916690E+02  0.00000000000E+00 0.  1.
         22   -1    0    0    0    0 -0.00000000000E+00 -0.00000000000E+00 -0.81920523134E+03  0.81920523134E+03  0.00000000000E+00 0. -1.
         24    2    1    2    0    0 -0.30275642473E+02 -0.22043979518E+02 -0.49021548885E+03  0.49800873555E+03  0.79365758460E+02 0.  0.
         25    2    1    2    0    0  0.54738234570E+02 -0.45836709877E+01 -0.27976610273E+03  0.31134298453E+03  0.12509235553E+03 0.  0.
        -24    2    1    2    0    0 -0.24462592097E+02  0.26627650505E+02  0.40163276927E+02  0.99240427957E+02  0.83235350327E+02 0.  0.
        -13    1    3    3    0    0 -0.15518889823E+02  0.21043353905E+02 -0.60787604382E+02  0.66172437853E+02  0.00000000000E+00 0.  1.
         14    1    3    3    0    0 -0.14756752650E+02 -0.43087333423E+02 -0.42942788447E+03  0.43183629770E+03  0.00000000000E+00 0. -1.
         13    1    5    5    0    0  0.26694624663E+02 -0.89216605017E+01  0.87668578231E+01  0.29479769472E+02  0.00000000000E+00 0. -1.
        -14    1    5    5    0    0 -0.51157216760E+02  0.35549311007E+02  0.31396419103E+02  0.69760658485E+02  0.00000000000E+00 0.  1.
          5    1    4    4  501    0  0.44607883723E+02 -0.20280511155E+02 -0.28677125803E+03  0.29095771042E+03  0.41800000000E+01 0.  1.
         -5    1    4    4    0  501  0.10130350846E+02  0.15696840168E+02  0.70051552982E+01  0.20385274103E+02  0.41800000000E+01 0.  1.
</event>
<event>
11    1  0.6625361E-009  0.1727873E+03  0.7561462E-02  0.1075631E+00
         22   -1    0    0    0    0  0.00000000000E+00  0.00000000000E+00  0.13452886928E+04  0.13452886928E+04  0.00000000000E+00 0.  1.
         22   -1    0    0    0    0 -0.00000000000E+00 -0.00000000000E+00 -0.23538199262E+03  0.23538199262E+03  0.00000000000E+00 0.  1.
         24    2    1    2    0    0  0.56191181379E+02 -0.11982838891E+03 -0.10250095791E+03  0.18548096028E+03  0.79877710289E+02 0.  0.
         25    2    1    2    0    0 -0.36884521948E+02  0.89594290565E+02 -0.17989831540E+02  0.15924347078E+03  0.12508894470E+03 0.  0.
        -24    2    1    2    0    0 -0.19306659431E+02  0.30234098349E+02  0.12303974896E+04  0.12359462544E+04  0.11134771395E+03 0.  0.
        -11    1    3    3    0    0  0.70038945077E+02 -0.11855344333E+03 -0.10235833951E+03  0.17157389784E+03  0.00000000000E+00 0.  1.
         12    1    3    3    0    0 -0.13847763697E+02 -0.12749455814E+01 -0.14261839317E+00  0.13907062438E+02  0.00000000000E+00 0. -1.
         13    1    5    5    0    0 -0.17806555963E+02 -0.41531243470E+02  0.46573141011E+03  0.46791843732E+03  0.00000000000E+00 0. -1.
        -14    1    5    5    0    0 -0.15001034679E+01  0.71765341819E+02  0.76466607952E+03  0.76802781705E+03  0.00000000000E+00 0.  1.
          5    1    4    4  501    0  0.33581908047E+02  0.38278629129E+02 -0.44794319983E+02  0.67948520946E+02  0.41800000000E+01 0. -1.
         -5    1    4    4    0  501 -0.70466429995E+02  0.51315661435E+02  0.26804488443E+02  0.91294949835E+02  0.41800000000E+01 0. -1.
</event>
<event>
11    1  0.6625361E-009  0.1363678E+03  0.7561462E-02  0.1111684E+00
         22   -1    0    0    0    0  0.00000000000E+00  0.00000000000E+00  0.16796455323E+04  0.16796455323E+04  0.00000000000E+00 0.  1.
         22   -1    0    0    0    0 -0.00000000000E+00 -0.00000000000E+00 -0.39013560064E+03  0.39013560064E+03  0.00000000000E+00 0.  1.
         24    2    1    2    0    0  0.37425893249E+02  0.14357414579E+02 -0.36185307020E+03  0.37386309518E+03  0.85024329937E+02 0.  0.
         25    2    1    2    0    0 -0.91453874832E+01 -0.61253971385E+02  0.21538842331E+03  0.25665739465E+03  0.12508060686E+03 0.  0.
        -24    2    1    2    0    0 -0.28280505766E+02  0.46896556806E+02  0.14359745785E+04  0.14392606431E+04  0.80306503526E+02 0.  0.
        -13    1    3    3    0    0  0.11272332204E+02 -0.22417750671E+02 -0.27353939861E+03  0.27468786579E+03  0.00000000000E+00 0.  1.
         14    1    3    3    0    0  0.26153561045E+02  0.36775165249E+02 -0.88313671594E+02  0.99175229391E+02  0.00000000000E+00 0. -1.
         13    1    5    5    0    0 -0.15779218575E+02 -0.18076527513E+02  0.18676239660E+03  0.18829747043E+03  0.00000000000E+00 0. -1.
        -14    1    5    5    0    0 -0.12501287191E+02  0.64973084320E+02  0.12492121819E+04  0.12509631727E+04  0.00000000000E+00 0.  1.
          5    1    4    4  501    0 -0.18168473190E+02  0.23176498762E+02  0.13970321519E+03  0.14283453450E+03  0.41800000000E+01 0. -1.
         -5    1    4    4    0  501  0.90230857069E+01 -0.84430470147E+02  0.75685208121E+02  0.11382286015E+03  0.41800000000E+01 0. -1.
</event>
<event>
11    1  0.6625361E-009  0.1307058E+03  0.7561462E-02  0.1118405E+00
         22   -1    0    0    0    0  0.00000000000E+00  0.00000000000E+00  0.39293817755E+03  0.39293817755E+03  0.00000000000E+00 0. -1.
         22   -1    0    0    0    0 -0.00000000000E+00 -0.00000000000E+00 -0.90833541673E+03  0.90833541673E+03  0.00000000000E+00 0. -1.
        -24    2    1    2    0    0 -0.53890679136E+02 -0.48519450237E+01 -0.54681028728E+03  0.55535090128E+03  0.80531898078E+02 0.  0.
         25    2    1    2    0    0  0.88282139406E+02  0.18624634190E+02 -0.33397191054E+03  0.36785911557E+03  0.12506989542E+03 0.  0.
         24    2    1    2    0    0 -0.34391460270E+02 -0.13772689166E+02  0.36538495864E+03  0.37806357743E+03  0.89740966495E+02 0.  0.
        -13    1    5    5    0    0 -0.55567079967E+02 -0.10396689911E+02  0.13071020946E+03  0.14241120178E+03  0.00000000000E+00 0.  1.
         14    1    5    5    0    0  0.21175619697E+02 -0.33759992550E+01  0.23467474919E+03  0.23565237564E+03  0.00000000000E+00 0. -1.
         11    1    3    3    0    0 -0.33609046558E+02 -0.45622823928E+01 -0.52288785919E+03  0.52398673239E+03  0.00000000000E+00 0. -1.
        -12    1    3    3    0    0 -0.20281632578E+02 -0.28966263091E+00 -0.23922428091E+02  0.31364168891E+02  0.00000000000E+00 0.  1.
          5    1    4    4  501    0  0.10220400359E+03 -0.24685695067E+02 -0.19512565623E+03  0.22169018023E+03  0.41800000000E+01 0. -1.
         -5    1    4    4    0  501 -0.13921864183E+02  0.43310329257E+02 -0.13884625431E+03  0.14616893534E+03  0.41800000000E+01 0. -1.
</event>
<event>
11    1  0.6625361E-009  0.1747347E+03  0.7561462E-02  0.1073983E+00
         22   -1    0    0    0    0  0.00000000000E+00  0.00000000000E+00  0.71616216846E+03  0.71616216846E+03  0.00000000000E+00 0. -1.
         22   -1    0    0    0    0 -0.00000000000E+00 -0.00000000000E+00 -0.16240149785E+04  0.16240149785E+04  0.00000000000E+00 0.  1.
        -24    2    1    2    0    0 -0.16542018027E+02  0.38725106205E+02 -0.14180605645E+04  0.14208468232E+04  0.78336825536E+02 0.  0.
         25    2    1    2    0    0  0.36832092691E+02 -0.15739221255E+03 -0.14336160580E+03  0.24965817717E+03  0.12509094207E+03 0.  0.
         24    2    1    2    0    0 -0.20290074664E+02  0.11866710635E+03  0.65356936023E+03  0.66967214661E+03  0.82548810173E+02 0.  0.
        -13    1    5    5    0    0 -0.27948485254E+02  0.21819737117E+02  0.74468639165E+02  0.82479069920E+02  0.00000000000E+00 0.  1.
         14    1    5    5    0    0  0.76584105899E+01  0.96847369230E+02  0.57910072106E+03  0.58719307669E+03  0.00000000000E+00 0. -1.
         13    1    3    3    0    0 -0.20946775751E+02  0.19976779859E+02 -0.15741259703E+03  0.16005175679E+03  0.00000000000E+00 0. -1.
        -14    1    3    3    0    0  0.44047577238E+01  0.18748326347E+02 -0.12606479674E+04  0.12607950664E+04  0.00000000000E+00 0.  1.
          5    1    4    4  501    0 -0.11567520172E+02  0.76729283283E+01 -0.53721552975E+02  0.55643139794E+02  0.41800000000E+01 0.  1.
         -5    1    4    4    0  501  0.48399612863E+02 -0.16506514088E+03 -0.89640052822E+02  0.19401503738E+03  0.41800000000E+01 0.  1.
</event>
<event>
11    1  0.6625361E-009  0.1430147E+03  0.7561462E-02  0.1104238E+00
         22   -1    0    0    0    0  0.00000000000E+00  0.00000000000E+00  0.13816511168E+04  0.13816511168E+04  0.00000000000E+00 0.  1.
         22   -1    0    0    0    0 -0.00000000000E+00 -0.00000000000E+00 -0.61661226223E+03  0.61661226223E+03  0.00000000000E+00 0. -1.
         24    2    1    2    0    0 -0.65190985280E+02  0.59122585086E+01 -0.58380652557E+03  0.59332527930E+03  0.83186587803E+02 0.  0.
         25    2    1    2    0    0 -0.72404134606E+01  0.13982293319E+02  0.13029069668E+03  0.18131338843E+03  0.12510376122E+03 0.  0.
        -24    2    1    2    0    0  0.72431398741E+02 -0.19894551827E+02  0.12185546835E+04  0.12236247113E+04  0.82096387190E+02 0.  0.
        -11    1    3    3    0    0 -0.58537746639E+02 -0.26755723192E+02 -0.26171800318E+03  0.26951595443E+03  0.00000000000E+00 0.  1.
         12    1    3    3    0    0 -0.66532386409E+01  0.32667981701E+02 -0.32208852239E+03  0.32380932486E+03  0.00000000000E+00 0. -1.
         11    1    5    5    0    0  0.48663757759E+02  0.33613974338E+01  0.26261835366E+03  0.26711020195E+03  0.00000000000E+00 0. -1.
        -12    1    5    5    0    0  0.23767640982E+02 -0.23255949261E+02  0.95593632984E+03  0.95651450938E+03  0.00000000000E+00 0.  1.
          5    1    4    4  501    0  0.20139638798E+02 -0.48877688689E+02  0.33856912960E+02  0.62915788620E+02  0.41800000000E+01 0. -1.
         -5    1    4    4    0  501 -0.27380052258E+02  0.62859982008E+02  0.96433783718E+02  0.11839759981E+03  0.41800000000E+01 0. -1.
</event>
<event>
11    1  0.6625361E-009  0.2175584E+03  0.7561462E-02  0.1042758E+00
         22   -1    0    0    0    0  0.00000000000E+00  0.00000000000E+00  0.56207849913E+03  0.56207849913E+03  0.00000000000E+00 0. -1.
         22   -1    0    0    0    0 -0.00000000000E+00 -0.00000000000E+00 -0.88597373200E+03  0.88597373200E+03  0.00000000000E+00 0.  1.
         24    2    1    2    0    0 -0.74449312750E+02  0.16860698275E+03 -0.72634319259E+03  0.75365814531E+03  0.80343959157E+02 0.  0.
         25    2    1    2    0    0  0.40019154450E+02 -0.14307770312E+03 -0.75252720633E+02  0.20828559089E+03  0.12508858284E+03 0.  0.
        -24    2    1    2    0    0  0.34430158300E+02 -0.25529279631E+02  0.47770068036E+03  0.48610849493E+03  0.79160273580E+02 0.  0.
        -11    1    3    3    0    0 -0.48902753722E+02  0.16175390346E+03 -0.55097592955E+03  0.57630745227E+03  0.00000000000E+00 0.  1.
         12    1    3    3    0    0 -0.25546559027E+02  0.68530792872E+01 -0.17536726304E+03  0.17735069304E+03  0.00000000000E+00 0. -1.
         11    1    5    5    0    0  0.20048795479E+02  0.25129430429E+02  0.26693113961E+03  0.26885995568E+03  0.00000000000E+00 0. -1.
        -12    1    5    5    0    0  0.14381362821E+02 -0.50658710060E+02  0.21076954075E+03  0.21724853926E+03  0.00000000000E+00 0.  1.
          5    1    4    4  501    0  0.45586618549E+02 -0.15430232427E+03 -0.93211565059E+02  0.18599251417E+03  0.41800000000E+01 0.  1.
         -5    1    4    4    0  501 -0.55674640997E+01  0.11224621151E+02  0.17958844426E+02  0.22293076719E+02  0.41800000000E+01 0.  1.
</event>
<event>
11    1  0.6625361E-009  0.2481728E+03  0.7561462E-02  0.1024877E+00
         22   -1    0    0    0    0  0.00000000000E+00  0.00000000000E+00  0.11540646890E+04  0.11540646890E+04  0.00000000000E+00 0. -1.
         22   -1    0    0    0    0 -0.00000000000E+00 -0.00000000000E+00 -0.59490328035E+03  0.59490328035E+03  0.00000000000E+00 0. -1.
         24    2    1    2    0    0 -0.12250412669E+03  0.85197205464E+02 -0.36571496589E+03  0.40326887582E+03  0.81317433876E+02 0.  0.
         25    2    1    2    0    0  0.21008436138E+03 -0.27221688837E+03 -0.28452004724E+02  0.36700877879E+03  0.12509378052E+03 0.  0.
        -24    2    1    2    0    0 -0.87580234697E+02  0.18701968290E+03  0.95332837931E+03  0.97869031478E+03  0.79706173717E+02 0.  0.
        -13    1    3    3    0    0 -0.18811820794E+02  0.58815542021E+02 -0.15747227731E+03  0.16914689092E+03  0.00000000000E+00 0.  1.
         14    1    3    3    0    0 -0.10369230589E+03  0.26381663443E+02 -0.20824268858E+03  0.23412198490E+03  0.00000000000E+00 0. -1.
         13    1    5    5    0    0 -0.76793216203E+02  0.17749024418E+03  0.93773693689E+03  0.95747091216E+03  0.00000000000E+00 0. -1.
        -14    1    5    5    0    0 -0.10787018494E+02  0.95294387216E+01  0.15591442427E+02  0.21219402614E+02  0.00000000000E+00 0.  1.
          5    1    4    4  501    0  0.18680327973E+03 -0.18782932922E+03  0.22057207577E+02  0.26585581626E+03  0.41800000000E+01 0.  1.
         -5    1    4    4    0  501  0.23281081658E+02 -0.84387559149E+02 -0.50509212301E+02  0.10115296253E+03  0.41800000000E+01 0.  1.
</event>
<event>
11    1  0.6625361E-009  0.1267877E+03  0.7561462E-02  0.1123280E+00
         22   -1    0    0    0    0  0.00000000000E+00  0.00000000000E+00  0.71151837503E+02  0.71151837503E+02  0.00000000000E+00 0. -1.
         22   -1    0    0    0    0 -0.00000000000E+00 -0.00000000000E+00 -0.24965313030E+04  0.24965313030E+04  0.00000000000E+00 0.  1.
        -24    2    1    2    0    0 -0.26155438949E+02 -0.59701370830E+01 -0.15739376900E+04  0.15769619942E+04  0.93859094478E+02 0.  0.
         25    2    1    2    0    0  0.39063214474E+01 -0.25006211237E+02 -0.88627175100E+03  0.89541327794E+03  0.12508697672E+03 0.  0.
         24    2    1    2    0    0  0.22249117501E+02  0.30976348320E+02  0.34829975539E+02  0.95307868330E+02  0.80099345720E+02 0.  0.
        -13    1    5    5    0    0  0.52361559269E+01 -0.21536484338E+02 -0.98860306471E+01  0.24268726552E+02  0.00000000000E+00 0.  1.
         14    1    5    5    0    0  0.17012961574E+02  0.52512832658E+02  0.44716006186E+02  0.71039141778E+02  0.00000000000E+00 0. -1.
         11    1    3    3    0    0 -0.35488194181E+02 -0.12306220359E+02 -0.23548910398E+03  0.23846587404E+03  0.00000000000E+00 0. -1.
        -12    1    3    3    0    0  0.93327552321E+01  0.63360832756E+01 -0.13384485860E+04  0.13384961202E+04  0.00000000000E+00 0.  1.
          5    1    4    4  501    0 -0.58224843740E+02 -0.38303624008E-01 -0.49514704119E+03  0.49857617140E+03  0.41800000000E+01 0.  1.
         -5    1    4    4    0  501  0.62131165187E+02 -0.24967907613E+02 -0.39112470981E+03  0.39683710653E+03  0.41800000000E+01 0.  1.
</event>
<event>
11    1  0.6625361E-009  0.1913571E+03  0.7561462E-02  0.1060809E+00
         22   -1    0    0    0    0  0.00000000000E+00  0.00000000000E+00  0.44036818576E+03  0.44036818576E+03  0.00000000000E+00 0. -1.
         22   -1    0    0    0    0 -0.00000000000E+00 -0.00000000000E+00 -0.43402268318E+03  0.43402268318E+03  0.00000000000E+00 0.  1.
         24    2    1    2    0    0 -0.79764163485E+02 -0.10847155671E+03 -0.29444181092E+03  0.33357683677E+03  0.80306448166E+02 0.  0.
         25    2    1    2    0    0  0.13833250062E+03  0.18308146375E+03  0.58103663337E+02  0.26772922925E+03  0.12509277120E+03 0.  0.
        -24    2    1    2    0    0 -0.58568337137E+02 -0.74609907038E+02  0.24268365017E+03  0.27308480293E+03  0.81750028662E+02 0.  0.
        -13    1    3    3    0    0 -0.46491377823E+02 -0.48342051491E+02 -0.22922520358E+03  0.23883591880E+03  0.00000000000E+00 0.  1.
         14    1    3    3    0    0 -0.33272785662E+02 -0.60129505220E+02 -0.65216607345E+02  0.94740917967E+02  0.00000000000E+00 0. -1.
         13    1    5    5    0    0 -0.51024897971E+02 -0.92423372008E+02  0.19782606135E+03  0.22423374067E+03  0.00000000000E+00 0. -1.
        -14    1    5    5    0    0 -0.75434391659E+01  0.17813464970E+02  0.44857588816E+02  0.48851062252E+02  0.00000000000E+00 0.  1.
          5    1    4    4  501    0  0.14204803092E+03  0.19866911345E+03  0.58473033537E+02  0.25116454323E+03  0.41800000000E+01 0. -1.
         -5    1    4    4    0  501 -0.37155302944E+01 -0.15587649702E+02 -0.36937020054E+00  0.16564686020E+02  0.41800000000E+01 0. -1.
</event>
<event>
11    1  0.6625361E-009  0.1472686E+03  0.7561462E-02  0.1099703E+00
         22   -1    0    0    0    0  0.00000000000E+00  0.00000000000E+00  0.17193575189E+04  0.17193575189E+04  0.00000000000E+00 0. -1.
         22   -1    0    0    0    0 -0.00000000000E+00 -0.00000000000E+00 -0.75843918928E+03  0.75843918928E+03  0.00000000000E+00 0.  1.
        -24    2    1    2    0    0  0.39009997491E+02 -0.67356711958E+02 -0.72756840604E+03  0.73644858054E+03  0.83318783961E+02 0.  0.
         25    2    1    2    0    0 -0.23894047587E+02  0.69677518360E+02  0.18053052015E+03  0.23165633748E+03  0.12508999927E+03 0.  0.
         24    2    1    2    0    0 -0.15115949904E+02 -0.23208064029E+01  0.15079562155E+04  0.15096917901E+04  0.70735247803E+02 0.  0.
        -13    1    5    5    0    0 -0.24583023396E+02 -0.59462272339E+01  0.18766443350E+03  0.18936108961E+03  0.00000000000E+00 0.  1.
         14    1    5    5    0    0  0.94670734917E+01  0.36254208310E+01  0.13202917820E+04  0.13203307005E+04  0.00000000000E+00 0. -1.
         13    1    3    3    0    0  0.53383755777E+02 -0.33964653589E+02 -0.61285101555E+03  0.61610858648E+03  0.00000000000E+00 0. -1.
        -14    1    3    3    0    0 -0.14373758285E+02 -0.33392058368E+02 -0.11471739050E+03  0.12033999406E+03  0.00000000000E+00 0.  1.
          5    1    4    4  501    0  0.43990028432E+02  0.62295958208E+02  0.86862390257E+02  0.11566527678E+03  0.41800000000E+01 0.  1.
         -5    1    4    4    0  501 -0.67884076019E+02  0.73815601527E+01  0.93668129889E+02  0.11599106071E+03  0.41800000000E+01 0.  1.
</event>
<event>
11    1  0.6625361E-009  0.1845960E+03  0.7561462E-02  0.1065985E+00
         22   -1    0    0    0    0  0.00000000000E+00  0.00000000000E+00  0.14694116143E+03  0.14694116143E+03  0.00000000000E+00 0.  1.
         22   -1    0    0    0    0 -0.00000000000E+00 -0.00000000000E+00 -0.20429816486E+04  0.20429816486E+04  0.00000000000E+00 0.  1.
         24    2    1    2    0    0  0.27380360050E+02  0.32759041912E+02 -0.15741662350E+04  0.15771488423E+04  0.87041922118E+02 0.  0.
         25    2    1    2    0    0  0.10517811021E+03 -0.69236244968E+02 -0.40128703691E+03  0.43878782945E+03  0.12508949118E+03 0.  0.
        -24    2    1    2    0    0 -0.13255847026E+03  0.36477203056E+02  0.79412784810E+02  0.17398613827E+03  0.71150906801E+02 0.  0.
        -13    1    3    3    0    0  0.18704116543E+02  0.81407298286E+01 -0.14556185986E+04  0.14557615258E+04  0.00000000000E+00 0.  1.
         14    1    3    3    0    0  0.86762435067E+01  0.24618312084E+02 -0.11854763640E+03  0.12138731642E+03  0.00000000000E+00 0. -1.
         13    1    5    5    0    0 -0.26812601281E+02 -0.15159533051E+02 -0.20369641701E+01  0.30868693734E+02  0.00000000000E+00 0. -1.
        -14    1    5    5    0    0 -0.10574586898E+03  0.51636736107E+02  0.81449748981E+02  0.14311744454E+03  0.00000000000E+00 0.  1.
          5    1    4    4  501    0  0.87921816638E+02 -0.10444216967E+03 -0.28593178154E+03  0.31687989640E+03  0.41800000000E+01 0. -1.
         -5    1    4    4    0  501  0.17256293574E+02  0.35205924698E+02 -0.11535525537E+03  0.12190793306E+03  0.41800000000E+01 0. -1.
</event>
<event>
11    1  0.6625361E-009  0.2434053E+03  0.7561462E-02  0.1027472E+00
         22   -1    0    0    0    0  0.00000000000E+00  0.00000000000E+00  0.43588456544E+03  0.43588456544E+03  0.00000000000E+00 0. -1.
         22   -1    0    0    0    0 -0.00000000000E+00 -0.00000000000E+00 -0.11286598560E+04  0.11286598560E+04  0.00000000000E+00 0. -1.
         24    2    1    2    0    0 -0.87910357213E+02  0.19429437007E+03 -0.10614291808E+04  0.10856553658E+04  0.80852547016E+02 0.  0.
         25    2    1    2    0    0  0.45481245171E+02 -0.12445769675E+03  0.16865892353E+03  0.24829695695E+03  0.12508910585E+03 0.  0.
        -24    2    1    2    0    0  0.42429112042E+02 -0.69836673319E+02  0.19999496668E+03  0.23059209870E+03  0.80606071724E+02 0.  0.
        -13    1    3    3    0    0 -0.15893977212E+02  0.39184361674E+02 -0.40920687861E+03  0.41138583132E+03  0.00000000000E+00 0.  1.
         14    1    3    3    0    0 -0.72016380002E+02  0.15511000839E+03 -0.65222230220E+03  0.67426953451E+03  0.00000000000E+00 0. -1.
         13    1    5    5    0    0  0.21077008917E+02 -0.84102876359E+02  0.17190756978E+03  0.19253505308E+03  0.00000000000E+00 0. -1.
        -14    1    5    5    0    0  0.21352103125E+02  0.14266203040E+02  0.28087396898E+02  0.38057045623E+02  0.00000000000E+00 0.  1.
          5    1    4    4  501    0  0.30410014478E+02 -0.77584098117E+02  0.12327102109E+02  0.84341514734E+02  0.41800000000E+01 0.  1.
         -5    1    4    4    0  501  0.15071230693E+02 -0.46873598629E+02  0.15633182142E+03  0.16395544221E+03  0.41800000000E+01 0.  1.
</event>
<event>
11    1  0.6625361E-009  0.1623422E+03  0.7561462E-02  0.1084895E+00
         22   -1    0    0    0    0  0.00000000000E+00  0.00000000000E+00  0.22120067474E+04  0.22120067474E+04  0.00000000000E+00 0. -1.
         22   -1    0    0    0    0 -0.00000000000E+00 -0.00000000000E+00 -0.76387891951E+03  0.76387891951E+03  0.00000000000E+00 0. -1.
        -24    2    1    2    0    0 -0.52632162284E+02 -0.88158052769E+02 -0.71650398543E+03  0.72833666948E+03  0.80958978476E+02 0.  0.
         25    2    1    2    0    0  0.73664001284E+02  0.10862331863E+03  0.16187645595E+03  0.24305634503E+03  0.12508792682E+03 0.  0.
         24    2    1    2    0    0 -0.21031839000E+02 -0.20465265856E+02  0.20027553574E+04  0.20044926524E+04  0.78106380349E+02 0.  0.
        -11    1    5    5    0    0  0.17123184206E+02 -0.29859108951E+02  0.48097410932E+03  0.48220417217E+03  0.00000000000E+00 0.  1.
         12    1    5    5    0    0 -0.38155023206E+02  0.93938430948E+01  0.15217812481E+04  0.15222884802E+04  0.00000000000E+00 0. -1.
         13    1    3    3    0    0 -0.68774117648E+02 -0.59500495397E+02 -0.40412400101E+03  0.41422988352E+03  0.00000000000E+00 0. -1.
        -14    1    3    3    0    0  0.16141955364E+02 -0.28657557372E+02 -0.31237998443E+03  0.31410678596E+03  0.00000000000E+00 0.  1.
          5    1    4    4  501    0 -0.86678984520E+01  0.68158043516E+02  0.15981454341E+02  0.70664918045E+02  0.41800000000E+01 0.  1.
         -5    1    4    4    0  501  0.82331899736E+02  0.40465275110E+02  0.14589500161E+03  0.17239142699E+03  0.41800000000E+01 0.  1.
</event>
<event>
11    1  0.6625361E-009  0.1601560E+03  0.7561462E-02  0.1086931E+00
         22   -1    0    0    0    0  0.00000000000E+00  0.00000000000E+00  0.14344512291E+04  0.14344512291E+04  0.00000000000E+00 0. -1.
         22   -1    0    0    0    0 -0.00000000000E+00 -0.00000000000E+00 -0.60708236589E+03  0.60708236589E+03  0.00000000000E+00 0.  1.
        -24    2    1    2    0    0 -0.31160518274E+02 -0.68092597422E+02 -0.57573085127E+03  0.58597794604E+03  0.79350869078E+02 0.  0.
         25    2    1    2    0    0  0.10497952582E+03  0.12059225549E+03  0.43596478506E+03  0.48091167099E+03  0.12509016171E+03 0.  0.
         24    2    1    2    0    0 -0.73819007543E+02 -0.52499658069E+02  0.96713492939E+03  0.97464397794E+03  0.79846428321E+02 0.  0.
        -13    1    5    5    0    0 -0.79547609211E+02 -0.24028927978E+02  0.52298233312E+03  0.52954294657E+03  0.00000000000E+00 0.  1.
         14    1    5    5    0    0  0.57286016682E+01 -0.28470730091E+02  0.44415259627E+03  0.44510103137E+03  0.00000000000E+00 0. -1.
         11    1    3    3    0    0 -0.15364619588E+02  0.90629866287E+00 -0.32725012276E+03  0.32761186755E+03  0.00000000000E+00 0. -1.
        -12    1    3    3    0    0 -0.15795898686E+02 -0.68998896085E+02 -0.24848072850E+03  0.25836607849E+03  0.00000000000E+00 0.  1.
          5    1    4    4  501    0  0.76251861162E+02  0.60396008937E+02  0.10470524799E+03  0.14297791991E+03  0.41800000000E+01 0. -1.
         -5    1    4    4    0  501  0.28727664654E+02  0.60196246553E+02  0.33125953707E+03  0.33793375107E+03  0.41800000000E+01 0. -1.
</event>
<event>
11    1  0.6625361E-009  0.1922996E+03  0.7561462E-02  0.1060107E+00
         22   -1    0    0    0    0  0.00000000000E+00  0.00000000000E+00  0.19639771686E+04  0.19639771686E+04  0.00000000000E+00 0. -1.
         22   -1    0    0    0    0 -0.00000000000E+00 -0.00000000000E+00 -0.10644652673E+03  0.10644652673E+03  0.00000000000E+00 0.  1.
         24    2    1    2    0    0  0.67004708465E+02  0.15803581628E+03  0.20574543313E+02  0.19064449228E+03  0.80355836252E+02 0.  0.
         25    2    1    2    0    0  0.98304277162E+02 -0.40505557117E+02  0.53294089934E+03  0.55765398190E+03  0.12509008865E+03 0.  0.
        -24    2    1    2    0    0 -0.16530898563E+03 -0.11753025916E+03  0.13040151992E+04  0.13221252211E+04  0.80118899395E+02 0.  0.
        -13    1    3    3    0    0  0.69999318335E+02  0.12477626551E+03 -0.12536048595E+02  0.14361815176E+03  0.00000000000E+00 0.  1.
         14    1    3    3    0    0 -0.29946098693E+01  0.33259550771E+02  0.33110591907E+02  0.47026340515E+02  0.00000000000E+00 0. -1.
         11    1    5    5    0    0 -0.74769260494E+02 -0.86313103667E+02  0.52700958849E+03  0.53923974310E+03  0.00000000000E+00 0. -1.
        -12    1    5    5    0    0 -0.90539725133E+02 -0.31217155496E+02  0.77700561072E+03  0.78288547803E+03  0.00000000000E+00 0.  1.
          5    1    4    4  501    0  0.77370200074E+02 -0.56070947340E+02  0.18093795146E+03  0.20466097252E+03  0.41800000000E+01 0.  1.
         -5    1    4    4    0  501  0.20934077088E+02  0.15565390222E+02  0.35200294788E+03  0.35299300938E+03  0.41800000000E+01 0.  1.
</event>
<event>
11    1  0.6625361E-009  0.1882205E+03  0.7561462E-02  0.1063181E+00
         22   -1    0    0    0    0  0.00000000000E+00  0.00000000000E+00  0.35648794584E+03  0.35648794584E+03  0.00000000000E+00 0. -1.
         22   -1    0    0    0    0 -0.00000000000E+00 -0.00000000000E+00 -0.36619392029E+03  0.36619392029E+03  0.00000000000E+00 0. -1.
         24    2    1    2    0    0 -0.44993308473E+02 -0.27387747833E+02 -0.17614607984E+03  0.20258504829E+03  0.85080983836E+02 0.  0.
         25    2    1    2    0    0 -0.50426947280E+02 -0.84151496905E+02 -0.11433435364E+03  0.19581511734E+03  0.12508742668E+03 0.  0.
        -24    2    1    2    0    0  0.95420255753E+02  0.11153924474E+03  0.28077445903E+03  0.32428170049E+03  0.69125220475E+02 0.  0.
        -11    1    3    3    0    0 -0.21061430405E+02 -0.51242327715E+02 -0.60189483468E+02  0.81805463879E+02  0.00000000000E+00 0.  1.
         12    1    3    3    0    0 -0.23931878068E+02  0.23854579882E+02 -0.11595659637E+03  0.12077958441E+03  0.00000000000E+00 0. -1.
         13    1    5    5    0    0  0.68361958483E+02  0.85597529404E+02  0.25831520720E+03  0.28058339345E+03  0.00000000000E+00 0. -1.
        -14    1    5    5    0    0  0.27058297270E+02  0.25941715333E+02  0.22459251824E+02  0.43698307039E+02  0.00000000000E+00 0.  1.
          5    1    4    4  501    0  0.27757158661E+00  0.26706208805E+02 -0.52525800037E+02  0.59073942684E+02  0.41800000000E+01 0. -1.
         -5    1    4    4    0  501 -0.50704518866E+02 -0.11085770571E+03 -0.61808553604E+02  0.13674117466E+03  0.41800000000E+01 0. -1.
</event>
<event>
11    1  0.6625361E-009  0.1318906E+03  0.7561462E-02  0.1116968E+00
         22   -1    0    0    0    0  0.00000000000E+00  0.00000000000E+00  0.14250712982E+03  0.14250712982E+03  0.00000000000E+00 0.  1.
         22   -1    0    0    0    0 -0.00000000000E+00 -0.00000000000E+00 -0.31659684237E+03  0.31659684237E+03  0.00000000000E+00 0.  1.
         24    2    1    2    0    0 -0.41850083946E+02 -0.19334799170E+01 -0.11243178730E+03  0.14525224607E+03  0.81866600764E+02 0.  0.
         25    2    1    2    0    0  0.38297824431E+02  0.23845925147E+02 -0.14405837259E+03  0.19605255828E+03  0.12509372243E+03 0.  0.
        -24    2    1    2    0    0  0.35522595144E+01 -0.21912445230E+02  0.82400447348E+02  0.11779916785E+03  0.81203672448E+02 0.  0.
        -13    1    3    3    0    0 -0.60361381932E+02  0.19551098769E+02 -0.81531372144E+02  0.10331072808E+03  0.00000000000E+00 0.  1.
         14    1    3    3    0    0  0.18511297986E+02 -0.21484578686E+02 -0.30900415159E+02  0.41941517992E+02  0.00000000000E+00 0. -1.
         11    1    5    5    0    0 -0.64589736029E+00  0.20928484417E+02 -0.39558509345E+01  0.21308857313E+02  0.00000000000E+00 0. -1.
        -12    1    5    5    0    0  0.41981568747E+01 -0.42840929646E+02  0.86356298282E+02  0.96490310535E+02  0.00000000000E+00 0.  1.
          5    1    4    4  501    0  0.65973839943E+02  0.56083651932E+02 -0.73849956205E+02  0.11388244818E+03  0.41800000000E+01 0. -1.
         -5    1    4    4    0  501 -0.27676015512E+02 -0.32237726785E+02 -0.70208416385E+02  0.82170110102E+02  0.41800000000E+01 0. -1.
</event>
<event>
11    1  0.6625361E-009  0.1690944E+03  0.7561462E-02  0.1078822E+00
         22   -1    0    0    0    0  0.00000000000E+00  0.00000000000E+00  0.15360309546E+03  0.15360309546E+03  0.00000000000E+00 0. -1.
         22   -1    0    0    0    0 -0.00000000000E+00 -0.00000000000E+00 -0.55177126863E+03  0.55177126863E+03  0.00000000000E+00 0.  1.
         24    2    1    2    0    0 -0.19330113360E+02 -0.36597539173E+01 -0.38565641057E+03  0.39451885964E+03  0.80791190841E+02 0.  0.
         25    2    1    2    0    0  0.12269275057E+03 -0.11248590195E+02  0.14474316134E+02  0.17617131691E+03  0.12508711065E+03 0.  0.
        -24    2    1    2    0    0 -0.10336263721E+03  0.14908344113E+02 -0.26986078737E+02  0.13468418755E+03  0.80656608125E+02 0.  0.
        -11    1    3    3    0    0 -0.34689549931E+02  0.24298150533E+02 -0.30256188247E+03  0.30551179636E+03  0.00000000000E+00 0.  1.
         12    1    3    3    0    0  0.15359436571E+02 -0.27957904450E+02 -0.83094528097E+02  0.89007063274E+02  0.00000000000E+00 0. -1.
         13    1    5    5    0    0 -0.23573836816E+02  0.36729794198E+02  0.88565965817E+01  0.44533615024E+02  0.00000000000E+00 0. -1.
        -14    1    5    5    0    0 -0.79788800396E+02 -0.21821450085E+02 -0.35842675319E+02  0.90150572524E+02  0.00000000000E+00 0.  1.
          5    1    4    4  501    0  0.11713917588E+03 -0.51179576249E+02  0.32265511545E+02  0.13190705510E+03  0.41800000000E+01 0.  1.
         -5    1    4    4    0  501  0.55535746915E+01  0.39930986054E+02 -0.17791195411E+02  0.44264261806E+02  0.41800000000E+01 0.  1.
</event>
<event>
11    1  0.6625361E-009  0.2353674E+03  0.7561462E-02  0.1031996E+00
         22   -1    0    0    0    0  0.00000000000E+00  0.00000000000E+00  0.14144506974E+04  0.14144506974E+04  0.00000000000E+00 0. -1.
         22   -1    0    0    0    0 -0.00000000000E+00 -0.00000000000E+00 -0.12949813678E+04  0.12949813678E+04  0.00000000000E+00 0. -1.
        -24    2    1    2    0    0  0.19361475342E+03 -0.48500480273E+02 -0.12202077959E+04  0.12393547233E+04  0.85170980151E+02 0.  0.
         25    2    1    2    0    0 -0.20986153345E+03 -0.45118917713E+02  0.18756799180E+03  0.31130200952E+03  0.12509839978E+03 0.  0.
         24    2    1    2    0    0  0.16246780036E+02  0.93619397987E+02  0.11521091337E+04  0.11587753324E+04  0.79851521666E+02 0.  0.
        -11    1    5    5    0    0  0.33075993505E+02  0.81952874721E+01  0.22200371631E+03  0.22460372690E+03  0.00000000000E+00 0.  1.
         12    1    5    5    0    0 -0.16829213469E+02  0.85424110515E+02  0.93010541737E+03  0.93417160549E+03  0.00000000000E+00 0. -1.
         13    1    3    3    0    0  0.14846126597E+03 -0.72989961792E+02 -0.95359940426E+03  0.96784301714E+03  0.00000000000E+00 0. -1.
        -14    1    3    3    0    0  0.45153487443E+02  0.24489481519E+02 -0.26660839159E+03  0.27151170619E+03  0.00000000000E+00 0.  1.
          5    1    4    4  501    0 -0.51933389517E+02 -0.15213297152E+02  0.12938704256E+03  0.14031037218E+03  0.41800000000E+01 0.  1.
         -5    1    4    4    0  501 -0.15792814394E+03 -0.29905620562E+02  0.58180949234E+02  0.17099163735E+03  0.41800000000E+01 0.  1.
</event>
<event>
11    1  0.6625361E-009  0.1517098E+03  0.7561462E-02  0.1095144E+00
         22   -1    0    0    0    0  0.00000000000E+00  0.00000000000E+00  0.74011389636E+03  0.74011389636E+03  0.00000000000E+00 0.  1.
         22   -1    0    0    0    0 -0.00000000000E+00 -0.00000000000E+00 -0.10748030934E+04  0.10748030934E+04  0.00000000000E+00 0.  1.
         24    2    1    2    0    0 -0.40227637082E+02  0.14498652297E+02 -0.97008682365E+03  0.97270307171E+03  0.57046880656E+02 0.  0.
         25    2    1    2    0    0  0.89352200965E+02  0.55201976433E+02 -0.30697198778E+02  0.16619556768E+03  0.12509026614E+03 0.  0.
        -24    2    1    2    0    0 -0.49124563883E+02 -0.69700628730E+02  0.66609482542E+03  0.67601835035E+03  0.77763057693E+02 0.  0.
        -11    1    3    3    0    0 -0.53966553580E+02  0.53519575916E+01 -0.68819743638E+03  0.69033089443E+03  0.00000000000E+00 0.  1.
         12    1    3    3    0    0  0.13738916498E+02  0.91466947057E+01 -0.28188938726E+03  0.28237217728E+03  0.00000000000E+00 0. -1.
         11    1    5    5    0    0 -0.44456614586E+02 -0.32340856646E+02  0.17383859651E+03  0.18232437913E+03  0.00000000000E+00 0. -1.
        -12    1    5    5    0    0 -0.46679492973E+01 -0.37359772084E+02  0.49225622891E+03  0.49369397122E+03  0.00000000000E+00 0.  1.
          5    1    4    4  501    0 -0.11152812548E+02  0.36767175237E+02  0.28509872371E+02  0.48025989061E+02  0.41800000000E+01 0.  1.
         -5    1    4    4    0  501  0.10050501351E+03  0.18434801195E+02 -0.59207071149E+02  0.11816957862E+03  0.41800000000E+01 0.  1.
</event>
<event>
11    1  0.6625361E-009  0.1670831E+03  0.7561462E-02  0.1080598E+00
         22   -1    0    0    0    0  0.00000000000E+00  0.00000000000E+00  0.20448732478E+04  0.20448732478E+04  0.00000000000E+00 0. -1.
         22   -1    0    0    0    0 -0.00000000000E+00 -0.00000000000E+00 -0.56230886773E+03  0.56230886773E+03  0.00000000000E+00 0. -1.
         24    2    1    2    0    0  0.95825884662E+02  0.52836514395E+02 -0.50050774100E+03  0.51857489204E+03  0.80234795634E+02 0.  0.
         25    2    1    2    0    0 -0.13354425189E+03 -0.38866507897E+02  0.11774848337E+03  0.22103495085E+03  0.12508825490E+03 0.  0.
        -24    2    1    2    0    0  0.37718367225E+02 -0.13970006498E+02  0.18653236377E+04  0.18675722726E+04  0.82316972018E+02 0.  0.
        -13    1    3    3    0    0  0.66031196708E+02  0.62924261552E+02 -0.25037149765E+03  0.26646851308E+03  0.00000000000E+00 0.  1.
         14    1    3    3    0    0  0.29794687954E+02 -0.10087747157E+02 -0.25013624335E+03  0.25210637896E+03  0.00000000000E+00 0. -1.
         11    1    5    5    0    0  0.51473607960E+02  0.66994926259E+01  0.16509252747E+04  0.16517411051E+04  0.00000000000E+00 0. -1.
        -12    1    5    5    0    0 -0.13755240735E+02 -0.20669499123E+02  0.21439836293E+03  0.21583116751E+03  0.00000000000E+00 0.  1.
          5    1    4    4  501    0 -0.11813152518E+02  0.45515181042E+01 -0.25057518960E+02  0.28383420264E+02  0.41800000000E+01 0. -1.
         -5    1    4    4    0  501 -0.12173109937E+03 -0.43418026001E+02  0.14280600233E+03  0.19265153058E+03  0.41800000000E+01 0. -1.
</event>
<event>
11    1  0.6625361E-009  0.1414921E+03  0.7561462E-02  0.1105904E+00
         22   -1    0    0    0    0  0.00000000000E+00  0.00000000000E+00  0.53040416329E+03  0.53040416329E+03  0.00000000000E+00 0.  1.
         22   -1    0    0    0    0 -0.00000000000E+00 -0.00000000000E+00 -0.39418111915E+03  0.39418111915E+03  0.00000000000E+00 0. -1.
        -24    2    1    2    0    0  0.55112766578E+02 -0.36712882909E+02 -0.36149159578E+03  0.37529048879E+03  0.76036335688E+02 0.  0.
         25    2    1    2    0    0 -0.70635978617E+02  0.59467815077E+01  0.29459592073E+03  0.32780734591E+03  0.12508434689E+03 0.  0.
         24    2    1    2    0    0  0.15523212039E+02  0.30766101401E+02  0.20311871919E+03  0.22148744774E+03  0.81313912171E+02 0.  0.
        -11    1    5    5    0    0  0.37076888902E+02  0.38667203942E+02  0.18391414472E+03  0.19155746130E+03  0.00000000000E+00 0.  1.
         12    1    5    5    0    0 -0.21553676864E+02 -0.79011025409E+01  0.19204574475E+02  0.29929986443E+02  0.00000000000E+00 0. -1.
         13    1    3    3    0    0  0.61942586704E+02 -0.81842454050E+01 -0.16160697063E+03  0.17326476525E+03  0.00000000000E+00 0. -1.
        -14    1    3    3    0    0 -0.68298201261E+01 -0.28528637504E+02 -0.19988462515E+03  0.20202572354E+03  0.00000000000E+00 0.  1.
          5    1    4    4  501    0  0.20068004569E+01  0.51592670954E+02  0.15965149518E+03  0.16784487855E+03  0.41800000000E+01 0. -1.
         -5    1    4    4    0  501 -0.72642779074E+02 -0.45645889447E+02  0.13494442555E+03  0.15996246735E+03  0.41800000000E+01 0. -1.
</event>
<event>
11    1  0.6625361E-009  0.1416211E+03  0.7561462E-02  0.1105762E+00
         22   -1    0    0    0    0  0.00000000000E+00  0.00000000000E+00  0.98060675600E+02  0.98060675600E+02  0.00000000000E+00 0.  1.
         22   -1    0    0    0    0 -0.00000000000E+00 -0.00000000000E+00 -0.51281929380E+03  0.51281929380E+03  0.00000000000E+00 0.  1.
        -24    2    1    2    0    0  0.50599706684E+02 -0.28155802947E+02 -0.29818152499E+03  0.31420130364E+03  0.80356442209E+02 0.  0.
         25    2    1    2    0    0 -0.46092427838E+02  0.86887393462E+02 -0.11319107084E+03  0.19528050915E+03  0.12509327596E+03 0.  0.
         24    2    1    2    0    0 -0.45072788462E+01 -0.58731590515E+02 -0.33860223702E+01  0.10139815661E+03  0.82464572576E+02 0.  0.
        -13    1    5    5    0    0 -0.26175950061E+02 -0.47061244786E+02  0.28651299665E+02  0.60998672894E+02  0.00000000000E+00 0.  1.
         14    1    5    5    0    0  0.21668671215E+02 -0.11670345729E+02 -0.32037322035E+02  0.40399483720E+02  0.00000000000E+00 0. -1.
         11    1    3    3    0    0 -0.10613853975E+02 -0.24250428784E+02 -0.34533184647E+02  0.43511814882E+02  0.00000000000E+00 0. -1.
        -12    1    3    3    0    0  0.61213560659E+02 -0.39053741623E+01 -0.26364834034E+03  0.27068948875E+03  0.00000000000E+00 0.  1.
          5    1    4    4  501    0 -0.43590257677E+02 -0.87137249497E+01  0.29838893277E+01  0.44748358209E+02  0.41800000000E+01 0.  1.
         -5    1    4    4    0  501 -0.25021701605E+01  0.95601118412E+02 -0.11617496017E+03  0.15053215094E+03  0.41800000000E+01 0.  1.
</event>
<event>
11    1  0.6625361E-009  0.1728438E+03  0.7561462E-02  0.1075583E+00
         22   -1    0    0    0    0  0.00000000000E+00  0.00000000000E+00  0.49574051192E+03  0.49574051192E+03  0.00000000000E+00 0. -1.
         22   -1    0    0    0    0 -0.00000000000E+00 -0.00000000000E+00 -0.62565809051E+03  0.62565809051E+03  0.00000000000E+00 0. -1.
         24    2    1    2    0    0  0.10163044754E+03  0.55566134402E+02 -0.51448817257E+03  0.53341151462E+03  0.80083837606E+02 0.  0.
         25    2    1    2    0    0 -0.16022110802E+03 -0.40393943953E+02  0.18081967795E+02  0.20803063098E+03  0.12508921498E+03 0.  0.
        -24    2    1    2    0    0  0.58590660477E+02 -0.15172190449E+02  0.36648862619E+03  0.37995645683E+03  0.79937069633E+02 0.  0.
        -11    1    3    3    0    0  0.39863609052E+02  0.12698277519E+02 -0.62484825677E+02  0.75197785995E+02  0.00000000000E+00 0.  1.
         12    1    3    3    0    0  0.61766838493E+02  0.42867856883E+02 -0.45200334690E+03  0.45821372862E+03  0.00000000000E+00 0. -1.
         13    1    5    5    0    0  0.75912149889E+02 -0.70724668939E+00  0.24881780165E+03  0.26014121764E+03  0.00000000000E+00 0. -1.
        -14    1    5    5    0    0 -0.17321489412E+02 -0.14464943760E+02  0.11767082454E+03  0.11981523919E+03  0.00000000000E+00 0.  1.
          5    1    4    4  501    0 -0.19899946587E+02 -0.74802875719E+01 -0.45537455083E+02  0.50429106593E+02  0.41800000000E+01 0.  1.
         -5    1    4    4    0  501 -0.14032116143E+03 -0.32913656381E+02  0.63619422878E+02  0.15760152439E+03  0.41800000000E+01 0.  1.
</event>
<event>
11    1  0.6625361E-009  0.1301208E+03  0.7561462E-02  0.1119121E+00
         22   -1    0    0    0    0  0.00000000000E+00  0.00000000000E+00  0.59677519228E+03  0.59677519228E+03  0.00000000000E+00 0. -1.
         22   -1    0    0    0    0 -0.00000000000E+00 -0.00000000000E+00 -0.47569872415E+03  0.47569872415E+03  0.00000000000E+00 0. -1.
        -24    2    1    2    0    0  0.17529032922E+02 -0.32377966334E+02 -0.44025074639E+03  0.44912252330E+03  0.80837624550E+02 0.  0.
         25    2    1    2    0    0  0.58444471257E+01  0.65612260012E+01  0.12084878963E+03  0.17415267551E+03  0.12509003630E+03 0.  0.
         24    2    1    2    0    0 -0.23373480048E+02  0.25816740333E+02  0.44047842490E+03  0.44919871762E+03  0.80903779029E+02 0.  0.
        -13    1    5    5    0    0 -0.22745258209E+02  0.44225950671E+02  0.14782899780E+03  0.15597017047E+03  0.00000000000E+00 0.  1.
         14    1    5    5    0    0 -0.62822183917E+00 -0.18409210338E+02  0.29264942709E+03  0.29322854715E+03  0.00000000000E+00 0. -1.
         13    1    3    3    0    0  0.30090910007E+02  0.17964685831E+02 -0.13397460064E+03  0.13848244084E+03  0.00000000000E+00 0. -1.
        -14    1    3    3    0    0 -0.12561877085E+02 -0.50342652166E+02 -0.30627614574E+03  0.31064008247E+03  0.00000000000E+00 0.  1.
          5    1    4    4  501    0  0.98808967768E+01 -0.98642942394E+01 -0.24098031704E+02  0.28162456462E+02  0.41800000000E+01 0.  1.
         -5    1    4    4    0  501 -0.40364496512E+01  0.16425520241E+02  0.14494682134E+03  0.14599021904E+03  0.41800000000E+01 0.  1.
</event>
<event>
11    1  0.6625361E-009  0.2080593E+03  0.7561462E-02  0.1048966E+00
         22   -1    0    0    0    0  0.00000000000E+00  0.00000000000E+00  0.18779245168E+03  0.18779245168E+03  0.00000000000E+00 0.  1.
         22   -1    0    0    0    0 -0.00000000000E+00 -0.00000000000E+00 -0.12538482927E+04  0.12538482927E+04  0.00000000000E+00 0.  1.
         24    2    1    2    0    0 -0.23891350232E+02 -0.16323353461E+03 -0.10161537347E+04  0.10326881726E+04  0.81611677272E+02 0.  0.
         25    2    1    2    0    0  0.14496902922E+03  0.15726094368E+03 -0.79582495664E+02  0.26024639824E+03  0.12509112814E+03 0.  0.
        -24    2    1    2    0    0 -0.12107767899E+03  0.59725909316E+01  0.29680389339E+02  0.14870617354E+03  0.80852485099E+02 0.  0.
        -11    1    3    3    0    0 -0.32330968038E+02 -0.15455881833E+03 -0.75908068235E+03  0.77533038257E+03  0.00000000000E+00 0.  1.
         12    1    3    3    0    0  0.84396178061E+01 -0.86747162881E+01 -0.25707305231E+03  0.25735779000E+03  0.00000000000E+00 0. -1.
         13    1    5    5    0    0 -0.12539852829E+03  0.14386069239E+01  0.74694025047E+01  0.12562902714E+03  0.00000000000E+00 0. -1.
        -14    1    5    5    0    0  0.43208493039E+01  0.45339840076E+01  0.22210986835E+02  0.23077146397E+02  0.00000000000E+00 0.  1.
          5    1    4    4  501    0  0.10900052162E+03  0.16648890710E+03 -0.35033401331E+02  0.20210017692E+03  0.41800000000E+01 0.  1.
         -5    1    4    4    0  501  0.35968507595E+02 -0.92279634194E+01 -0.44549094333E+02  0.58146221317E+02  0.41800000000E+01 0.  1.
</event>
<event>
11    1  0.6625361E-009  0.1931484E+03  0.7561462E-02  0.1059477E+00
         22   -1    0    0    0    0  0.00000000000E+00  0.00000000000E+00  0.21076737083E+03  0.21076737083E+03  0.00000000000E+00 0. -1.
         22   -1    0    0    0    0 -0.00000000000E+00 -0.00000000000E+00 -0.73801723214E+03  0.73801723214E+03  0.00000000000E+00 0. -1.
         24    2    1    2    0    0 -0.14701198993E+03 -0.22555432466E+02 -0.30038007009E+03  0.34226567128E+03  0.69255544991E+02 0.  0.
         25    2    1    2    0    0  0.13870536810E+03  0.47831031354E+02 -0.38279413306E+03  0.42860684340E+03  0.12508193798E+03 0.  0.
        -24    2    1    2    0    0  0.83066218314E+01 -0.25275598888E+02  0.15592434183E+03  0.17791208829E+03  0.81439885298E+02 0.  0.
        -13    1    3    3    0    0 -0.13970222451E+02  0.14134030266E+02 -0.13824508962E+02  0.24208572344E+02  0.00000000000E+00 0.  1.
         14    1    3    3    0    0 -0.13304176748E+03 -0.36689462732E+02 -0.28655556113E+03  0.31805709894E+03  0.00000000000E+00 0. -1.
         13    1    5    5    0    0 -0.50132659640E+01 -0.19470191119E+02  0.16120373239E+03  0.16245265315E+03  0.00000000000E+00 0. -1.
        -14    1    5    5    0    0  0.13319887795E+02 -0.58054077689E+01 -0.52793905564E+01  0.15459435141E+02  0.00000000000E+00 0.  1.
          5    1    4    4  501    0  0.57545244530E+02  0.52245245805E+02 -0.67660367561E+02  0.10313301419E+03  0.41800000000E+01 0.  1.
         -5    1    4    4    0  501  0.81160123571E+02 -0.44142144512E+01 -0.31513376550E+03  0.32547382921E+03  0.41800000000E+01 0.  1.
</event>
<event>
11    1  0.6625361E-009  0.1987467E+03  0.7561462E-02  0.1055413E+00
         22   -1    0    0    0    0  0.00000000000E+00  0.00000000000E+00  0.28676773940E+03  0.28676773940E+03  0.00000000000E+00 0. -1.
         22   -1    0    0    0    0 -0.00000000000E+00 -0.00000000000E+00 -0.12268413138E+04  0.12268413138E+04  0.00000000000E+00 0.  1.
         24    2    1    2    0    0  0.13599160836E+03 -0.86503774132E+02 -0.10233431813E+04  0.10389774257E+04  0.79159357726E+02 0.  0.
         25    2    1    2    0    0 -0.62689451954E+02  0.11395163899E+03 -0.13726932940E+03  0.22672754091E+03  0.12509022983E+03 0.  0.
        -24    2    1    2    0    0 -0.73302156402E+02 -0.27447864859E+02  0.22053893630E+03  0.24790408659E+03  0.81807226480E+02 0.  0.
        -13    1    3    3    0    0  0.58061679417E+02 -0.42778279131E+02 -0.24133530626E+03  0.25188066585E+03  0.00000000000E+00 0.  1.
         14    1    3    3    0    0  0.77929928939E+02 -0.43725495001E+02 -0.78200787504E+03  0.78709675985E+03  0.00000000000E+00 0. -1.
         11    1    5    5    0    0 -0.15561618181E+02 -0.69564863774E+01  0.16288400454E+03  0.16377348869E+03  0.00000000000E+00 0. -1.
        -12    1    5    5    0    0 -0.57740538221E+02 -0.20491378481E+02  0.57654931756E+02  0.84130597893E+02  0.00000000000E+00 0.  1.
          5    1    4    4  501    0 -0.78064815729E+01 -0.23225401086E+02  0.22416035848E+00  0.24857253630E+02  0.41800000000E+01 0. -1.
         -5    1    4    4    0  501 -0.54882970381E+02  0.13717704008E+03 -0.13749348975E+03  0.20187028728E+03  0.41800000000E+01 0. -1.
</event>
<event>
11    1  0.6625361E-009  0.1997066E+03  0.7561462E-02  0.1054731E+00
         22   -1    0    0    0    0  0.00000000000E+00  0.00000000000E+00  0.44807861097E+03  0.44807861097E+03  0.00000000000E+00 0.  1.
         22   -1    0    0    0    0 -0.00000000000E+00 -0.00000000000E+00 -0.11581275599E+04  0.11581275599E+04  0.00000000000E+00 0.  1.
         24    2    1    2    0    0 -0.28297200626E+02  0.65209717244E+01 -0.95161695777E+03  0.95543979496E+03  0.80293915426E+02 0.  0.
         25    2    1    2    0    0 -0.11116709812E+02  0.14539049020E+03 -0.13510653859E+03  0.23486991020E+03  0.12509245408E+03 0.  0.
        -24    2    1    2    0    0  0.39413910438E+02 -0.15191146192E+03  0.37667454742E+03  0.41589646572E+03  0.80346791635E+02 0.  0.
        -13    1    3    3    0    0 -0.19395502512E+02  0.33574408812E+02 -0.81316519530E+03  0.81408909911E+03  0.00000000000E+00 0.  1.
         14    1    3    3    0    0 -0.89016981140E+01 -0.27053437088E+02 -0.13845176247E+03  0.14135069585E+03  0.00000000000E+00 0. -1.
         11    1    5    5    0    0 -0.12483389655E+02 -0.13729907972E+02  0.11040947843E+02  0.21592774705E+02  0.00000000000E+00 0. -1.
        -12    1    5    5    0    0  0.51897300094E+02 -0.13818155395E+03  0.36563359957E+03  0.39430369101E+03  0.00000000000E+00 0.  1.
          5    1    4    4  501    0 -0.67096814191E+02  0.90265290591E+02 -0.68267797823E+02  0.13163498691E+03  0.41800000000E+01 0. -1.
         -5    1    4    4    0  501  0.55980104378E+02  0.55125199606E+02 -0.66838740767E+02  0.10323492328E+03  0.41800000000E+01 0. -1.
</event>
<event>
11    1  0.6625361E-009  0.1297959E+03  0.7561462E-02  0.1119520E+00
         22   -1    0    0    0    0  0.00000000000E+00  0.00000000000E+00  0.11237553655E+03  0.11237553655E+03  0.00000000000E+00 0.  1.
         22   -1    0    0    0    0 -0.00000000000E+00 -0.00000000000E+00 -0.10925188913E+04  0.10925188913E+04  0.00000000000E+00 0.  1.
        -24    2    1    2    0    0 -0.29165766265E+02 -0.12966120572E+02 -0.84718674751E+03  0.85169859328E+03  0.81525127657E+02 0.  0.
         25    2    1    2    0    0  0.61207696471E+02  0.12969046252E+02 -0.19922118688E+03  0.24341306010E+03  0.12508500414E+03 0.  0.
         24    2    1    2    0    0 -0.32041930206E+02 -0.29256794635E-02  0.66264579632E+02  0.10978277448E+03  0.81452917434E+02 0.  0.
        -11    1    5    5    0    0 -0.28926220457E+02  0.21321715684E+02  0.77538584678E+02  0.85460949583E+02  0.00000000000E+00 0.  1.
         12    1    5    5    0    0 -0.31157097494E+01 -0.21324641363E+02 -0.11274005046E+02  0.24321824896E+02  0.00000000000E+00 0. -1.
         11    1    3    3    0    0 -0.57426307256E+02 -0.27975711076E+01 -0.54737113164E+03  0.55038237882E+03  0.00000000000E+00 0. -1.
        -12    1    3    3    0    0  0.28260540992E+02 -0.10168549465E+02 -0.29981561587E+03  0.30131621446E+03  0.00000000000E+00 0.  1.
          5    1    4    4  501    0 -0.11681854896E+02  0.48222552146E+02 -0.12061080358E+03  0.13048493633E+03  0.41800000000E+01 0.  1.
         -5    1    4    4    0  501  0.72889551367E+02 -0.35253505894E+02 -0.78610383301E+02  0.11292812377E+03  0.41800000000E+01 0.  1.
</event>
<event>
11    1  0.6625361E-009  0.1397961E+03  0.7561462E-02  0.1107786E+00
         22   -1    0    0    0    0  0.00000000000E+00  0.00000000000E+00  0.10082481833E+03  0.10082481833E+03  0.00000000000E+00 0. -1.
         22   -1    0    0    0    0 -0.00000000000E+00 -0.00000000000E+00 -0.41059069141E+03  0.41059069141E+03  0.00000000000E+00 0.  1.
         24    2    1    2    0    0  0.34036712817E+01 -0.25100451058E+02 -0.20842372598E+03  0.22508361558E+03  0.81120692980E+02 0.  0.
         25    2    1    2    0    0 -0.21654580476E+01  0.82094716656E+02 -0.11573669202E+03  0.18919346769E+03  0.12511976113E+03 0.  0.
        -24    2    1    2    0    0 -0.12382132341E+01 -0.56994265599E+02  0.14394544919E+02  0.97138426480E+02  0.77322645405E+02 0.  0.
        -13    1    3    3    0    0  0.17151915900E+02 -0.32456469990E+02 -0.20607028838E+03  0.20931453465E+03  0.00000000000E+00 0.  1.
         14    1    3    3    0    0 -0.13748244619E+02  0.73560189323E+01 -0.23534375937E+01  0.15769080922E+02  0.00000000000E+00 0. -1.
         13    1    5    5    0    0  0.36654036870E+02 -0.32492803053E+02  0.17232739675E+02  0.51925600486E+02  0.00000000000E+00 0. -1.
        -14    1    5    5    0    0 -0.37892250104E+02 -0.24501462546E+02 -0.28381947559E+01  0.45212825994E+02  0.00000000000E+00 0.  1.
          5    1    4    4  501    0 -0.35670645713E+02  0.62736665880E+02 -0.12916792199E+03  0.14802063600E+03  0.41800000000E+01 0.  1.
         -5    1    4    4    0  501  0.33505187665E+02  0.19358050776E+02  0.13431229971E+02  0.41172831684E+02  0.41800000000E+01 0.  1.
</event>
<event>
11    1  0.6625361E-009  0.1636857E+03  0.7561462E-02  0.1083661E+00
         22   -1    0    0    0    0  0.00000000000E+00  0.00000000000E+00  0.72054478009E+03  0.72054478009E+03  0.00000000000E+00 0. -1.
         22   -1    0    0    0    0 -0.00000000000E+00 -0.00000000000E+00 -0.10324877311E+04  0.10324877311E+04  0.00000000000E+00 0. -1.
        -24    2    1    2    0    0  0.20941300617E+02 -0.98830946357E+02 -0.84621861038E+03  0.85596721330E+03  0.79923961722E+02 0.  0.
         25    2    1    2    0    0 -0.33427164345E+02  0.15590015315E+03 -0.11980732711E+03  0.23542402851E+03  0.12509374287E+03 0.  0.
         24    2    1    2    0    0  0.12485863728E+02 -0.57069206793E+02  0.65408298650E+03  0.66164126936E+03  0.80819706331E+02 0.  0.
        -11    1    5    5    0    0 -0.10356401253E+02  0.18121302690E+02  0.11854631901E+03  0.12036970719E+03  0.00000000000E+00 0.  1.
         12    1    5    5    0    0  0.22842264981E+02 -0.75190509482E+02  0.53553666749E+03  0.54127156217E+03  0.00000000000E+00 0. -1.
         13    1    3    3    0    0  0.27188085125E+02 -0.10573738706E+03 -0.83088617175E+03  0.83802829153E+03  0.00000000000E+00 0. -1.
        -14    1    3    3    0    0 -0.62467845080E+01  0.69064407067E+01 -0.15332438633E+02  0.17938921773E+02  0.00000000000E+00 0.  1.
          5    1    4    4  501    0  0.17318609808E+02  0.86513686863E+02 -0.12043907030E+03  0.14935727072E+03  0.41800000000E+01 0.  1.
         -5    1    4    4    0  501 -0.50745774153E+02  0.69386466287E+02  0.63174319840E+00  0.86066757796E+02  0.41800000000E+01 0.  1.
</event>
<event>
11    1  0.6625361E-009  0.1777096E+03  0.7561462E-02  0.1071511E+00
         22   -1    0    0    0    0  0.00000000000E+00  0.00000000000E+00  0.25620537730E+04  0.25620537730E+04  0.00000000000E+00 0.  1.
         22   -1    0    0    0    0 -0.00000000000E+00 -0.00000000000E+00 -0.23275305351E+03  0.23275305351E+03  0.00000000000E+00 0. -1.
         24    2    1    2    0    0 -0.64504192116E+02  0.10535249048E+03 -0.17962542504E+03  0.23229225960E+03  0.80215101453E+02 0.  0.
         25    2    1    2    0    0  0.11357533448E+03 -0.13264925316E+03  0.42385280705E+03  0.47517243648E+03  0.12506982599E+03 0.  0.
        -24    2    1    2    0    0 -0.49071142364E+02  0.27296762678E+02  0.20850733375E+04  0.20873421304E+04  0.79456003755E+02 0.  0.
        -11    1    3    3    0    0  0.14393975200E+02  0.34698083463E+01 -0.38178405275E+02  0.40948952628E+02  0.00000000000E+00 0.  1.
         12    1    3    3    0    0 -0.78898167316E+02  0.10188268214E+03 -0.14144701976E+03  0.19134330698E+03  0.00000000000E+00 0. -1.
         11    1    5    5    0    0 -0.25983453053E+02  0.51107231141E+02  0.91219980203E+03  0.91399976353E+03  0.00000000000E+00 0. -1.
        -12    1    5    5    0    0 -0.23087689311E+02 -0.23810468462E+02  0.11728735355E+04  0.11733423669E+04  0.00000000000E+00 0.  1.
          5    1    4    4  501    0  0.96190028039E+02 -0.98480111760E+02  0.17181643443E+03  0.22020266449E+03  0.41800000000E+01 0.  1.
         -5    1    4    4    0  501  0.17385306441E+02 -0.34169141403E+02  0.25203637262E+03  0.25496977199E+03  0.41800000000E+01 0.  1.
</event>
<event>
11    1  0.6625361E-009  0.2344938E+03  0.7561462E-02  0.1032500E+00
         22   -1    0    0    0    0  0.00000000000E+00  0.00000000000E+00  0.22732578792E+03  0.22732578792E+03  0.00000000000E+00 0. -1.
         22   -1    0    0    0    0 -0.00000000000E+00 -0.00000000000E+00 -0.17527674214E+04  0.17527674214E+04  0.00000000000E+00 0.  1.
         24    2    1    2    0    0  0.49369653667E+02  0.20039390573E+03 -0.15351463732E+04  0.15510143260E+04  0.79849685704E+02 0.  0.
         25    2    1    2    0    0 -0.16794920618E+03 -0.65883971532E+02 -0.47752228475E+02  0.22466847267E+03  0.12509202104E+03 0.  0.
        -24    2    1    2    0    0  0.11857955251E+03 -0.13450993420E+03  0.57456968190E+02  0.20441041060E+03  0.79550487727E+02 0.  0.
        -11    1    3    3    0    0  0.36247034841E+02  0.17935688289E+03 -0.14693748622E+04  0.14807245607E+04  0.00000000000E+00 0.  1.
         12    1    3    3    0    0  0.13122618826E+02  0.21037022843E+02 -0.65771511021E+02  0.70289765378E+02  0.00000000000E+00 0. -1.
         13    1    5    5    0    0  0.12213317097E+03 -0.91645160474E+02  0.50575560092E+02  0.16085159051E+03  0.00000000000E+00 0. -1.
        -14    1    5    5    0    0 -0.35536184632E+01 -0.42864773725E+02  0.68814080982E+01  0.43558820095E+02  0.00000000000E+00 0.  1.
          5    1    4    4  501    0 -0.49736654180E+02  0.12600657113E+02 -0.63608923277E+02  0.81829571972E+02  0.41800000000E+01 0. -1.
         -5    1    4    4    0  501 -0.11821255200E+03 -0.78484628645E+02  0.15856694802E+02  0.14283890070E+03  0.41800000000E+01 0. -1.
</event>
<event>
11    1  0.6625361E-009  0.1459894E+03  0.7561462E-02  0.1101049E+00
         22   -1    0    0    0    0  0.00000000000E+00  0.00000000000E+00  0.13002692637E+03  0.13002692637E+03  0.00000000000E+00 0.  1.
         22   -1    0    0    0    0 -0.00000000000E+00 -0.00000000000E+00 -0.44877780239E+04  0.44877780239E+04  0.00000000000E+00 0. -1.
        -24    2    1    2    0    0  0.32804501828E+02 -0.68075156609E+02 -0.39254146333E+04  0.39269608315E+04  0.80193307627E+02 0.  0.
         25    2    1    2    0    0  0.31419024743E+02  0.91564778382E+02 -0.52651049639E+03  0.54975655022E+03  0.12509075882E+03 0.  0.
         24    2    1    2    0    0 -0.64223526571E+02 -0.23489621772E+02  0.94174032116E+02  0.14108756858E+03  0.79752930899E+02 0.  0.
        -13    1    5    5    0    0 -0.77339507986E+02 -0.26125135256E+01  0.84560916908E+02  0.11462448862E+03  0.00000000000E+00 0.  1.
         14    1    5    5    0    0  0.13115981415E+02 -0.20877108247E+02  0.96131152081E+01  0.26463079965E+02  0.00000000000E+00 0. -1.
         11    1    3    3    0    0  0.76422385563E+01 -0.79561920616E+02 -0.32449974533E+04  0.32459816658E+04  0.00000000000E+00 0. -1.
        -12    1    3    3    0    0  0.25162263272E+02  0.11486764006E+02 -0.68041717996E+03  0.68097916563E+03  0.00000000000E+00 0.  1.
          5    1    4    4  501    0  0.40417144452E+01 -0.31494387101E+02 -0.10914198990E+03  0.11374391515E+03  0.41800000000E+01 0. -1.
         -5    1    4    4    0  501  0.27377310298E+02  0.12305916548E+03 -0.41736850649E+03  0.43601263507E+03  0.41800000000E+01 0. -1.
</event>
<event>
11    1  0.6625361E-009  0.1401255E+03  0.7561462E-02  0.1107418E+00
         22   -1    0    0    0    0  0.00000000000E+00  0.00000000000E+00  0.27560551008E+03  0.27560551008E+03  0.00000000000E+00 0. -1.
         22   -1    0    0    0    0 -0.00000000000E+00 -0.00000000000E+00 -0.23114926107E+04  0.23114926107E+04  0.00000000000E+00 0.  1.
         24    2    1    2    0    0  0.18960757061E+02  0.60212543934E+02 -0.22593381100E+04  0.22616346983E+04  0.79985954217E+02 0.  0.
         25    2    1    2    0    0 -0.37846466800E+02 -0.56569690614E+02  0.92699717266E+02  0.16992166177E+03  0.12509056165E+03 0.  0.
        -24    2    1    2    0    0  0.18885709739E+02 -0.36428533199E+01  0.13075129203E+03  0.15554176072E+03  0.82020720233E+02 0.  0.
        -11    1    3    3    0    0  0.24130827358E+02  0.73335126873E+02 -0.21506499016E+04  0.21520351616E+04  0.00000000000E+00 0.  1.
         12    1    3    3    0    0 -0.51700702962E+01 -0.13122582939E+02 -0.10868820836E+03  0.10959953671E+03  0.00000000000E+00 0. -1.
         11    1    5    5    0    0  0.45350736656E+02  0.13216803132E+02  0.49407880654E+02  0.68355774233E+02  0.00000000000E+00 0. -1.
        -12    1    5    5    0    0 -0.26465026917E+02 -0.16859656452E+02  0.81343411375E+02  0.87185986486E+02  0.00000000000E+00 0.  1.
          5    1    4    4  501    0 -0.62554759913E+01  0.26273349147E+02  0.74445692726E+02  0.79303552384E+02  0.41800000000E+01 0. -1.
         -5    1    4    4    0  501 -0.31590990809E+02 -0.82843039761E+02  0.18254024540E+02  0.90618109388E+02  0.41800000000E+01 0. -1.
</event>
<event>
11    1  0.6625361E-009  0.1408787E+03  0.7561462E-02  0.1106581E+00
         22   -1    0    0    0    0  0.00000000000E+00  0.00000000000E+00  0.34936179240E+03  0.34936179240E+03  0.00000000000E+00 0.  1.
         22   -1    0    0    0    0 -0.00000000000E+00 -0.00000000000E+00 -0.38119217771E+03  0.38119217771E+03  0.00000000000E+00 0.  1.
        -24    2    1    2    0    0 -0.42239097131E+02  0.24997166655E+02 -0.31026095026E+03  0.32423966197E+03  0.80377244724E+02 0.  0.
         25    2    1    2    0    0 -0.26356475139E+02 -0.41817986719E+02  0.32856247513E+02  0.13846078068E+03  0.12509375281E+03 0.  0.
         24    2    1    2    0    0  0.68595572269E+02  0.16820820064E+02  0.24557431744E+03  0.26785352746E+03  0.80314844616E+02 0.  0.
        -13    1    5    5    0    0  0.38729422431E+02 -0.68302729093E+01  0.21619880272E+03  0.21974654283E+03  0.00000000000E+00 0.  1.
         14    1    5    5    0    0  0.29866149838E+02  0.23651092973E+02  0.29375514718E+02  0.48106984627E+02  0.00000000000E+00 0. -1.
         11    1    3    3    0    0  0.20609626116E+02  0.20102131461E+02 -0.13364223313E+03  0.13670807897E+03  0.00000000000E+00 0. -1.
        -12    1    3    3    0    0 -0.62848723247E+02  0.48950351941E+01 -0.17661871713E+03  0.18753158300E+03  0.00000000000E+00 0.  1.
          5    1    4    4  501    0 -0.41777653589E+02  0.29702144804E+02  0.39541079770E+02  0.64873408533E+02  0.41800000000E+01 0.  1.
         -5    1    4    4    0  501  0.15421178450E+02 -0.71520131523E+02 -0.66848322566E+01  0.73587372152E+02  0.41800000000E+01 0.  1.
</event>
<event>
11    1  0.6625361E-009  0.1727011E+03  0.7561462E-02  0.1075705E+00
         22   -1    0    0    0    0  0.00000000000E+00  0.00000000000E+00  0.72673879107E+03  0.72673879107E+03  0.00000000000E+00 0. -1.
         22   -1    0    0    0    0 -0.00000000000E+00 -0.00000000000E+00 -0.28834314759E+03  0.28834314759E+03  0.00000000000E+00 0.  1.
         24    2    1    2    0    0  0.80887429176E+02 -0.62924058157E+02 -0.16989302631E+03  0.21478576536E+03  0.82262210774E+02 0.  0.
         25    2    1    2    0    0 -0.15609042008E+02  0.16124498665E+03  0.32566463061E+02  0.20724975641E+03  0.12509316170E+03 0.  0.
        -24    2    1    2    0    0 -0.65278387169E+02 -0.98320928488E+02  0.57572220673E+03  0.59304641689E+03  0.79496669452E+02 0.  0.
        -11    1    3    3    0    0  0.43789779572E+02 -0.69203747175E+02 -0.15300694521E+03  0.17354488958E+03  0.00000000000E+00 0.  1.
         12    1    3    3    0    0  0.37097649605E+02  0.62796890177E+01 -0.16886081098E+02  0.41240875781E+02  0.00000000000E+00 0. -1.
         11    1    5    5    0    0 -0.72241682779E+02 -0.99902378640E+02  0.57171811352E+03  0.58485976722E+03  0.00000000000E+00 0. -1.
        -12    1    5    5    0    0  0.69632956104E+01  0.15814501516E+01  0.40040932093E+01  0.81866496669E+01  0.00000000000E+00 0.  1.
          5    1    4    4  501    0 -0.36274545397E+02  0.11283036369E+03 -0.32966641101E+02  0.12308860808E+03  0.41800000000E+01 0. -1.
         -5    1    4    4    0  501  0.20665503389E+02  0.48414622956E+02  0.65533104162E+02  0.84161148325E+02  0.41800000000E+01 0. -1.
</event>
<event>
11    1  0.6625361E-009  0.1505835E+03  0.7561462E-02  0.1096284E+00
         22   -1    0    0    0    0  0.00000000000E+00  0.00000000000E+00  0.71543397418E+03  0.71543397418E+03  0.00000000000E+00 0.  1.
         22   -1    0    0    0    0 -0.00000000000E+00 -0.00000000000E+00 -0.15056783951E+04  0.15056783951E+04  0.00000000000E+00 0. -1.
        -24    2    1    2    0    0 -0.61758160983E+02  0.56223897442E+02 -0.14686624451E+04  0.14731107560E+04  0.78171123259E+02 0.  0.
         25    2    1    2    0    0  0.72917873177E+02 -0.10455537174E+03  0.24671728151E+03  0.30457144781E+03  0.12508200445E+03 0.  0.
         24    2    1    2    0    0 -0.11159712194E+02  0.48331474298E+02  0.43170074269E+03  0.44343016551E+03  0.88342005052E+02 0.  0.
        -13    1    5    5    0    0 -0.15330380427E+02  0.44931484866E+02  0.43468991235E+03  0.43727471777E+03  0.00000000000E+00 0.  1.
         14    1    5    5    0    0  0.41706682334E+01  0.33999894320E+01 -0.29891696594E+01  0.61554477419E+01  0.00000000000E+00 0. -1.
         11    1    3    3    0    0 -0.43270289495E+02  0.29295890390E+02 -0.13139101722E+04  0.13149488613E+04  0.00000000000E+00 0. -1.
        -12    1    3    3    0    0 -0.18487871489E+02  0.26928007053E+02 -0.15475227291E+03  0.15816189468E+03  0.00000000000E+00 0.  1.
          5    1    4    4  501    0  0.53060503291E+02 -0.12587587699E+02  0.18586801333E+02  0.57765092896E+02  0.41800000000E+01 0.  1.
         -5    1    4    4    0  501  0.19857369886E+02 -0.91967784041E+02  0.22813048017E+03  0.24680635491E+03  0.41800000000E+01 0.  1.
</event>
<event>
11    1  0.6625361E-009  0.1458742E+03  0.7561462E-02  0.1101171E+00
         22   -1    0    0    0    0  0.00000000000E+00  0.00000000000E+00  0.48425418951E+03  0.48425418951E+03  0.00000000000E+00 0.  1.
         22   -1    0    0    0    0 -0.00000000000E+00 -0.00000000000E+00 -0.79797226802E+03  0.79797226802E+03  0.00000000000E+00 0.  1.
        -24    2    1    2    0    0  0.19843298575E+02 -0.50207131436E+02 -0.75552037634E+03  0.76160120539E+03  0.79440823600E+02 0.  0.
         25    2    1    2    0    0 -0.39738515041E+02  0.10609854682E+03  0.22690090435E+03  0.28279028414E+03  0.12510105194E+03 0.  0.
         24    2    1    2    0    0  0.19895216466E+02 -0.55891415382E+02  0.21490139348E+03  0.23783496800E+03  0.82844391069E+02 0.  0.
        -11    1    5    5    0    0  0.25596236548E+01 -0.47462156357E+02  0.21325582693E+03  0.21848857105E+03  0.00000000000E+00 0.  1.
         12    1    5    5    0    0  0.17335592811E+02 -0.84292590254E+01  0.16455665551E+01  0.19346396955E+02  0.00000000000E+00 0. -1.
         13    1    3    3    0    0  0.44349711577E+02 -0.15900590392E+02 -0.25557883964E+03  0.25988510723E+03  0.00000000000E+00 0. -1.
        -14    1    3    3    0    0 -0.24506413002E+02 -0.34306541044E+02 -0.49994153670E+03  0.50171609816E+03  0.00000000000E+00 0.  1.
          5    1    4    4  501    0 -0.35312278988E+02  0.11541934914E+03  0.10398266348E+03  0.15936891136E+03  0.41800000000E+01 0.  1.
         -5    1    4    4    0  501 -0.44262360539E+01 -0.93208023207E+01  0.12291824087E+03  0.12342137278E+03  0.41800000000E+01 0.  1.
</event>
<event>
11    1  0.6625361E-009  0.1423675E+03  0.7561462E-02  0.1104943E+00
         22   -1    0    0    0    0  0.00000000000E+00  0.00000000000E+00  0.44063096993E+03  0.44063096993E+03  0.00000000000E+00 0. -1.
         22   -1    0    0    0    0 -0.00000000000E+00 -0.00000000000E+00 -0.26284791419E+03  0.26284791419E+03  0.00000000000E+00 0. -1.
         24    2    1    2    0    0  0.14572298330E+02  0.29940617958E+02 -0.18631689002E+03  0.20481878105E+03  0.78281269032E+02 0.  0.
         25    2    1    2    0    0 -0.79895350239E+02 -0.37775719365E+02  0.39301375944E+02  0.15812053567E+03  0.12508890313E+03 0.  0.
        -24    2    1    2    0    0  0.65323051909E+02  0.78351014075E+01  0.32479856982E+03  0.34053956740E+03  0.78387474035E+02 0.  0.
        -11    1    3    3    0    0  0.13932964639E+02 -0.19256811973E+02 -0.19035161411E+02  0.30451431509E+02  0.00000000000E+00 0.  1.
         12    1    3    3    0    0  0.63933369101E+00  0.49197429930E+02 -0.16728172861E+03  0.17436734954E+03  0.00000000000E+00 0. -1.
         11    1    5    5    0    0  0.79393916191E+02  0.16847411611E+02  0.29886142146E+03  0.30968593517E+03  0.00000000000E+00 0. -1.
        -12    1    5    5    0    0 -0.14070864281E+02 -0.90123102037E+01  0.25937148356E+02  0.30853632228E+02  0.00000000000E+00 0.  1.
          5    1    4    4  501    0  0.19365135694E+02 -0.48782992114E+02  0.19968860932E+02  0.56311780357E+02  0.41800000000E+01 0. -1.
         -5    1    4    4    0  501 -0.99260485933E+02  0.11007272749E+02  0.19332515012E+02  0.10180875531E+03  0.41800000000E+01 0. -1.
</event>
<event>
11    1  0.6625361E-009  0.1387926E+03  0.7561462E-02  0.1108914E+00
         22   -1    0    0    0    0  0.00000000000E+00  0.00000000000E+00  0.35889533682E+03  0.35889533682E+03  0.00000000000E+00 0. -1.
         22   -1    0    0    0    0 -0.00000000000E+00 -0.00000000000E+00 -0.18539613100E+04  0.18539613100E+04  0.00000000000E+00 0.  1.
         24    2    1    2    0    0  0.29358754489E+01  0.57238932247E+02 -0.15687277485E+04  0.15717868288E+04  0.79512084299E+02 0.  0.
         25    2    1    2    0    0  0.53600901339E+02 -0.35042927944E+02 -0.25838431325E+03  0.29412751156E+03  0.12508987289E+03 0.  0.
        -24    2    1    2    0    0 -0.56536776788E+02 -0.22196004303E+02  0.33204608857E+03  0.34694230645E+03  0.80157902524E+02 0.  0.
        -13    1    3    3    0    0  0.16496685010E+02  0.10980571920E+02 -0.11682854055E+04  0.11684534660E+04  0.00000000000E+00 0.  1.
         14    1    3    3    0    0 -0.13560809561E+02  0.46258360327E+02 -0.40044234301E+03  0.40333336278E+03  0.00000000000E+00 0. -1.
         11    1    5    5    0    0  0.71292018828E+01 -0.33771124081E+02  0.14381653467E+03  0.14790033802E+03  0.00000000000E+00 0. -1.
        -12    1    5    5    0    0 -0.63665978671E+02  0.11575119779E+02  0.18822955390E+03  0.19904196844E+03  0.00000000000E+00 0.  1.
          5    1    4    4  501    0  0.40627843496E+01 -0.13574408628E+02 -0.23446249005E+03  0.23492744077E+03  0.41800000000E+01 0. -1.
         -5    1    4    4    0  501  0.49538116990E+02 -0.21468519317E+02 -0.23921823203E+02  0.59200070793E+02  0.41800000000E+01 0. -1.
</event>
<event>
11    1  0.6625361E-009  0.1425779E+03  0.7561462E-02  0.1104713E+00
         22   -1    0    0    0    0  0.00000000000E+00  0.00000000000E+00  0.41256286130E+03  0.41256286130E+03  0.00000000000E+00 0. -1.
         22   -1    0    0    0    0 -0.00000000000E+00 -0.00000000000E+00 -0.29806879059E+03  0.29806879059E+03  0.00000000000E+00 0. -1.
         24    2    1    2    0    0  0.89281496847E+01 -0.63111420024E+02 -0.17575834130E+03  0.20394434670E+03  0.81483365302E+02 0.  0.
         25    2    1    2    0    0 -0.64373866467E+02  0.77554585885E+02 -0.37947248594E+02  0.16506274744E+03  0.12508800279E+03 0.  0.
        -24    2    1    2    0    0  0.55445716782E+02 -0.14443165861E+02  0.32819966061E+03  0.34162455774E+03  0.75561158554E+02 0.  0.
        -11    1    3    3    0    0 -0.21966484525E+02 -0.22724910189E+01 -0.91487543126E+01  0.23903772993E+02  0.00000000000E+00 0.  1.
         12    1    3    3    0    0  0.30894634210E+02 -0.60838929005E+02 -0.16660958699E+03  0.18004057371E+03  0.00000000000E+00 0. -1.
         11    1    5    5    0    0  0.11722966493E+02 -0.38774415634E+02  0.19885376189E+03  0.20293767977E+03  0.00000000000E+00 0. -1.
        -12    1    5    5    0    0  0.43722750290E+02  0.24331249773E+02  0.12934589872E+03  0.13868687798E+03  0.00000000000E+00 0.  1.
          5    1    4    4  501    0 -0.92205453865E+01 -0.16342375441E+02 -0.51759159351E+02  0.55213899238E+02  0.41800000000E+01 0. -1.
         -5    1    4    4    0  501 -0.55153321081E+02  0.93896961326E+02  0.13811910758E+02  0.10984884820E+03  0.41800000000E+01 0. -1.
</event>
<event>
11    1  0.6625361E-009  0.1367396E+03  0.7561462E-02  0.1111255E+00
         22   -1    0    0    0    0  0.00000000000E+00  0.00000000000E+00  0.79707770192E+03  0.79707770192E+03  0.00000000000E+00 0.  1.
         22   -1    0    0    0    0 -0.00000000000E+00 -0.00000000000E+00 -0.93066311742E+03  0.93066311742E+03  0.00000000000E+00 0. -1.
         24    2    1    2    0    0  0.29697439342E+02 -0.15695237603E+02 -0.85636183790E+03  0.86077584940E+03  0.80319282289E+02 0.  0.
         25    2    1    2    0    0 -0.80538597913E+02  0.32805228610E+02  0.15894940739E+02  0.15317445362E+03  0.12508843002E+03 0.  0.
        -24    2    1    2    0    0  0.50841158571E+02 -0.17109991008E+02  0.70688148166E+03  0.71379051631E+03  0.83294038574E+02 0.  0.
        -11    1    3    3    0    0  0.28556432902E+02 -0.20619618334E+02 -0.13890525660E+03  0.14330146137E+03  0.00000000000E+00 0.  1.
         12    1    3    3    0    0  0.11410064402E+01  0.49243807309E+01 -0.71745658131E+03  0.71747438803E+03  0.00000000000E+00 0. -1.
         11    1    5    5    0    0  0.61830396996E+02  0.15314745638E+02  0.40584409855E+03  0.41081257497E+03  0.00000000000E+00 0. -1.
        -12    1    5    5    0    0 -0.10989238425E+02 -0.32424736645E+02  0.30103738311E+03  0.30297794134E+03  0.00000000000E+00 0.  1.
          5    1    4    4  501    0 -0.87309562822E+02 -0.18156277445E+02 -0.18509572783E+02  0.91173937370E+02  0.41800000000E+01 0. -1.
         -5    1    4    4    0  501  0.67709649095E+01  0.50961506055E+02  0.34404513522E+02  0.62000516255E+02  0.41800000000E+01 0. -1.
</event>
<event>
11    1  0.6625361E-009  0.1540109E+03  0.7561462E-02  0.1092850E+00
         22   -1    0    0    0    0  0.00000000000E+00  0.00000000000E+00  0.30806372780E+03  0.30806372780E+03  0.00000000000E+00 0. -1.
         22   -1    0    0    0    0 -0.00000000000E+00 -0.00000000000E+00 -0.13008678399E+04  0.13008678399E+04  0.00000000000E+00 0. -1.
        -24    2    1    2    0    0  0.69953392491E+02 -0.48040454585E+02 -0.99200683270E+03  0.99877591903E+03  0.79211223422E+02 0.  0.
         25    2    1    2    0    0 -0.79568679486E+02  0.12092899239E+03 -0.26279181847E+03  0.32505684792E+03  0.12508964214E+03 0.  0.
         24    2    1    2    0    0  0.96152869952E+01 -0.72888537809E+02  0.26199453903E+03  0.28509880078E+03  0.85058774035E+02 0.  0.
        -11    1    5    5    0    0  0.22462404425E+02  0.10668818353E+02  0.91162087945E+02  0.94492907544E+02  0.00000000000E+00 0.  1.
         12    1    5    5    0    0 -0.12847117430E+02 -0.83557356162E+02  0.17083245108E+03  0.19060589324E+03  0.00000000000E+00 0. -1.
         11    1    3    3    0    0  0.51821478411E+02 -0.70198926811E+02 -0.72081738668E+03  0.72607923802E+03  0.00000000000E+00 0. -1.
        -12    1    3    3    0    0  0.18131914080E+02  0.22158472226E+02 -0.27118944602E+03  0.27269668101E+03  0.00000000000E+00 0.  1.
          5    1    4    4  501    0 -0.10642752008E+03  0.12333777569E+03 -0.23614260571E+03  0.28691431922E+03  0.41800000000E+01 0. -1.
         -5    1    4    4    0  501  0.26858840595E+02 -0.24087832930E+01 -0.26649212757E+02  0.38142528700E+02  0.41800000000E+01 0. -1.
</event>
<event>
11    1  0.8660863E-009  0.1429649E+03  0.7561462E-02  0.1104292E+00
         22   -1    0    0    0    0  0.00000000000E+00  0.00000000000E+00  0.56799590208E+03  0.56799590208E+03  0.00000000000E+00 0.  1.
         22   -1    0    0    0    0 -0.00000000000E+00 -0.00000000000E+00 -0.10984162105E+04  0.10984162105E+04  0.00000000000E+00 0. -1.
        -24    2    1    2    0    0 -0.70939145685E+01  0.49000246543E+02 -0.66754955274E+03  0.67317598109E+03  0.71359290633E+02 0.  0.
         25    2    1    2    0    0 -0.25473464927E+02 -0.10959196755E+03 -0.40670350202E+03  0.44012999328E+03  0.12508947061E+03 0.  0.
         24    2    1    2    0    0  0.32567379495E+02  0.60591721010E+02  0.54383274637E+03  0.55310613819E+03  0.73758750103E+02 0.  0.
        -13    1    5    5    0    0  0.24808121740E+01  0.49476421547E+02  0.47005207188E+03  0.47265528771E+03  0.00000000000E+00 0.  1.
         14    1    5    5    0    0  0.30086567321E+02  0.11115299463E+02  0.73780674493E+02  0.80450850486E+02  0.00000000000E+00 0. -1.
         13    1    3    3    0    0  0.14478215265E+02  0.53379886077E+02 -0.58928408729E+03  0.59187394476E+03  0.00000000000E+00 0. -1.
        -14    1    3    3    0    0 -0.21572129833E+02 -0.43796395344E+01 -0.78265465454E+02  0.81302036326E+02  0.00000000000E+00 0.  1.
          5    1    4    4  501    0 -0.22074949175E+02  0.31043086719E+01 -0.22573643385E+03  0.22687298227E+03  0.41800000000E+01 0.  1.
         -5    1    4    4    0  501 -0.33985157522E+01 -0.11269627622E+03 -0.18096706817E+03  0.21325701101E+03  0.41800000000E+01 0.  1.
</event>
<event>
11    1  0.6625361E-009  0.2235879E+03  0.7561462E-02  0.1038993E+00
         22   -1    0    0    0    0  0.00000000000E+00  0.00000000000E+00  0.27624123278E+04  0.27624123278E+04  0.00000000000E+00 0.  1.
         22   -1    0    0    0    0 -0.00000000000E+00 -0.00000000000E+00 -0.22663550650E+04  0.22663550650E+04  0.00000000000E+00 0.  1.
         24    2    1    2    0    0 -0.53709115552E+02  0.13389155453E+03 -0.14563474690E+04  0.14657206201E+04  0.81100975750E+02 0.  0.
         25    2    1    2    0    0  0.20195162203E+03 -0.24411784185E+03 -0.76543592379E+03  0.83781079522E+03  0.12512712261E+03 0.  0.
        -24    2    1    2    0    0 -0.14824250648E+03  0.11022628733E+03  0.27178406556E+04  0.27252359775E+04  0.78279173133E+02 0.  0.
        -13    1    3    3    0    0 -0.49653750525E+02  0.12055183915E+03 -0.14298236960E+04  0.14357555650E+04  0.00000000000E+00 0.  1.
         14    1    3    3    0    0 -0.40553650265E+01  0.13339715377E+02 -0.26523773040E+02  0.29965055117E+02  0.00000000000E+00 0. -1.
         13    1    5    5    0    0 -0.40225875274E+02 -0.17621611873E+01  0.35455368158E+03  0.35683264897E+03  0.00000000000E+00 0. -1.
        -14    1    5    5    0    0 -0.10801663120E+03  0.11198844851E+03  0.23632869740E+04  0.23684033286E+04  0.00000000000E+00 0.  1.
          5    1    4    4  501    0  0.17628724224E+03 -0.22440276879E+03 -0.54725160724E+03  0.61719979621E+03  0.41800000000E+01 0. -1.
         -5    1    4    4    0  501  0.25664379784E+02 -0.19715073061E+02 -0.21818431655E+03  0.22061099901E+03  0.41800000000E+01 0. -1.
</event>
<event>
11    1  0.6625361E-009  0.1607124E+03  0.7561462E-02  0.1086409E+00
         22   -1    0    0    0    0  0.00000000000E+00  0.00000000000E+00  0.10061377883E+04  0.10061377883E+04  0.00000000000E+00 0.  1.
         22   -1    0    0    0    0 -0.00000000000E+00 -0.00000000000E+00 -0.10464614680E+04  0.10464614680E+04  0.00000000000E+00 0. -1.
         24    2    1    2    0    0  0.15821381420E+02  0.63221526735E+02 -0.99325441773E+03  0.99859216803E+03  0.79904331230E+02 0.  0.
         25    2    1    2    0    0  0.29479539363E+02  0.34180887435E+02  0.52052984936E+02  0.14281174699E+03  0.12509318739E+03 0.  0.
        -24    2    1    2    0    0 -0.45300920783E+02 -0.97402414170E+02  0.90087775308E+03  0.91119534130E+03  0.84597992367E+02 0.  0.
        -11    1    3    3    0    0  0.20646292498E+02  0.47967114930E+02 -0.26152745266E+03  0.26669031105E+03  0.00000000000E+00 0.  1.
         12    1    3    3    0    0 -0.48249110780E+01  0.15254411805E+02 -0.73172696507E+03  0.73190185698E+03  0.00000000000E+00 0. -1.
         13    1    5    5    0    0  0.32042109173E+01  0.63007209124E+01  0.67700283051E+01  0.97877134649E+01  0.00000000000E+00 0. -1.
        -14    1    5    5    0    0 -0.48505131700E+02 -0.10370313508E+03  0.89410772477E+03  0.90140762784E+03  0.00000000000E+00 0.  1.
          5    1    4    4  501    0  0.55183282910E+02  0.67572356487E+02  0.19738980747E+02  0.89545060360E+02  0.41800000000E+01 0. -1.
         -5    1    4    4    0  501 -0.25703743547E+02 -0.33391469052E+02  0.32314004189E+02  0.53266686630E+02  0.41800000000E+01 0. -1.
</event>
<event>
11    1  0.6625361E-009  0.1439899E+03  0.7561462E-02  0.1103183E+00
         22   -1    0    0    0    0  0.00000000000E+00  0.00000000000E+00  0.28150639617E+03  0.28150639617E+03  0.00000000000E+00 0. -1.
         22   -1    0    0    0    0 -0.00000000000E+00 -0.00000000000E+00 -0.22230909393E+03  0.22230909393E+03  0.00000000000E+00 0.  1.
        -24    2    1    2    0    0  0.53604722926E+02  0.47142239759E+02 -0.91978520344E+02  0.14391307191E+03  0.84587628954E+02 0.  0.
         25    2    1    2    0    0 -0.90840401626E+02  0.90393250580E+01 -0.22710597536E+02  0.15651336341E+03  0.12508786400E+03 0.  0.
         24    2    1    2    0    0  0.37235678700E+02 -0.56181564817E+02  0.17388642012E+03  0.20338905477E+03  0.81164995574E+02 0.  0.
        -11    1    5    5    0    0 -0.10298346593E+02 -0.18018006498E+02  0.18075364834E+01  0.20831987156E+02  0.00000000000E+00 0.  1.
         12    1    5    5    0    0  0.47534025293E+02 -0.38163558319E+02  0.17207888364E+03  0.18255706762E+03  0.00000000000E+00 0. -1.
         13    1    3    3    0    0  0.14897936942E+01  0.56855798953E+02 -0.38973011564E+02  0.68947059329E+02  0.00000000000E+00 0. -1.
        -14    1    3    3    0    0  0.52114929232E+02 -0.97135591938E+01 -0.53005508780E+02  0.74966012579E+02  0.00000000000E+00 0.  1.
          5    1    4    4  501    0 -0.57903648600E+02  0.64190075946E+02 -0.30288912142E+02  0.91695632229E+02  0.41800000000E+01 0. -1.
         -5    1    4    4    0  501 -0.32936753026E+02 -0.55150750888E+02  0.75783146056E+01  0.64817731182E+02  0.41800000000E+01 0. -1.
</event>
<event>
11    1  0.6625361E-009  0.1332841E+03  0.7561462E-02  0.1115299E+00
         22   -1    0    0    0    0  0.00000000000E+00  0.00000000000E+00  0.17543364440E+04  0.17543364440E+04  0.00000000000E+00 0. -1.
         22   -1    0    0    0    0 -0.00000000000E+00 -0.00000000000E+00 -0.11196478011E+03  0.11196478011E+03  0.00000000000E+00 0.  1.
        -24    2    1    2    0    0  0.30276801912E+02 -0.34696528904E+02 -0.82695817314E+02  0.12406801987E+03  0.80210607165E+02 0.  0.
         25    2    1    2    0    0 -0.27962729926E+02  0.34402306682E+02  0.60896010067E+03  0.62325528593E+03  0.12509721920E+03 0.  0.
         24    2    1    2    0    0 -0.23140719852E+01  0.29422222210E+00  0.11161073805E+04  0.11189779183E+04  0.80065319047E+02 0.  0.
        -11    1    5    5    0    0 -0.93038601319E+01  0.21367090976E+02  0.10203718036E+03  0.10466470545E+03  0.00000000000E+00 0.  1.
         12    1    5    5    0    0  0.69897881467E+01 -0.21072868754E+02  0.10140702001E+04  0.10143132128E+04  0.00000000000E+00 0. -1.
         13    1    3    3    0    0  0.73332548375E+01  0.20618613030E+02  0.10141022765E+00  0.21884106421E+02  0.00000000000E+00 0. -1.
        -14    1    3    3    0    0  0.22943547074E+02 -0.55315141934E+02 -0.82797227542E+02  0.10218391345E+03  0.00000000000E+00 0.  1.
          5    1    4    4  501    0 -0.71870471606E+02 -0.54815295992E+01  0.37250293196E+03  0.37943552625E+03  0.41800000000E+01 0. -1.
         -5    1    4    4    0  501  0.43907741679E+02  0.39883836281E+02  0.23645716871E+03  0.24381975968E+03  0.41800000000E+01 0. -1.
</event>
<event>
11    1  0.6625361E-009  0.1679680E+03  0.7561462E-02  0.1079814E+00
         22   -1    0    0    0    0  0.00000000000E+00  0.00000000000E+00  0.18400095001E+04  0.18400095001E+04  0.00000000000E+00 0.  1.
         22   -1    0    0    0    0 -0.00000000000E+00 -0.00000000000E+00 -0.15611136467E+03  0.15611136467E+03  0.00000000000E+00 0. -1.
        -24    2    1    2    0    0 -0.81791397574E+02 -0.78886335985E+02 -0.11428134040E+03  0.18052017709E+03  0.81329102122E+02 0.  0.
         25    2    1    2    0    0  0.15478324556E+02  0.68794637458E+02  0.11353762969E+04  0.11444210862E+04  0.12509199063E+03 0.  0.
         24    2    1    2    0    0  0.66313073018E+02  0.10091698527E+02  0.66280317888E+03  0.67117960150E+03  0.81699066754E+02 0.  0.
        -13    1    5    5    0    0  0.10466792805E+02  0.75996181542E+01  0.47637348689E+03  0.47654906039E+03  0.00000000000E+00 0.  1.
         14    1    5    5    0    0  0.55846280213E+02  0.24920803731E+01  0.18642969199E+03  0.19463054111E+03  0.00000000000E+00 0. -1.
         13    1    3    3    0    0 -0.56001831581E+02 -0.68520175069E+01 -0.21782941439E+02  0.60478523643E+02  0.00000000000E+00 0. -1.
        -14    1    3    3    0    0 -0.25789565993E+02 -0.72034318478E+02 -0.92498398959E+02  0.12004165345E+03  0.00000000000E+00 0.  1.
          5    1    4    4  501    0  0.78287026351E+01  0.10158017790E+03  0.98509671749E+03  0.99035995291E+03  0.41800000000E+01 0. -1.
         -5    1    4    4    0  501  0.76496219211E+01 -0.32785540438E+02  0.15027957945E+03  0.15406113325E+03  0.41800000000E+01 0. -1.
</event>
<event>
11    1  0.6625361E-009  0.1907455E+03  0.7561462E-02  0.1061268E+00
         22   -1    0    0    0    0  0.00000000000E+00  0.00000000000E+00  0.20788630696E+03  0.20788630696E+03  0.00000000000E+00 0. -1.
         22   -1    0    0    0    0 -0.00000000000E+00 -0.00000000000E+00 -0.26647303702E+04  0.26647303702E+04  0.00000000000E+00 0. -1.
        -24    2    1    2    0    0  0.21858565524E+02  0.48895522583E+02 -0.24901991951E+04  0.24920307546E+04  0.79099188617E+02 0.  0.
         25    2    1    2    0    0 -0.10392664491E+03 -0.14768365017E+03 -0.22061459497E+02  0.22078384156E+03  0.12509032196E+03 0.  0.
         24    2    1    2    0    0  0.82068079390E+02  0.98788127589E+02  0.55416591330E+02  0.15980208101E+03  0.77275110434E+02 0.  0.
        -11    1    5    5    0    0  0.73087614417E+00  0.17924867677E+02 -0.16543377670E+02  0.24403245807E+02  0.00000000000E+00 0.  1.
         12    1    5    5    0    0  0.81337203246E+02  0.80863259912E+02  0.71959969000E+02  0.13539883520E+03  0.00000000000E+00 0. -1.
         13    1    3    3    0    0 -0.52729183182E-01  0.58997191531E+02 -0.22121798806E+04  0.22129664470E+04  0.00000000000E+00 0. -1.
        -14    1    3    3    0    0  0.21911294707E+02 -0.10101668948E+02 -0.27801931445E+03  0.27906430756E+03  0.00000000000E+00 0.  1.
          5    1    4    4  501    0 -0.37787453412E+02  0.17370921093E+02 -0.53211549726E+01  0.42135823537E+02  0.41800000000E+01 0.  1.
         -5    1    4    4    0  501 -0.66139191502E+02 -0.16505457126E+03 -0.16740304524E+02  0.17864801802E+03  0.41800000000E+01 0.  1.
</event>
<event>
11    1  0.6625361E-009  0.1558253E+03  0.7561462E-02  0.1091071E+00
         22   -1    0    0    0    0  0.00000000000E+00  0.00000000000E+00  0.12264964505E+04  0.12264964505E+04  0.00000000000E+00 0. -1.
         22   -1    0    0    0    0 -0.00000000000E+00 -0.00000000000E+00 -0.52558177576E+03  0.52558177576E+03  0.00000000000E+00 0.  1.
         24    2    1    2    0    0 -0.85582681268E+02 -0.36829650436E+02 -0.50157993797E+03  0.51652294591E+03  0.80825126057E+02 0.  0.
         25    2    1    2    0    0  0.59850419608E+02  0.61113867232E+02  0.39215762869E+03  0.42041896359E+03  0.12509005442E+03 0.  0.
        -24    2    1    2    0    0  0.25732261660E+02 -0.24284216796E+02  0.81033698404E+03  0.81513631677E+03  0.80927836614E+02 0.  0.
        -13    1    3    3    0    0 -0.88086317333E+02 -0.11756318430E+02 -0.28634568286E+03  0.29981871259E+03  0.00000000000E+00 0.  1.
         14    1    3    3    0    0  0.25036360652E+01 -0.25073332006E+02 -0.21523425510E+03  0.21670423333E+03  0.00000000000E+00 0. -1.
         11    1    5    5    0    0 -0.34421159644E+01 -0.24132743134E+01  0.67384361996E+03  0.67385673271E+03  0.00000000000E+00 0. -1.
        -12    1    5    5    0    0  0.29174377625E+02 -0.21870942483E+02  0.13649336408E+03  0.14127958406E+03  0.00000000000E+00 0.  1.
          5    1    4    4  501    0 -0.13935753525E+02  0.74819391172E+02  0.18793952138E+03  0.20280750139E+03  0.41800000000E+01 0.  1.
         -5    1    4    4    0  501  0.73786173133E+02 -0.13705523940E+02  0.20421810731E+03  0.21761146221E+03  0.41800000000E+01 0.  1.
</event>
<event>
11    1  0.6625361E-009  0.1325060E+03  0.7561462E-02  0.1116228E+00
         22   -1    0    0    0    0  0.00000000000E+00  0.00000000000E+00  0.79993661985E+03  0.79993661985E+03  0.00000000000E+00 0. -1.
         22   -1    0    0    0    0 -0.00000000000E+00 -0.00000000000E+00 -0.33136005718E+03  0.33136005718E+03  0.00000000000E+00 0.  1.
        -24    2    1    2    0    0  0.10096041475E+01  0.33230258665E+02 -0.27885273916E+03  0.29160350171E+03  0.78539688573E+02 0.  0.
         25    2    1    2    0    0  0.42004986048E+02 -0.22764942191E+02  0.61681271334E+02  0.14742812195E+03  0.12509120858E+03 0.  0.
         24    2    1    2    0    0 -0.43014590195E+02 -0.10465316474E+02  0.68574803049E+03  0.69226505336E+03  0.83790005149E+02 0.  0.
        -11    1    5    5    0    0 -0.32025063247E+02  0.34154136289E+02  0.27533628852E+03  0.27928870632E+03  0.00000000000E+00 0.  1.
         12    1    5    5    0    0 -0.10989526949E+02 -0.44619452763E+02  0.41041174197E+03  0.41297634704E+03  0.00000000000E+00 0. -1.
         11    1    3    3    0    0  0.16265411603E+02 -0.12028635359E+02 -0.20236838292E+02  0.28614354917E+02  0.00000000000E+00 0. -1.
        -12    1    3    3    0    0 -0.15255807456E+02  0.45258894024E+02 -0.25861590087E+03  0.26298914679E+03  0.00000000000E+00 0.  1.
          5    1    4    4  501    0  0.57621730420E+02 -0.42281125990E+02  0.86277254095E+02  0.11211241861E+03  0.41800000000E+01 0.  1.
         -5    1    4    4    0  501 -0.15616744372E+02  0.19516183799E+02 -0.24595982761E+02  0.35315703346E+02  0.41800000000E+01 0.  1.
</event>
<event>
11    1  0.6625361E-009  0.1413862E+03  0.7561462E-02  0.1106020E+00
         22   -1    0    0    0    0  0.00000000000E+00  0.00000000000E+00  0.95576990121E+02  0.95576990121E+02  0.00000000000E+00 0.  1.
         22   -1    0    0    0    0 -0.00000000000E+00 -0.00000000000E+00 -0.12519621677E+04  0.12519621677E+04  0.00000000000E+00 0.  1.
        -24    2    1    2    0    0  0.21941241294E+02  0.33096848348E+02 -0.73115462713E+03  0.73672011935E+03  0.81194987818E+02 0.  0.
         25    2    1    2    0    0  0.22951074336E+01 -0.92820391608E+02 -0.47278069743E+03  0.49778438710E+03  0.12508723181E+03 0.  0.
         24    2    1    2    0    0 -0.24236348728E+02  0.59723543260E+02  0.47550146940E+02  0.11303465141E+03  0.79759098076E+02 0.  0.
        -13    1    5    5    0    0 -0.10753166111E+02  0.72339024056E+02  0.56594032263E+02  0.92474047552E+02  0.00000000000E+00 0.  1.
         14    1    5    5    0    0 -0.13483182616E+02 -0.12615480796E+02 -0.90438853235E+01  0.20560603856E+02  0.00000000000E+00 0. -1.
         11    1    3    3    0    0 -0.22852264599E+02  0.68421845252E+01 -0.79535680618E+02  0.83035931847E+02  0.00000000000E+00 0. -1.
        -12    1    3    3    0    0  0.44793505892E+02  0.26254663822E+02 -0.65161894651E+03  0.65368418751E+03  0.00000000000E+00 0.  1.
          5    1    4    4  501    0  0.11971204771E+01  0.78520187820E+01 -0.28099816181E+03  0.28114147086E+03  0.41800000000E+01 0.  1.
         -5    1    4    4    0  501  0.10979869565E+01 -0.10067241039E+03 -0.19178253562E+03  0.21664291624E+03  0.41800000000E+01 0.  1.
</event>
<event>
11    1  0.6625361E-009  0.1474438E+03  0.7561462E-02  0.1099520E+00
         22   -1    0    0    0    0  0.00000000000E+00  0.00000000000E+00  0.26249472718E+04  0.26249472718E+04  0.00000000000E+00 0. -1.
         22   -1    0    0    0    0 -0.00000000000E+00 -0.00000000000E+00 -0.73603820637E+02  0.73603820637E+02  0.00000000000E+00 0.  1.
        -24    2    1    2    0    0  0.39519080402E+02 -0.70873393695E+02 -0.14703264864E+02  0.11421353808E+03  0.79017407156E+02 0.  0.
         25    2    1    2    0    0 -0.46294862547E+02  0.22318490737E+02  0.56408498998E+03  0.58006943387E+03  0.12508933951E+03 0.  0.
         24    2    1    2    0    0  0.67757821446E+01  0.48554902958E+02  0.20019617261E+04  0.20042681205E+04  0.82682866576E+02 0.  0.
        -13    1    5    5    0    0 -0.38070806633E+02  0.20961481345E+02  0.89154767475E+03  0.89260631096E+03  0.00000000000E+00 0.  1.
         14    1    5    5    0    0  0.44846588778E+02  0.27593421614E+02  0.11104140513E+04  0.11116618096E+04  0.00000000000E+00 0. -1.
         11    1    3    3    0    0 -0.22584996261E+02 -0.19954469239E+02 -0.15521674086E+02  0.33899635177E+02  0.00000000000E+00 0. -1.
        -12    1    3    3    0    0  0.62104076663E+02 -0.50918924457E+02  0.81840922290E+00  0.80313902904E+02  0.00000000000E+00 0.  1.
          5    1    4    4  501    0  0.10578691009E+02 -0.10138555654E+02  0.34697369062E+01  0.15627235469E+02  0.41800000000E+01 0. -1.
         -5    1    4    4    0  501 -0.56873553555E+02  0.32457046391E+02  0.56061525307E+03  0.56444219840E+03  0.41800000000E+01 0. -1.
</event>
<event>
11    1  0.7194153E-009  0.1499762E+03  0.7561462E-02  0.1096903E+00
         22   -1    0    0    0    0  0.00000000000E+00  0.00000000000E+00  0.18419789064E+03  0.18419789064E+03  0.00000000000E+00 0. -1.
         22   -1    0    0    0    0 -0.00000000000E+00 -0.00000000000E+00 -0.65412261991E+03  0.65412261991E+03  0.00000000000E+00 0. -1.
        -24    2    1    2    0    0  0.79428426389E+02  0.52375457509E+02 -0.44779958972E+03  0.46617776330E+03  0.88006653028E+02 0.  0.
         25    2    1    2    0    0 -0.61047395079E+02  0.16298983496E+02 -0.14993506016E+03  0.20523647778E+03  0.12509615596E+03 0.  0.
         24    2    1    2    0    0 -0.18381031309E+02 -0.68674441005E+02  0.12780992061E+03  0.16690626947E+03  0.80425654006E+02 0.  0.
        -11    1    5    5    0    0 -0.12547251573E+01 -0.73089661677E+02  0.53672818671E+02  0.90688722801E+02  0.00000000000E+00 0.  1.
         12    1    5    5    0    0 -0.17126306152E+02  0.44152206718E+01  0.74137101941E+02  0.76217546669E+02  0.00000000000E+00 0. -1.
         11    1    3    3    0    0  0.43908713789E+02  0.23341644735E+02 -0.38611415285E+03  0.38930315508E+03  0.00000000000E+00 0. -1.
        -12    1    3    3    0    0  0.35519712600E+02  0.29033812774E+02 -0.61685436871E+02  0.76874608222E+02  0.00000000000E+00 0.  1.
          5    1    4    4  501    0 -0.51357934437E+02  0.39489009465E+02 -0.16382439415E+03  0.17621839806E+03  0.41800000000E+01 0. -1.
         -5    1    4    4    0  501 -0.96894606425E+01 -0.23190025969E+02  0.13889333985E+02  0.29018079718E+02  0.41800000000E+01 0. -1.
</event>
<event>
11    1  0.6625361E-009  0.1405935E+03  0.7561462E-02  0.1106897E+00
         22   -1    0    0    0    0  0.00000000000E+00  0.00000000000E+00  0.26093928093E+03  0.26093928093E+03  0.00000000000E+00 0. -1.
         22   -1    0    0    0    0 -0.00000000000E+00 -0.00000000000E+00 -0.17730066701E+03  0.17730066701E+03  0.00000000000E+00 0.  1.
        -24    2    1    2    0    0  0.77263460007E+01  0.51672244649E+02 -0.59950238101E+02  0.11327837358E+03  0.80673673422E+02 0.  0.
         25    2    1    2    0    0 -0.13987817689E+02 -0.10245859055E+03  0.12275647225E+02  0.16275713006E+03  0.12508305260E+03 0.  0.
         24    2    1    2    0    0  0.62614716883E+01  0.50786345906E+02  0.13131320479E+03  0.16220444430E+03  0.80303580498E+02 0.  0.
        -13    1    5    5    0    0 -0.14851350679E+02  0.33033707851E+02  0.96901811682E+01  0.37492507017E+02  0.00000000000E+00 0.  1.
         14    1    5    5    0    0  0.21112822367E+02  0.17752638055E+02  0.12162302362E+03  0.12471193729E+03  0.00000000000E+00 0. -1.
         11    1    3    3    0    0 -0.36188776718E+02  0.21145876376E+02 -0.33252658680E+02  0.53502476179E+02  0.00000000000E+00 0. -1.
        -12    1    3    3    0    0  0.43915122718E+02  0.30526368273E+02 -0.26697579420E+02  0.59775897402E+02  0.00000000000E+00 0.  1.
          5    1    4    4  501    0  0.46126057149E+02 -0.84013069783E+02 -0.87285432324E+01  0.96330000049E+02  0.41800000000E+01 0. -1.
         -5    1    4    4    0  501 -0.60113874838E+02 -0.18445520772E+02  0.21004190457E+02  0.66427130010E+02  0.41800000000E+01 0. -1.
</event>
<event>
11    1  0.6625361E-009  0.2196071E+03  0.7561462E-02  0.1041464E+00
         22   -1    0    0    0    0  0.00000000000E+00  0.00000000000E+00  0.47089090189E+03  0.47089090189E+03  0.00000000000E+00 0. -1.
         22   -1    0    0    0    0 -0.00000000000E+00 -0.00000000000E+00 -0.87508634399E+03  0.87508634399E+03  0.00000000000E+00 0.  1.
         24    2    1    2    0    0  0.29884057660E+02 -0.18228438412E+03 -0.74067203052E+03  0.76765891695E+03  0.81144946718E+02 0.  0.
         25    2    1    2    0    0  0.54484655299E+02  0.15833746147E+03 -0.11174435931E+02  0.20931155446E+03  0.12508848645E+03 0.  0.
        -24    2    1    2    0    0 -0.84368712959E+02  0.23946922651E+02  0.34765102435E+03  0.36900677448E+03  0.87253825410E+02 0.  0.
        -13    1    3    3    0    0 -0.18377202911E+01 -0.25485666103E+02 -0.25590707348E+03  0.25717956111E+03  0.00000000000E+00 0.  1.
         14    1    3    3    0    0  0.31721777952E+02 -0.15679871802E+03 -0.48476495704E+03  0.51047935584E+03  0.00000000000E+00 0. -1.
         11    1    5    5    0    0 -0.71145511200E+02  0.50383840034E+02  0.30426467594E+03  0.31650783264E+03  0.00000000000E+00 0. -1.
        -12    1    5    5    0    0 -0.13223201759E+02 -0.26436917383E+02  0.43386348418E+02  0.52498941842E+02  0.00000000000E+00 0.  1.
          5    1    4    4  501    0  0.66218691999E+01  0.50601421611E+02  0.54102917503E+02  0.74491282061E+02  0.41800000000E+01 0.  1.
         -5    1    4    4    0  501  0.47862786099E+02  0.10773603986E+03 -0.65277353435E+02  0.13482027239E+03  0.41800000000E+01 0.  1.
</event>
<event>
11    1  0.6625361E-009  0.2006020E+03  0.7561462E-02  0.1054099E+00
         22   -1    0    0    0    0  0.00000000000E+00  0.00000000000E+00  0.13913231815E+04  0.13913231815E+04  0.00000000000E+00 0.  1.
         22   -1    0    0    0    0 -0.00000000000E+00 -0.00000000000E+00 -0.14631783365E+03  0.14631783365E+03  0.00000000000E+00 0. -1.
        -24    2    1    2    0    0 -0.63893971265E+02 -0.69729847954E+02 -0.66456819589E+01  0.12594076994E+03  0.82898861184E+02 0.  0.
         25    2    1    2    0    0  0.83801140726E+02  0.21873240874E+03  0.16682348717E+03  0.31359789679E+03  0.12508823757E+03 0.  0.
         24    2    1    2    0    0 -0.19907169461E+02 -0.14900256079E+03  0.10848275427E+04  0.10981023484E+04  0.79874350141E+02 0.  0.
        -11    1    5    5    0    0 -0.22118433473E+02 -0.24617061622E+02  0.44904151250E+03  0.45025937499E+03  0.00000000000E+00 0.  1.
         12    1    5    5    0    0  0.22112640118E+01 -0.12438549917E+03  0.63578603017E+03  0.64784297345E+03  0.00000000000E+00 0. -1.
         13    1    3    3    0    0 -0.79893338510E+02 -0.35779329125E+02 -0.10700831563E+02  0.88190780284E+02  0.00000000000E+00 0. -1.
        -14    1    3    3    0    0  0.15999367245E+02 -0.33950518829E+02  0.40551496040E+01  0.37749989660E+02  0.00000000000E+00 0.  1.
          5    1    4    4  501    0 -0.34705545410E+01  0.48330466378E+02  0.99256658292E+02  0.11053160337E+03  0.41800000000E+01 0. -1.
         -5    1    4    4    0  501  0.87271695267E+02  0.17040194237E+03  0.67566828873E+02  0.20306629341E+03  0.41800000000E+01 0. -1.
</event>
<event>
11    1  0.6625361E-009  0.1284895E+03  0.7561462E-02  0.1121139E+00
         22   -1    0    0    0    0  0.00000000000E+00  0.00000000000E+00  0.57258291354E+03  0.57258291354E+03  0.00000000000E+00 0. -1.
         22   -1    0    0    0    0 -0.00000000000E+00 -0.00000000000E+00 -0.45686845580E+03  0.45686845580E+03  0.00000000000E+00 0.  1.
        -24    2    1    2    0    0  0.14210936579E+02  0.14164142666E+02 -0.42554887536E+03  0.43364281885E+03  0.80942420052E+02 0.  0.
         25    2    1    2    0    0  0.15168746447E+02 -0.23554401945E+02  0.16121396998E+03  0.20596657098E+03  0.12508950206E+03 0.  0.
         24    2    1    2    0    0 -0.29379683026E+02  0.93902592795E+01  0.38004936311E+03  0.38984197951E+03  0.81165927835E+02 0.  0.
        -13    1    5    5    0    0  0.24801216626E+01 -0.12627223767E+02  0.30605678896E+03  0.30632720391E+03  0.00000000000E+00 0.  1.
         14    1    5    5    0    0 -0.31859804689E+02  0.22017483047E+02  0.73992574151E+02  0.83514775603E+02  0.00000000000E+00 0. -1.
         11    1    3    3    0    0  0.22044513147E+02  0.18493040676E+02 -0.47831358245E+02  0.55819279330E+02  0.00000000000E+00 0. -1.
        -12    1    3    3    0    0 -0.78335765679E+01 -0.43288980105E+01 -0.37771751711E+03  0.37782353952E+03  0.00000000000E+00 0.  1.
          5    1    4    4  501    0  0.26240944302E+01 -0.66680328408E+02  0.14196713442E+03  0.15692447777E+03  0.41800000000E+01 0. -1.
         -5    1    4    4    0  501  0.12544652017E+02  0.43125926462E+02  0.19246835561E+02  0.49042093211E+02  0.41800000000E+01 0. -1.
</event>
<event>
11    1  0.6625361E-009  0.1374758E+03  0.7561462E-02  0.1110410E+00
         22   -1    0    0    0    0  0.00000000000E+00  0.00000000000E+00  0.53387383180E+03  0.53387383180E+03  0.00000000000E+00 0.  1.
         22   -1    0    0    0    0 -0.00000000000E+00 -0.00000000000E+00 -0.29398393230E+03  0.29398393230E+03  0.00000000000E+00 0. -1.
        -24    2    1    2    0    0 -0.34372508315E+02  0.35531220578E+02 -0.25829246533E+03  0.27430073438E+03  0.77986910912E+02 0.  0.
         25    2    1    2    0    0  0.63190083244E+02  0.16662877913E+02  0.27674368938E+03  0.31065289296E+03  0.12509001629E+03 0.  0.
         24    2    1    2    0    0 -0.28817574928E+02 -0.52194098491E+02  0.22143867545E+03  0.24290413676E+03  0.80079061739E+02 0.  0.
        -11    1    5    5    0    0  0.25050191607E+02 -0.53558829360E+00  0.61513940657E+02  0.66421109969E+02  0.00000000000E+00 0.  1.
         12    1    5    5    0    0 -0.53867766535E+02 -0.51658510197E+02  0.15992473479E+03  0.17648302679E+03  0.00000000000E+00 0. -1.
         13    1    3    3    0    0 -0.10754523179E+02 -0.69651407985E+01 -0.19020894832E+03  0.19064001935E+03  0.00000000000E+00 0. -1.
        -14    1    3    3    0    0 -0.23617985137E+02  0.42496361376E+02 -0.68083517006E+02  0.83660715034E+02  0.00000000000E+00 0.  1.
          5    1    4    4  501    0  0.69283719297E+02 -0.68326568227E+00  0.28252884591E+03  0.29093078521E+03  0.41800000000E+01 0.  1.
         -5    1    4    4    0  501 -0.60936360538E+01  0.17346143596E+02 -0.57851565337E+01  0.19722107750E+02  0.41800000000E+01 0.  1.
</event>
<event>
11    1  0.6625361E-009  0.1422194E+03  0.7561462E-02  0.1105105E+00
         22   -1    0    0    0    0  0.00000000000E+00  0.00000000000E+00  0.93902428983E+03  0.93902428983E+03  0.00000000000E+00 0.  1.
         22   -1    0    0    0    0 -0.00000000000E+00 -0.00000000000E+00 -0.93097464582E+02  0.93097464582E+02  0.00000000000E+00 0.  1.
        -24    2    1    2    0    0 -0.15810848585E+02  0.63232635094E+02 -0.51908643982E+01  0.10323317168E+03  0.79886128887E+02 0.  0.
         25    2    1    2    0    0  0.49252328159E+02 -0.63393006437E+02  0.11529088378E+03  0.18810775671E+03  0.12509226658E+03 0.  0.
         24    2    1    2    0    0 -0.33441479574E+02  0.16037134301E+00  0.73582680587E+03  0.74078082602E+03  0.78719665196E+02 0.  0.
        -11    1    5    5    0    0  0.25896406530E+02 -0.23274946355E+01  0.24386605250E+03  0.24524822663E+03  0.00000000000E+00 0.  1.
         12    1    5    5    0    0 -0.59337886105E+02  0.24878659785E+01  0.49196075337E+03  0.49553259939E+03  0.00000000000E+00 0. -1.
         11    1    3    3    0    0 -0.47612635487E+02  0.34292415086E+02 -0.11444174000E+02  0.59782120312E+02  0.00000000000E+00 0. -1.
        -12    1    3    3    0    0  0.31801786902E+02  0.28940220008E+02  0.62533096022E+01  0.43451051371E+02  0.00000000000E+00 0.  1.
          5    1    4    4  501    0  0.84693029863E+02 -0.40851646016E+02  0.41005140975E+02  0.10266771779E+03  0.41800000000E+01 0. -1.
         -5    1    4    4    0  501 -0.35440701704E+02 -0.22541360421E+02  0.74285742803E+02  0.85440038920E+02  0.41800000000E+01 0. -1.
</event>
<event>
11    1  0.6625361E-009  0.1578687E+03  0.7561462E-02  0.1089099E+00
         22   -1    0    0    0    0  0.00000000000E+00  0.00000000000E+00  0.66454165431E+03  0.66454165431E+03  0.00000000000E+00 0. -1.
         22   -1    0    0    0    0 -0.00000000000E+00 -0.00000000000E+00 -0.12812756351E+03  0.12812756351E+03  0.00000000000E+00 0.  1.
         24    2    1    2    0    0 -0.15851681639E+01  0.15774729828E+02 -0.23909689010E+02  0.10692462465E+03  0.10300411287E+03 0.  0.
         25    2    1    2    0    0 -0.92980795893E+02  0.53463864773E+01  0.55599556761E+02  0.16557240317E+03  0.12509555438E+03 0.  0.
        -24    2    1    2    0    0  0.94565964057E+02 -0.21121116306E+02  0.50472422305E+03  0.52017219001E+03  0.80272927011E+02 0.  0.
        -11    1    3    3    0    0  0.10443928649E+02  0.44104104601E+02 -0.49341924184E+02  0.66999053504E+02  0.00000000000E+00 0.  1.
         12    1    3    3    0    0 -0.12029096813E+02 -0.28329374773E+02  0.25432235174E+02  0.39925571143E+02  0.00000000000E+00 0. -1.
         13    1    5    5    0    0  0.44534572095E+02  0.25815234745E+02  0.29658750901E+03  0.30102143604E+03  0.00000000000E+00 0. -1.
        -14    1    5    5    0    0  0.50031391963E+02 -0.46936351050E+02  0.20813671405E+03  0.21915075397E+03  0.00000000000E+00 0.  1.
          5    1    4    4  501    0  0.37531465837E+01  0.45642778474E+02  0.37081959890E+02  0.59075320442E+02  0.41800000000E+01 0.  1.
         -5    1    4    4    0  501 -0.96733942477E+02 -0.40296391997E+02  0.18517596871E+02  0.10649708273E+03  0.41800000000E+01 0.  1.
</event>
<event>
11    1  0.6625361E-009  0.1968686E+03  0.7561462E-02  0.1056760E+00
         22   -1    0    0    0    0  0.00000000000E+00  0.00000000000E+00  0.26641973937E+04  0.26641973937E+04  0.00000000000E+00 0.  1.
         22   -1    0    0    0    0 -0.00000000000E+00 -0.00000000000E+00 -0.19160236018E+03  0.19160236018E+03  0.00000000000E+00 0.  1.
        -24    2    1    2    0    0 -0.12261460967E+03 -0.78258902960E+02 -0.11053913183E+03  0.19900780075E+03  0.78907583269E+02 0.  0.
         25    2    1    2    0    0  0.16980456449E+03  0.14207260451E+03  0.42188203933E+03  0.49259548351E+03  0.12509052796E+03 0.  0.
         24    2    1    2    0    0 -0.47189954814E+02 -0.63813701554E+02  0.21612521261E+04  0.21641964696E+04  0.80227965956E+02 0.  0.
        -13    1    5    5    0    0 -0.41087792220E+02  0.35469706747E+01  0.11135444643E+04  0.11143078846E+04  0.00000000000E+00 0.  1.
         14    1    5    5    0    0 -0.61021625946E+01 -0.67360672229E+02  0.10477076618E+04  0.10498885851E+04  0.00000000000E+00 0. -1.
         13    1    3    3    0    0 -0.19137274879E+02 -0.65486750765E+01  0.11836306038E+02  0.23435412854E+02  0.00000000000E+00 0. -1.
        -14    1    3    3    0    0 -0.10347733479E+03 -0.71710227883E+02 -0.12237543787E+03  0.17557238790E+03  0.00000000000E+00 0.  1.
          5    1    4    4  501    0  0.27285598570E+02  0.93298341455E+02  0.11444971354E+03  0.15021748812E+03  0.41800000000E+01 0.  1.
         -5    1    4    4    0  501  0.14251896592E+03  0.48774263059E+02  0.30743232580E+03  0.34237799539E+03  0.41800000000E+01 0.  1.
</event>
<event>
11    1  0.8024353E-009  0.1819442E+03  0.7561462E-02  0.1068081E+00
         22   -1    0    0    0    0  0.00000000000E+00  0.00000000000E+00  0.55229539359E+03  0.55229539359E+03  0.00000000000E+00 0. -1.
         22   -1    0    0    0    0 -0.00000000000E+00 -0.00000000000E+00 -0.13445246810E+04  0.13445246810E+04  0.00000000000E+00 0.  1.
         24    2    1    2    0    0 -0.72495035105E+02 -0.12719484294E+01 -0.69206520001E+03  0.70035345015E+03  0.79268947926E+02 0.  0.
         25    2    1    2    0    0  0.61428663383E+02 -0.13050707014E+03 -0.62274179391E+03  0.65135288347E+03  0.12509061071E+03 0.  0.
        -24    2    1    2    0    0  0.11066371722E+02  0.13177901857E+03  0.52257770648E+03  0.54511374100E+03  0.81076241877E+02 0.  0.
        -11    1    3    3    0    0 -0.83134950267E+02 -0.10538570360E+02 -0.66029011711E+03  0.66558659856E+03  0.00000000000E+00 0.  1.
         12    1    3    3    0    0  0.10639915162E+02  0.92666219307E+01 -0.31775082898E+02  0.34766851595E+02  0.00000000000E+00 0. -1.
         13    1    5    5    0    0 -0.90778985825E+01  0.13340312650E+03  0.47403332466E+03  0.49253060340E+03  0.00000000000E+00 0. -1.
        -14    1    5    5    0    0  0.20144270305E+02 -0.16241079348E+01  0.48544381822E+02  0.52583137593E+02  0.00000000000E+00 0.  1.
          5    1    4    4  501    0  0.41826086885E+02 -0.50621199362E+01 -0.54119198257E+02  0.68712492477E+02  0.41800000000E+01 0.  1.
         -5    1    4    4    0  501  0.19602576498E+02 -0.12544495020E+03 -0.56862259565E+03  0.58264039100E+03  0.41800000000E+01 0.  1.
</event>
<event>
11    1  0.6625361E-009  0.1987178E+03  0.7561462E-02  0.1055434E+00
         22   -1    0    0    0    0  0.00000000000E+00  0.00000000000E+00  0.18627354771E+04  0.18627354771E+04  0.00000000000E+00 0. -1.
         22   -1    0    0    0    0 -0.00000000000E+00 -0.00000000000E+00 -0.83189621419E+02  0.83189621419E+02  0.00000000000E+00 0. -1.
         24    2    1    2    0    0 -0.39917286254E+02  0.40990011172E+02 -0.20205006903E+02  0.10060331152E+03  0.80244708400E+02 0.  0.
         25    2    1    2    0    0 -0.25559088714E+02 -0.17420569375E+03  0.68853518739E+03  0.72161653638E+03  0.12509528587E+03 0.  0.
        -24    2    1    2    0    0  0.65476374968E+02  0.13321568258E+03  0.11112156752E+04  0.11237052506E+04  0.76678808859E+02 0.  0.
        -13    1    3    3    0    0 -0.93587683814E+01 -0.24226100632E+02 -0.66664526987E+00  0.25979509490E+02  0.00000000000E+00 0.  1.
         14    1    3    3    0    0 -0.30558517873E+02  0.65216111804E+02 -0.19538361633E+02  0.74623802025E+02  0.00000000000E+00 0. -1.
         13    1    5    5    0    0 -0.87429758935E+01  0.54493029152E+02  0.27187918958E+03  0.27742426639E+03  0.00000000000E+00 0. -1.
        -14    1    5    5    0    0  0.74219350862E+02  0.78722653426E+02  0.83933648563E+03  0.84628098426E+03  0.00000000000E+00 0.  1.
          5    1    4    4  501    0 -0.62089321658E+02 -0.14930845988E+03  0.43250525440E+03  0.46176440697E+03  0.41800000000E+01 0. -1.
         -5    1    4    4    0  501  0.36530232944E+02 -0.24897233871E+02  0.25602993299E+03  0.25985212941E+03  0.41800000000E+01 0. -1.
</event>
<event>
11    1  0.6625361E-009  0.1377714E+03  0.7561462E-02  0.1110073E+00
         22   -1    0    0    0    0  0.00000000000E+00  0.00000000000E+00  0.13508064394E+02  0.13508064394E+02  0.00000000000E+00 0. -1.
         22   -1    0    0    0    0 -0.00000000000E+00 -0.00000000000E+00 -0.23620609029E+04  0.23620609029E+04  0.00000000000E+00 0. -1.
        -24    2    1    2    0    0  0.11271319003E+02  0.61212486050E+01 -0.97928702981E+03  0.98298867383E+03  0.84256357680E+02 0.  0.
         25    2    1    2    0    0  0.39358111642E+01  0.51921370004E+02 -0.10069492126E+04  0.10160259953E+04  0.12510310588E+03 0.  0.
         24    2    1    2    0    0 -0.15207130168E+02 -0.58042618609E+02 -0.36231659618E+03  0.37655429825E+03  0.83184260993E+02 0.  0.
        -13    1    5    5    0    0 -0.15933640370E+02 -0.48091517081E+02 -0.36303302572E+03  0.36655102328E+03  0.00000000000E+00 0.  1.
         14    1    5    5    0    0  0.72651020270E+00 -0.99511015279E+01  0.71642953466E+00  0.10003274962E+02  0.00000000000E+00 0. -1.
         11    1    3    3    0    0  0.36671585709E+02 -0.10116787077E+02 -0.81950638959E+03  0.82038885729E+03  0.00000000000E+00 0. -1.
        -12    1    3    3    0    0 -0.25400266706E+02  0.16238035682E+02 -0.15978064021E+03  0.16259981654E+03  0.00000000000E+00 0.  1.
          5    1    4    4  501    0 -0.17888633275E+02 -0.28094452254E+02 -0.10438535425E+03  0.10964978810E+03  0.41800000000E+01 0. -1.
         -5    1    4    4    0  501  0.21824444439E+02  0.80015822258E+02 -0.90256385830E+03  0.90637620716E+03  0.41800000000E+01 0. -1.
</event>
<event>
11    1  0.1161403E-008  0.1590302E+03  0.7561462E-02  0.1087993E+00
         22   -1    0    0    0    0  0.00000000000E+00  0.00000000000E+00  0.78120173119E+03  0.78120173119E+03  0.00000000000E+00 0.  1.
         22   -1    0    0    0    0 -0.00000000000E+00 -0.00000000000E+00 -0.92523922175E+03  0.92523922175E+03  0.00000000000E+00 0.  1.
         24    2    1    2    0    0 -0.16658463759E+02 -0.53755090304E+02 -0.69852319986E+03  0.70491049005E+03  0.76138190725E+02 0.  0.
         25    2    1    2    0    0  0.89661433786E+02 -0.12783805458E+02 -0.19071993894E+03  0.24540555151E+03  0.12508873336E+03 0.  0.
        -24    2    1    2    0    0 -0.73002970027E+02  0.66538895761E+02  0.74520564823E+03  0.75612491139E+03  0.81465116384E+02 0.  0.
        -11    1    3    3    0    0 -0.42353719307E+02 -0.12937951036E+02 -0.40986014517E+03  0.41224576010E+03  0.00000000000E+00 0.  1.
         12    1    3    3    0    0  0.25695255548E+02 -0.40817139268E+02 -0.28866305468E+03  0.29266472995E+03  0.00000000000E+00 0. -1.
         13    1    5    5    0    0 -0.53857643750E+02  0.32679618318E+02  0.20357768123E+03  0.21310203082E+03  0.00000000000E+00 0. -1.
        -14    1    5    5    0    0 -0.19145326277E+02  0.33859277443E+02  0.54162796700E+03  0.54302288057E+03  0.00000000000E+00 0.  1.
          5    1    4    4  501    0  0.73581080268E+02 -0.25615947932E+02 -0.30432820407E+02  0.83749514146E+02  0.41800000000E+01 0. -1.
         -5    1    4    4    0  501  0.16080353519E+02  0.12832142474E+02 -0.16028711853E+03  0.16165603736E+03  0.41800000000E+01 0. -1.
</event>
<event>
11    1  0.6625361E-009  0.1344243E+03  0.7561462E-02  0.1113949E+00
         22   -1    0    0    0    0  0.00000000000E+00  0.00000000000E+00  0.34468671019E+03  0.34468671019E+03  0.00000000000E+00 0.  1.
         22   -1    0    0    0    0 -0.00000000000E+00 -0.00000000000E+00 -0.32258946065E+03  0.32258946065E+03  0.00000000000E+00 0. -1.
        -24    2    1    2    0    0 -0.46481586975E+02  0.14331952459E+02 -0.27598806424E+03  0.29184992936E+03  0.81492495821E+02 0.  0.
         25    2    1    2    0    0  0.62598253730E+02 -0.15906254970E+01  0.15153787323E+03  0.20625201028E+03  0.12512031515E+03 0.  0.
         24    2    1    2    0    0 -0.16116666755E+02 -0.12741326962E+02  0.14654744055E+03  0.16917423121E+03  0.81985851289E+02 0.  0.
        -13    1    5    5    0    0  0.18569361596E+02  0.78315852864E+01  0.11813664563E+03  0.11984332255E+03  0.00000000000E+00 0.  1.
         14    1    5    5    0    0 -0.34686028350E+02 -0.20572912248E+02  0.28410794923E+02  0.49330908660E+02  0.00000000000E+00 0. -1.
         11    1    3    3    0    0 -0.67264980237E+02  0.93293746603E+01 -0.24475925007E+03  0.25400532533E+03  0.00000000000E+00 0. -1.
        -12    1    3    3    0    0  0.20783393262E+02  0.50025777985E+01 -0.31228814166E+02  0.37844604032E+02  0.00000000000E+00 0.  1.
          5    1    4    4  501    0  0.10810295895E+02 -0.23241092231E+02 -0.15322355309E+02  0.30153902527E+02  0.41800000000E+01 0.  1.
         -5    1    4    4    0  501  0.51787957834E+02  0.21650466734E+02  0.16686022854E+03  0.17609810775E+03  0.41800000000E+01 0.  1.
</event>
<event>
11    1  0.6625361E-009  0.1615624E+03  0.7561462E-02  0.1085617E+00
         22   -1    0    0    0    0  0.00000000000E+00  0.00000000000E+00  0.19026276148E+03  0.19026276148E+03  0.00000000000E+00 0. -1.
         22   -1    0    0    0    0 -0.00000000000E+00 -0.00000000000E+00 -0.59337133090E+03  0.59337133090E+03  0.00000000000E+00 0.  1.
         24    2    1    2    0    0 -0.10936745474E+03 -0.16611090809E+02 -0.41487358718E+03  0.43869858220E+03  0.89995467645E+02 0.  0.
         25    2    1    2    0    0  0.78706288173E+02 -0.95397805274E+01 -0.11620008538E+03  0.18824375817E+03  0.12509022918E+03 0.  0.
        -24    2    1    2    0    0  0.30661166569E+02  0.26150871336E+02  0.12796510313E+03  0.15669175201E+03  0.80952222461E+02 0.  0.
        -13    1    3    3    0    0 -0.11851517256E+03 -0.26630302264E+02 -0.40216432068E+03  0.42010850974E+03  0.00000000000E+00 0.  1.
         14    1    3    3    0    0  0.91477178174E+01  0.10019211455E+02 -0.12709266497E+02  0.18590072467E+02  0.00000000000E+00 0. -1.
         11    1    5    5    0    0 -0.27364914685E+02  0.11616245968E+02  0.53187186488E+02  0.60931539720E+02  0.00000000000E+00 0. -1.
        -12    1    5    5    0    0  0.58026081254E+02  0.14534625368E+02  0.74777916643E+02  0.95760212290E+02  0.00000000000E+00 0.  1.
          5    1    4    4  501    0  0.96944342945E+02  0.23188554315E+02 -0.11249727617E+03  0.15036297492E+03  0.41800000000E+01 0.  1.
         -5    1    4    4    0  501 -0.18238054772E+02 -0.32728334843E+02 -0.37028092078E+01  0.37880783248E+02  0.41800000000E+01 0.  1.
</event>
<event>
11    1  0.6625361E-009  0.1485626E+03  0.7561462E-02  0.1098357E+00
         22   -1    0    0    0    0  0.00000000000E+00  0.00000000000E+00  0.22322592407E+03  0.22322592407E+03  0.00000000000E+00 0. -1.
         22   -1    0    0    0    0 -0.00000000000E+00 -0.00000000000E+00 -0.96851948534E+03  0.96851948534E+03  0.00000000000E+00 0. -1.
        -24    2    1    2    0    0 -0.46698527048E+02 -0.52047868675E+02 -0.46485086229E+03  0.47852804443E+03  0.89515540980E+02 0.  0.
         25    2    1    2    0    0  0.70714340969E+02  0.70565204667E+02 -0.47370971565E+03  0.50002822907E+03  0.12508944413E+03 0.  0.
         24    2    1    2    0    0 -0.24015813922E+02 -0.18517335993E+02  0.19326701666E+03  0.21318913591E+03  0.84721997679E+02 0.  0.
        -13    1    5    5    0    0  0.53335860495E+01  0.13956172957E+02 -0.88760106923E-01  0.14940876216E+02  0.00000000000E+00 0.  1.
         14    1    5    5    0    0 -0.29349399971E+02 -0.32473508950E+02  0.19335577677E+03  0.19824825970E+03  0.00000000000E+00 0. -1.
         11    1    3    3    0    0 -0.41076046169E+01 -0.17419815600E+02 -0.35758859971E+03  0.35803621190E+03  0.00000000000E+00 0. -1.
        -12    1    3    3    0    0 -0.42590922431E+02 -0.34628053074E+02 -0.10726226258E+03  0.12049183254E+03  0.00000000000E+00 0.  1.
          5    1    4    4  501    0  0.22628355840E+02  0.10004172510E+03 -0.32968712754E+03  0.34529909312E+03  0.41800000000E+01 0. -1.
         -5    1    4    4    0  501  0.48085985129E+02 -0.29476520431E+02 -0.14402258811E+03  0.15472913594E+03  0.41800000000E+01 0. -1.
</event>
<event>
11    1  0.6625361E-009  0.1414467E+03  0.7561462E-02  0.1105954E+00
         22   -1    0    0    0    0  0.00000000000E+00  0.00000000000E+00  0.67588253361E+02  0.67588253361E+02  0.00000000000E+00 0. -1.
         22   -1    0    0    0    0 -0.00000000000E+00 -0.00000000000E+00 -0.10370438587E+04  0.10370438587E+04  0.00000000000E+00 0.  1.
        -24    2    1    2    0    0 -0.66464173355E+02  0.12027707318E+02 -0.66731475702E+03  0.67563756058E+03  0.81332504217E+02 0.  0.
         25    2    1    2    0    0  0.51293773689E+02 -0.44631912408E+02 -0.30928365659E+03  0.34047998718E+03  0.12508869897E+03 0.  0.
         24    2    1    2    0    0  0.15170399666E+02  0.32604205090E+02  0.71428083031E+01  0.88514564276E+02  0.80564465883E+02 0.  0.
        -11    1    5    5    0    0 -0.76763166654E+01 -0.19451836362E+01 -0.31128626089E+02  0.32120101792E+02  0.00000000000E+00 0.  1.
         12    1    5    5    0    0  0.22846716331E+02  0.34549388726E+02  0.38271434392E+02  0.56394462484E+02  0.00000000000E+00 0. -1.
         11    1    3    3    0    0 -0.58405823663E+02  0.23712447956E+02 -0.24165411910E+03  0.24974033256E+03  0.00000000000E+00 0. -1.
        -12    1    3    3    0    0 -0.80583496923E+01 -0.11684740638E+02 -0.42566063792E+03  0.42589722803E+03  0.00000000000E+00 0.  1.
          5    1    4    4  501    0  0.18151993020E+02 -0.49187709654E+02 -0.32880643356E+02  0.62028499410E+02  0.41800000000E+01 0. -1.
         -5    1    4    4    0  501  0.33141780669E+02  0.45557972459E+01 -0.27640301324E+03  0.27845148777E+03  0.41800000000E+01 0. -1.
</event>
<event>
11    1  0.6625361E-009  0.1500176E+03  0.7561462E-02  0.1096861E+00
         22   -1    0    0    0    0  0.00000000000E+00  0.00000000000E+00  0.44084516926E+03  0.44084516926E+03  0.00000000000E+00 0.  1.
         22   -1    0    0    0    0 -0.00000000000E+00 -0.00000000000E+00 -0.12116352548E+04  0.12116352548E+04  0.00000000000E+00 0.  1.
        -24    2    1    2    0    0  0.14267290387E+02  0.85625420893E+02 -0.11191137076E+04  0.11251853195E+04  0.78046424434E+02 0.  0.
         25    2    1    2    0    0  0.68990810341E+02 -0.62919838243E+02 -0.34713023387E+01  0.15613486379E+03  0.12508959907E+03 0.  0.
         24    2    1    2    0    0 -0.83258100729E+02 -0.22705582650E+02  0.35179492442E+03  0.37116024077E+03  0.80949370966E+02 0.  0.
        -13    1    5    5    0    0 -0.68749041064E+02 -0.49985431359E+02  0.28791649731E+03  0.30020140476E+03  0.00000000000E+00 0.  1.
         14    1    5    5    0    0 -0.14509059665E+02  0.27279848710E+02  0.63878427105E+02  0.70958836007E+02  0.00000000000E+00 0. -1.
         13    1    3    3    0    0  0.18153206878E+02  0.68076557744E+02 -0.42208301908E+03  0.42792292721E+03  0.00000000000E+00 0. -1.
        -14    1    3    3    0    0 -0.38859164904E+01  0.17548863148E+02 -0.69703068853E+03  0.69726239228E+03  0.00000000000E+00 0.  1.
          5    1    4    4  501    0 -0.39600881628E+01 -0.90387648709E+01  0.49753975111E+02  0.50895107898E+02  0.41800000000E+01 0. -1.
         -5    1    4    4    0  501  0.72950898504E+02 -0.53881073372E+02 -0.53225277449E+02  0.10523975589E+03  0.41800000000E+01 0. -1.
</event>
<event>
11    1  0.6625361E-009  0.1677813E+03  0.7561462E-02  0.1079979E+00
         22   -1    0    0    0    0  0.00000000000E+00  0.00000000000E+00  0.11599190164E+04  0.11599190164E+04  0.00000000000E+00 0. -1.
         22   -1    0    0    0    0 -0.00000000000E+00 -0.00000000000E+00 -0.27370401187E+03  0.27370401187E+03  0.00000000000E+00 0. -1.
        -24    2    1    2    0    0 -0.57545081894E+02 -0.12103899288E+03 -0.21872992138E+03  0.27035039737E+03  0.85350363806E+02 0.  0.
         25    2    1    2    0    0 -0.69105506734E+02  0.68371132925E+02  0.27959978707E+03  0.32136301672E+03  0.12509182509E+03 0.  0.
         24    2    1    2    0    0  0.12665058863E+03  0.52667859951E+02  0.82534513879E+03  0.84190961414E+03  0.93823905218E+02 0.  0.
        -11    1    5    5    0    0  0.56466529556E+02  0.40733741440E+02  0.18584867072E+03  0.19846267926E+03  0.00000000000E+00 0.  1.
         12    1    5    5    0    0  0.70184059072E+02  0.11934118512E+02  0.63949646807E+03  0.64344693488E+03  0.00000000000E+00 0. -1.
         11    1    3    3    0    0 -0.28179016205E+02 -0.73006593828E+02 -0.19336861748E+03  0.20860355204E+03  0.00000000000E+00 0. -1.
        -12    1    3    3    0    0 -0.29366065690E+02 -0.48032399049E+02 -0.25361303902E+02  0.61746845329E+02  0.00000000000E+00 0.  1.
          5    1    4    4  501    0 -0.67180296040E+02  0.41228315946E+02  0.28283557084E+03  0.29364331891E+03  0.41800000000E+01 0. -1.
         -5    1    4    4    0  501 -0.19252106944E+01  0.27142816979E+02 -0.32357837629E+01  0.27719697804E+02  0.41800000000E+01 0. -1.
</event>
<event>
11    1  0.6625361E-009  0.1607484E+03  0.7561462E-02  0.1086375E+00
         22   -1    0    0    0    0  0.00000000000E+00  0.00000000000E+00  0.30310964201E+03  0.30310964201E+03  0.00000000000E+00 0.  1.
         22   -1    0    0    0    0 -0.00000000000E+00 -0.00000000000E+00 -0.36385692128E+03  0.36385692128E+03  0.00000000000E+00 0. -1.
         24    2    1    2    0    0  0.11955556718E+02 -0.10327630779E+03 -0.28489838658E+03  0.31436036816E+03  0.82743092207E+02 0.  0.
         25    2    1    2    0    0 -0.66164410330E+02  0.65718128437E+02  0.82007272368E+02  0.17626382761E+03  0.12508853906E+03 0.  0.
        -24    2    1    2    0    0  0.54208853612E+02  0.37558179349E+02  0.14214383494E+03  0.17634236752E+03  0.80885994611E+02 0.  0.
        -11    1    3    3    0    0  0.98303850634E+01  0.34956973516E+01 -0.35828260896E+00  0.10439575513E+02  0.00000000000E+00 0.  1.
         12    1    3    3    0    0  0.21251716543E+01 -0.10677200514E+03 -0.28454010397E+03  0.30392079265E+03  0.00000000000E+00 0. -1.
         11    1    5    5    0    0 -0.43797194024E+00  0.43389585247E+02  0.92968383065E+02  0.10259614114E+03  0.00000000000E+00 0. -1.
        -12    1    5    5    0    0  0.54646825552E+02 -0.58314058979E+01  0.49175451876E+02  0.73746226377E+02  0.00000000000E+00 0.  1.
          5    1    4    4  501    0 -0.41620609876E+02 -0.27635174974E+02  0.58087189580E+02  0.76730515804E+02  0.41800000000E+01 0.  1.
         -5    1    4    4    0  501 -0.24543800454E+02  0.93353303411E+02  0.23920082788E+02  0.99533311806E+02  0.41800000000E+01 0.  1.
</event>
<event>
11    1  0.6625361E-009  0.1526282E+03  0.7561462E-02  0.1094223E+00
         22   -1    0    0    0    0  0.00000000000E+00  0.00000000000E+00  0.42298108283E+03  0.42298108283E+03  0.00000000000E+00 0.  1.
         22   -1    0    0    0    0 -0.00000000000E+00 -0.00000000000E+00 -0.59144344645E+03  0.59144344645E+03  0.00000000000E+00 0.  1.
         24    2    1    2    0    0 -0.62786125634E+01 -0.17963485218E+02 -0.43194324040E+03  0.43971882686E+03  0.80097290738E+02 0.  0.
         25    2    1    2    0    0 -0.76842426679E+02 -0.11386156087E+02 -0.10942556630E+03  0.18345472672E+03  0.12508908468E+03 0.  0.
        -24    2    1    2    0    0  0.83121039242E+02  0.29349641305E+02  0.37290644309E+03  0.39125097570E+03  0.79041774266E+02 0.  0.
        -13    1    3    3    0    0 -0.88590890590E+01 -0.36110619535E+02 -0.40736498814E+03  0.40905830130E+03  0.00000000000E+00 0.  1.
         14    1    3    3    0    0  0.25804764956E+01  0.18147134317E+02 -0.24578252266E+02  0.30660525555E+02  0.00000000000E+00 0. -1.
         11    1    5    5    0    0  0.18992499944E+02  0.18697571275E+02  0.22540813378E+02  0.34905622663E+02  0.00000000000E+00 0. -1.
        -12    1    5    5    0    0  0.64128539298E+02  0.10652070030E+02  0.35036562971E+03  0.35634535304E+03  0.00000000000E+00 0.  1.
          5    1    4    4  501    0 -0.63458232427E+02  0.51302668114E+02 -0.49071085948E+02  0.95311882231E+02  0.41800000000E+01 0.  1.
         -5    1    4    4    0  501 -0.13384194252E+02 -0.62688824201E+02 -0.60354480356E+02  0.88142844488E+02  0.41800000000E+01 0.  1.
</event>
<event>
11    1  0.6625361E-009  0.2178917E+03  0.7561462E-02  0.1042546E+00
         22   -1    0    0    0    0  0.00000000000E+00  0.00000000000E+00  0.17596623976E+04  0.17596623976E+04  0.00000000000E+00 0. -1.
         22   -1    0    0    0    0 -0.00000000000E+00 -0.00000000000E+00 -0.97242878615E+03  0.97242878615E+03  0.00000000000E+00 0. -1.
        -24    2    1    2    0    0 -0.29734358053E+00 -0.84054910351E+01 -0.78061829454E+03  0.78476521902E+03  0.80129810380E+02 0.  0.
         25    2    1    2    0    0 -0.18449658319E+02 -0.16926292180E+03 -0.12355878129E+03  0.24475395741E+03  0.12508957050E+03 0.  0.
         24    2    1    2    0    0  0.18747001900E+02  0.17766841283E+03  0.16914106873E+04  0.17025720074E+04  0.77225721659E+02 0.  0.
        -11    1    5    5    0    0 -0.10691095600E+01 -0.79174354466E+01  0.68265401170E+02  0.68731315834E+02  0.00000000000E+00 0.  1.
         12    1    5    5    0    0  0.19816111460E+02  0.18558584828E+03  0.16231452861E+04  0.16338406915E+04  0.00000000000E+00 0. -1.
         13    1    3    3    0    0 -0.26200244718E+02 -0.32957628174E+02 -0.52211418546E+03  0.52380901170E+03  0.00000000000E+00 0. -1.
        -14    1    3    3    0    0  0.25902901137E+02  0.24552137139E+02 -0.25850410909E+03  0.26095620732E+03  0.00000000000E+00 0.  1.
          5    1    4    4  501    0  0.24104214288E+02 -0.12723365355E+03 -0.28969576901E+02  0.13276341563E+03  0.41800000000E+01 0.  1.
         -5    1    4    4    0  501 -0.42553872608E+02 -0.42029268246E+02 -0.94589204387E+02  0.11199054179E+03  0.41800000000E+01 0.  1.
</event>
<event>
11    1  0.6625361E-009  0.1584021E+03  0.7561462E-02  0.1088590E+00
         22   -1    0    0    0    0  0.00000000000E+00  0.00000000000E+00  0.39389224977E+02  0.39389224977E+02  0.00000000000E+00 0. -1.
         22   -1    0    0    0    0 -0.00000000000E+00 -0.00000000000E+00 -0.27577335363E+04  0.27577335363E+04  0.00000000000E+00 0.  1.
        -24    2    1    2    0    0 -0.81896025620E+02  0.60422568948E+02 -0.22540051711E+04  0.22577680210E+04  0.81358953155E+02 0.  0.
         25    2    1    2    0    0  0.70589952830E+02 -0.15401055845E+02 -0.40386148544E+03  0.42892067545E+03  0.12509481380E+03 0.  0.
         24    2    1    2    0    0  0.11306072790E+02 -0.45021513103E+02 -0.60477654787E+02  0.11043406488E+03  0.79896007622E+02 0.  0.
        -13    1    5    5    0    0 -0.24537496172E+02 -0.16010189990E+02 -0.57123689596E+02  0.64199149644E+02  0.00000000000E+00 0.  1.
         14    1    5    5    0    0  0.35843568962E+02 -0.29011323113E+02 -0.33539651911E+01  0.46234915239E+02  0.00000000000E+00 0. -1.
         11    1    3    3    0    0  0.16766494757E+02  0.91879209714E+01 -0.32376948734E+03  0.32433349221E+03  0.00000000000E+00 0. -1.
        -12    1    3    3    0    0 -0.98662520378E+02  0.51234647976E+02 -0.19302356838E+04  0.19334345288E+04  0.00000000000E+00 0.  1.
          5    1    4    4  501    0  0.24912855969E+02  0.52481128954E+02 -0.22098733632E+03  0.22853401170E+03  0.41800000000E+01 0. -1.
         -5    1    4    4    0  501  0.45677096861E+02 -0.67882184799E+02 -0.18287414913E+03  0.20038666375E+03  0.41800000000E+01 0. -1.
</event>
<event>
11    1  0.6625361E-009  0.2462000E+03  0.7561462E-02  0.1025943E+00
         22   -1    0    0    0    0  0.00000000000E+00  0.00000000000E+00  0.11997775403E+04  0.11997775403E+04  0.00000000000E+00 0.  1.
         22   -1    0    0    0    0 -0.00000000000E+00 -0.00000000000E+00 -0.50436796606E+03  0.50436796606E+03  0.00000000000E+00 0.  1.
         24    2    1    2    0    0 -0.10569440571E+03  0.18386290677E+03 -0.45270579805E+03  0.50648435994E+03  0.81283401688E+02 0.  0.
         25    2    1    2    0    0  0.13199145412E+03 -0.16786258843E+03  0.74710572371E+03  0.78702860681E+03  0.12508985963E+03 0.  0.
        -24    2    1    2    0    0 -0.26297048411E+02 -0.16000318339E+02  0.40100964861E+03  0.41063253962E+03  0.82842014586E+02 0.  0.
        -13    1    3    3    0    0 -0.93937553320E+02  0.18015387560E+03 -0.45017391482E+03  0.49389901437E+03  0.00000000000E+00 0.  1.
         14    1    3    3    0    0 -0.11756852390E+02  0.37090311688E+01 -0.25318832359E+01  0.12585345567E+02  0.00000000000E+00 0. -1.
         11    1    5    5    0    0 -0.69657078995E+01 -0.17519246448E+02  0.14884206507E+02  0.24020505532E+02  0.00000000000E+00 0. -1.
        -12    1    5    5    0    0 -0.19331340512E+02  0.15189281093E+01  0.38612544210E+03  0.38661203409E+03  0.00000000000E+00 0.  1.
          5    1    4    4  501    0  0.14526474706E+03 -0.17538834723E+03  0.72432058927E+03  0.75928960714E+03  0.41800000000E+01 0.  1.
         -5    1    4    4    0  501 -0.13273292942E+02  0.75257587926E+01  0.22785134445E+02  0.27738999668E+02  0.41800000000E+01 0.  1.
</event>
<event>
11    1  0.6625361E-009  0.1260681E+03  0.7561462E-02  0.1124197E+00
         22   -1    0    0    0    0  0.00000000000E+00  0.00000000000E+00  0.28964774680E+03  0.28964774680E+03  0.00000000000E+00 0.  1.
         22   -1    0    0    0    0 -0.00000000000E+00 -0.00000000000E+00 -0.51475983186E+03  0.51475983186E+03  0.00000000000E+00 0. -1.
        -24    2    1    2    0    0  0.12814886528E+02 -0.10339426348E+02 -0.41546842013E+03  0.42353196335E+03  0.80586542293E+02 0.  0.
         25    2    1    2    0    0 -0.18794125116E+02 -0.15213877590E+02 -0.43296873301E+02  0.13456322652E+03  0.12509181222E+03 0.  0.
         24    2    1    2    0    0  0.59792385874E+01  0.25553303939E+02  0.23365320838E+03  0.24631238878E+03  0.73397877670E+02 0.  0.
        -13    1    5    5    0    0 -0.29630115601E+02 -0.56366505998E+01  0.10411491331E+03  0.10839571372E+03  0.00000000000E+00 0.  1.
         14    1    5    5    0    0  0.35609354188E+02  0.31189954539E+02  0.12953829507E+03  0.13791667506E+03  0.00000000000E+00 0. -1.
         11    1    3    3    0    0 -0.11050979165E+02 -0.30943700885E+02 -0.34211636900E+03  0.34369062644E+03  0.00000000000E+00 0. -1.
        -12    1    3    3    0    0  0.23865865693E+02  0.20604274536E+02 -0.73352051132E+02  0.79841336911E+02  0.00000000000E+00 0.  1.
          5    1    4    4  501    0 -0.27410025153E+02  0.38151495286E+02 -0.61382215438E+02  0.77408622540E+02  0.41800000000E+01 0. -1.
         -5    1    4    4    0  501  0.86159000377E+01 -0.53365372877E+02  0.18085342137E+02  0.57154603978E+02  0.41800000000E+01 0. -1.
</event>
<event>
11    1  0.6625361E-009  0.1681714E+03  0.7561462E-02  0.1079634E+00
         22   -1    0    0    0    0  0.00000000000E+00  0.00000000000E+00  0.81918184516E+03  0.81918184516E+03  0.00000000000E+00 0. -1.
         22   -1    0    0    0    0 -0.00000000000E+00 -0.00000000000E+00 -0.11960527634E+04  0.11960527634E+04  0.00000000000E+00 0. -1.
        -24    2    1    2    0    0  0.28724151511E+02 -0.15152349516E+02 -0.10033061546E+04  0.10070764194E+04  0.80777496776E+02 0.  0.
         25    2    1    2    0    0 -0.11924030762E+03  0.80021739829E+02 -0.13557417147E+03  0.23377133699E+03  0.12508777807E+03 0.  0.
         24    2    1    2    0    0  0.90516156105E+02 -0.64869390313E+02  0.76200940780E+03  0.77438685224E+03  0.81335398360E+02 0.  0.
        -13    1    5    5    0    0  0.94566299227E+02 -0.44606250303E+02  0.46277840086E+03  0.47444320083E+03  0.00000000000E+00 0.  1.
         14    1    5    5    0    0 -0.40501431214E+01 -0.20263140010E+02  0.29923100695E+03  0.29994365141E+03  0.00000000000E+00 0. -1.
         13    1    3    3    0    0  0.35935705382E+02 -0.20571166953E+02 -0.99075544009E+03  0.99162033556E+03  0.00000000000E+00 0. -1.
        -14    1    3    3    0    0 -0.72115538713E+01  0.54188174370E+01 -0.12550714537E+02  0.15456083820E+02  0.00000000000E+00 0.  1.
          5    1    4    4  501    0 -0.50603874206E+02  0.82258219273E+02 -0.19162178487E+02  0.98548608347E+02  0.41800000000E+01 0.  1.
         -5    1    4    4    0  501 -0.68636433410E+02 -0.22364794439E+01 -0.11641199298E+03  0.13522272864E+03  0.41800000000E+01 0.  1.
</event>
<event>
11    1  0.6625361E-009  0.2398188E+03  0.7561462E-02  0.1029467E+00
         22   -1    0    0    0    0  0.00000000000E+00  0.00000000000E+00  0.24350479779E+03  0.24350479779E+03  0.00000000000E+00 0. -1.
         22   -1    0    0    0    0 -0.00000000000E+00 -0.00000000000E+00 -0.24324026644E+04  0.24324026644E+04  0.00000000000E+00 0.  1.
         24    2    1    2    0    0 -0.12722372573E+03 -0.16475727113E+03 -0.22594314076E+04  0.22703171707E+04  0.77323575779E+02 0.  0.
         25    2    1    2    0    0  0.15305422312E+03  0.75272865068E+02 -0.66650692120E+02  0.22176888793E+03  0.12509006940E+03 0.  0.
        -24    2    1    2    0    0 -0.25830497394E+02  0.89484406065E+02  0.13718423303E+03  0.18382140359E+03  0.79348100805E+02 0.  0.
        -11    1    3    3    0    0 -0.58604068890E+02 -0.21485432735E+02 -0.55503430292E+03  0.55853302331E+03  0.00000000000E+00 0.  1.
         12    1    3    3    0    0 -0.68619656838E+02 -0.14327183840E+03 -0.17043971046E+04  0.17117841474E+04  0.00000000000E+00 0. -1.
         11    1    5    5    0    0 -0.46052033181E+02  0.53680268249E+02  0.11992183124E+03  0.13922502134E+03  0.00000000000E+00 0. -1.
        -12    1    5    5    0    0  0.20221535787E+02  0.35804137816E+02  0.17262401794E+02  0.44596382253E+02  0.00000000000E+00 0.  1.
          5    1    4    4  501    0  0.78233245509E+02 -0.20920614492E+02  0.33642748497E+01  0.81159740998E+02  0.41800000000E+01 0.  1.
         -5    1    4    4    0  501  0.74820977614E+02  0.96193479560E+02 -0.70014966970E+02  0.14060914693E+03  0.41800000000E+01 0.  1.
</event>
<event>
11    1  0.6625361E-009  0.1687585E+03  0.7561462E-02  0.1079117E+00
         22   -1    0    0    0    0  0.00000000000E+00  0.00000000000E+00  0.74071586304E+03  0.74071586304E+03  0.00000000000E+00 0.  1.
         22   -1    0    0    0    0 -0.00000000000E+00 -0.00000000000E+00 -0.36944236823E+03  0.36944236823E+03  0.00000000000E+00 0. -1.
        -24    2    1    2    0    0  0.55744850830E+02  0.93769137511E+02 -0.28356175148E+03  0.31414526141E+03  0.79873893258E+02 0.  0.
         25    2    1    2    0    0 -0.77731792073E+02 -0.13185059617E+03  0.77938568098E+02  0.21248291408E+03  0.12509099555E+03 0.  0.
         24    2    1    2    0    0  0.21986941243E+02  0.38081458664E+02  0.57689667818E+03  0.58353005577E+03  0.75920521697E+02 0.  0.
        -11    1    5    5    0    0  0.24240491666E+02  0.58328570876E+02  0.34455672710E+03  0.35029867515E+03  0.00000000000E+00 0.  1.
         12    1    5    5    0    0 -0.22535504226E+01 -0.20247112212E+02  0.23233995108E+03  0.23323138063E+03  0.00000000000E+00 0. -1.
         13    1    3    3    0    0  0.65296940799E+02  0.51446954158E+02 -0.23372743170E+03  0.24807053815E+03  0.00000000000E+00 0. -1.
        -14    1    3    3    0    0 -0.95520899693E+01  0.42322183354E+02 -0.49834319782E+02  0.66074723266E+02  0.00000000000E+00 0.  1.
          5    1    4    4  501    0 -0.75814111912E+02 -0.38512156744E+02 -0.80141022515E+01  0.85514115893E+02  0.41800000000E+01 0.  1.
         -5    1    4    4    0  501 -0.19176801607E+01 -0.93338439431E+02  0.85952670350E+02  0.12696879819E+03  0.41800000000E+01 0.  1.
</event>
<event>
11    1  0.6625361E-009  0.1338796E+03  0.7561462E-02  0.1114592E+00
         22   -1    0    0    0    0  0.00000000000E+00  0.00000000000E+00  0.17220734234E+04  0.17220734234E+04  0.00000000000E+00 0. -1.
         22   -1    0    0    0    0 -0.00000000000E+00 -0.00000000000E+00 -0.21788862663E+03  0.21788862663E+03  0.00000000000E+00 0.  1.
         24    2    1    2    0    0 -0.66967795470E+01  0.15159676030E+02 -0.18210451155E+03  0.19944246784E+03  0.79627772917E+02 0.  0.
         25    2    1    2    0    0 -0.36672441973E+02 -0.34953058059E+02  0.15167907817E+03  0.20303306262E+03  0.12509715223E+03 0.  0.
        -24    2    1    2    0    0  0.43369221520E+02  0.19793382029E+02  0.15346102301E+04  0.15374865196E+04  0.81015875115E+02 0.  0.
        -11    1    3    3    0    0  0.17225984122E+02  0.11791616793E+02 -0.17198944978E+03  0.17325168857E+03  0.00000000000E+00 0.  1.
         12    1    3    3    0    0 -0.23922763669E+02  0.33680592372E+01 -0.10115061768E+02  0.26190779277E+02  0.00000000000E+00 0. -1.
         11    1    5    5    0    0  0.22516614172E+02  0.28699134135E+02  0.14291840745E+04  0.14296495224E+04  0.00000000000E+00 0. -1.
        -12    1    5    5    0    0  0.20852607348E+02 -0.89057521064E+01  0.10542615566E+03  0.10783699714E+03  0.00000000000E+00 0.  1.
          5    1    4    4  501    0  0.58945390832E+01  0.70697428074E+01  0.14192400352E+03  0.14228359719E+03  0.41800000000E+01 0. -1.
         -5    1    4    4    0  501 -0.42566981056E+02 -0.42022800866E+02  0.97550746508E+01  0.60749465432E+02  0.41800000000E+01 0. -1.
</event>
<event>
11    1  0.6625361E-009  0.1383890E+03  0.7561462E-02  0.1109371E+00
         22   -1    0    0    0    0  0.00000000000E+00  0.00000000000E+00  0.17257556514E+03  0.17257556514E+03  0.00000000000E+00 0.  1.
         22   -1    0    0    0    0 -0.00000000000E+00 -0.00000000000E+00 -0.28883897504E+03  0.28883897504E+03  0.00000000000E+00 0.  1.
        -24    2    1    2    0    0 -0.66118917832E+02 -0.26126952230E+02 -0.99849040665E+02  0.14416158677E+03  0.75884143601E+02 0.  0.
         25    2    1    2    0    0  0.43882195533E+02  0.65133640210E+01 -0.12234661069E+03  0.18051112853E+03  0.12508998114E+03 0.  0.
         24    2    1    2    0    0  0.22236722299E+02  0.19613588209E+02  0.10593224146E+03  0.13674182488E+03  0.81225133001E+02 0.  0.
        -11    1    5    5    0    0  0.25316241957E+02 -0.76608751324E+01  0.10604498969E+03  0.10929382852E+03  0.00000000000E+00 0.  1.
         12    1    5    5    0    0 -0.30795196588E+01  0.27274463342E+02 -0.11274823569E+00  0.27447996358E+02  0.00000000000E+00 0. -1.
         13    1    3    3    0    0 -0.68454324426E+02 -0.80090038023E+01 -0.36012606776E+02  0.77762757933E+02  0.00000000000E+00 0. -1.
        -14    1    3    3    0    0  0.23354065942E+01 -0.18117948428E+02 -0.63836433889E+02  0.66398828836E+02  0.00000000000E+00 0.  1.
          5    1    4    4  501    0  0.28210903365E+02 -0.78531290336E+01  0.20526350612E+02  0.36004585454E+02  0.41800000000E+01 0. -1.
         -5    1    4    4    0  501  0.15671292168E+02  0.14366493055E+02 -0.14287296130E+03  0.14450654308E+03  0.41800000000E+01 0. -1.
</event>
<event>
11    1  0.6625361E-009  0.1261315E+03  0.7561462E-02  0.1124116E+00
         22   -1    0    0    0    0  0.00000000000E+00  0.00000000000E+00  0.11191371715E+03  0.11191371715E+03  0.00000000000E+00 0.  1.
         22   -1    0    0    0    0 -0.00000000000E+00 -0.00000000000E+00 -0.74264356170E+03  0.74264356170E+03  0.00000000000E+00 0. -1.
        -24    2    1    2    0    0  0.14996766630E+02  0.31414795323E+01 -0.61824505611E+03  0.62366257179E+03  0.80580904335E+02 0.  0.
         25    2    1    2    0    0 -0.24684270053E+02 -0.25684095683E+02 -0.52226817190E+02  0.14015670666E+03  0.12508907238E+03 0.  0.
         24    2    1    2    0    0  0.96875034237E+01  0.22542616151E+02  0.39742028747E+02  0.90738000400E+02  0.77794206739E+02 0.  0.
        -11    1    5    5    0    0 -0.34239592087E+02  0.75853562084E+01  0.14908648643E+02  0.38107152864E+02  0.00000000000E+00 0.  1.
         12    1    5    5    0    0  0.43927095510E+02  0.14957259942E+02  0.24833380103E+02  0.52630847536E+02  0.00000000000E+00 0. -1.
         11    1    3    3    0    0  0.37389505960E+02 -0.25454233499E+02 -0.37575735825E+03  0.37846992672E+03  0.00000000000E+00 0. -1.
        -12    1    3    3    0    0 -0.22392739330E+02  0.28595713031E+02 -0.24248769787E+03  0.24519264507E+03  0.00000000000E+00 0.  1.
          5    1    4    4  501    0  0.12690975314E+02 -0.57311919279E+02  0.11216873631E+02  0.59908326633E+02  0.41800000000E+01 0. -1.
         -5    1    4    4    0  501 -0.37375245367E+02  0.31627823596E+02 -0.63443690821E+02  0.80248380026E+02  0.41800000000E+01 0. -1.
</event>
<event>
11    1  0.6625361E-009  0.1341337E+03  0.7561462E-02  0.1114292E+00
         22   -1    0    0    0    0  0.00000000000E+00  0.00000000000E+00  0.10233697188E+04  0.10233697188E+04  0.00000000000E+00 0. -1.
         22   -1    0    0    0    0 -0.00000000000E+00 -0.00000000000E+00 -0.66322374019E+03  0.66322374019E+03  0.00000000000E+00 0. -1.
        -24    2    1    2    0    0  0.47713220009E+02  0.70910221025E+01 -0.59294950920E+03  0.59936949069E+03  0.72991999291E+02 0.  0.
         25    2    1    2    0    0 -0.47551451085E+02 -0.35006123319E+02  0.83469755523E+01  0.13857840609E+03  0.12509090081E+03 0.  0.
         24    2    1    2    0    0 -0.16176892455E+00  0.27915101216E+02  0.94474851226E+03  0.94864556221E+03  0.81236520359E+02 0.  0.
        -13    1    5    5    0    0  0.80876969348E+01  0.22405327328E+01  0.82817694654E+01  0.11790612118E+02  0.00000000000E+00 0.  1.
         14    1    5    5    0    0 -0.82494658593E+01  0.25674568484E+02  0.93646674279E+03  0.93685495009E+03  0.00000000000E+00 0. -1.
         13    1    3    3    0    0  0.14655857261E+01 -0.28181813069E+02 -0.24094935707E+03  0.24259628027E+03  0.00000000000E+00 0. -1.
        -14    1    3    3    0    0  0.46247634283E+02  0.35272835172E+02 -0.35200015213E+03  0.35677321042E+03  0.00000000000E+00 0.  1.
          5    1    4    4  501    0  0.15389353326E+02  0.21621479120E+02  0.39921963087E+02  0.48120225393E+02  0.41800000000E+01 0.  1.
         -5    1    4    4    0  501 -0.62940804411E+02 -0.56627602439E+02 -0.31574987535E+02  0.90458180701E+02  0.41800000000E+01 0.  1.
</event>
<event>
11    1  0.6625361E-009  0.2179622E+03  0.7561462E-02  0.1042502E+00
         22   -1    0    0    0    0  0.00000000000E+00  0.00000000000E+00  0.76081599589E+02  0.76081599589E+02  0.00000000000E+00 0.  1.
         22   -1    0    0    0    0 -0.00000000000E+00 -0.00000000000E+00 -0.33709043662E+04  0.33709043662E+04  0.00000000000E+00 0. -1.
        -24    2    1    2    0    0  0.15994158426E+03 -0.11433440809E+02 -0.21588154308E+04  0.21662983895E+04  0.81563559199E+02 0.  0.
         25    2    1    2    0    0 -0.29510752623E+03  0.56713274940E+02 -0.10423316337E+04  0.10919741567E+04  0.12508987522E+03 0.  0.
         24    2    1    2    0    0  0.13516594197E+03 -0.45279834132E+02 -0.93675702165E+02  0.18871341955E+03  0.80731173001E+02 0.  0.
        -11    1    5    5    0    0  0.10651540675E+03 -0.66996861407E+02 -0.84618217725E+02  0.15163889370E+03  0.00000000000E+00 0.  1.
         12    1    5    5    0    0  0.28650535221E+02  0.21717027275E+02 -0.90574844400E+01  0.37074525843E+02  0.00000000000E+00 0. -1.
         13    1    3    3    0    0  0.47991374735E+02 -0.17607699120E+02 -0.31901944146E+03  0.32308916285E+03  0.00000000000E+00 0. -1.
        -14    1    3    3    0    0  0.11195020953E+03  0.61742583113E+01 -0.18397959893E+04  0.18432092267E+04  0.00000000000E+00 0.  1.
          5    1    4    4  501    0 -0.44981234113E+01 -0.21418826450E+02 -0.44864319351E+02  0.50092701979E+02  0.41800000000E+01 0. -1.
         -5    1    4    4    0  501 -0.29060940282E+03  0.78132101391E+02 -0.99746731430E+03  0.10418814548E+04  0.41800000000E+01 0. -1.
</event>
<event>
11    1  0.6625361E-009  0.1656881E+03  0.7561462E-02  0.1081846E+00
         22   -1    0    0    0    0  0.00000000000E+00  0.00000000000E+00  0.18339572653E+04  0.18339572653E+04  0.00000000000E+00 0. -1.
         22   -1    0    0    0    0 -0.00000000000E+00 -0.00000000000E+00 -0.13061893424E+04  0.13061893424E+04  0.00000000000E+00 0.  1.
        -24    2    1    2    0    0  0.35498500796E+02 -0.10299878775E+03 -0.12917444048E+04  0.12987395286E+04  0.79068717576E+02 0.  0.
         25    2    1    2    0    0 -0.53737031229E+01  0.65830831629E+02  0.53288030691E+03  0.55133505564E+03  0.12508535887E+03 0.  0.
         24    2    1    2    0    0 -0.30124797673E+02  0.37167956122E+02  0.12866320207E+04  0.12900720234E+04  0.81085809123E+02 0.  0.
        -13    1    5    5    0    0 -0.28005610921E+02  0.14541869737E+02  0.15339512865E+03  0.15660729776E+03  0.00000000000E+00 0.  1.
         14    1    5    5    0    0 -0.21191867523E+01  0.22626086385E+02  0.11332368921E+04  0.11334647256E+04  0.00000000000E+00 0. -1.
         11    1    3    3    0    0 -0.23510184194E+02 -0.17650656880E+02 -0.21359596786E+03  0.21560962858E+03  0.00000000000E+00 0. -1.
        -12    1    3    3    0    0  0.59008684990E+02 -0.85348130870E+02 -0.10781484369E+04  0.10831299001E+04  0.00000000000E+00 0.  1.
          5    1    4    4  501    0  0.92161427442E+01  0.84073151130E+02  0.19463138890E+03  0.21225475725E+03  0.41800000000E+01 0.  1.
         -5    1    4    4    0  501 -0.14589845867E+02 -0.18242319501E+02  0.33824891801E+03  0.33908029839E+03  0.41800000000E+01 0.  1.
</event>
<event>
11    1  0.6625361E-009  0.1366566E+03  0.7561462E-02  0.1111350E+00
         22   -1    0    0    0    0  0.00000000000E+00  0.00000000000E+00  0.52965603519E+03  0.52965603519E+03  0.00000000000E+00 0.  1.
         22   -1    0    0    0    0 -0.00000000000E+00 -0.00000000000E+00 -0.14232421286E+04  0.14232421286E+04  0.00000000000E+00 0. -1.
         24    2    1    2    0    0  0.34734627502E+02  0.16322473017E+01 -0.13311432290E+04  0.13340353800E+04  0.80616006271E+02 0.  0.
         25    2    1    2    0    0 -0.69910868389E+02 -0.42137311251E+02 -0.20330204274E+02  0.15074553548E+03  0.12509123367E+03 0.  0.
        -24    2    1    2    0    0  0.35176240887E+02  0.40505063949E+02  0.45788733981E+03  0.46811724834E+03  0.81209076503E+02 0.  0.
        -13    1    3    3    0    0 -0.10928584003E+02  0.23790255229E+02 -0.19381815745E+03  0.19557834325E+03  0.00000000000E+00 0.  1.
         14    1    3    3    0    0  0.45663211505E+02 -0.22158007927E+02 -0.11373250715E+04  0.11384570367E+04  0.00000000000E+00 0. -1.
         11    1    5    5    0    0  0.16468015818E+02  0.52951611881E+02  0.15911640514E+03  0.16850251966E+03  0.00000000000E+00 0. -1.
        -12    1    5    5    0    0  0.18708225068E+02 -0.12446547933E+02  0.29877093466E+03  0.29961472868E+03  0.00000000000E+00 0.  1.
          5    1    4    4  501    0 -0.69894541064E+02 -0.74860538042E+02  0.13624371769E+02  0.10340426941E+03  0.41800000000E+01 0. -1.
         -5    1    4    4    0  501 -0.16327325166E-01  0.32723226791E+02 -0.33954576043E+02  0.47341266063E+02  0.41800000000E+01 0. -1.
</event>
<event>
11    1  0.6625361E-009  0.1364326E+03  0.7561462E-02  0.1111609E+00
         22   -1    0    0    0    0  0.00000000000E+00  0.00000000000E+00  0.95729652354E+03  0.95729652354E+03  0.00000000000E+00 0. -1.
         22   -1    0    0    0    0 -0.00000000000E+00 -0.00000000000E+00 -0.55110867735E+03  0.55110867735E+03  0.00000000000E+00 0. -1.
        -24    2    1    2    0    0 -0.51832953135E+01 -0.54967836738E+02 -0.51378454163E+03  0.52249620292E+03  0.77326562182E+02 0.  0.
         25    2    1    2    0    0  0.46801574589E+02  0.23629113543E+02  0.12223954060E+03  0.18258806306E+03  0.12508866094E+03 0.  0.
         24    2    1    2    0    0 -0.41618279276E+02  0.31338723194E+02  0.79773284722E+03  0.80332093492E+03  0.78947021440E+02 0.  0.
        -11    1    5    5    0    0  0.18395774621E+02  0.55188103908E+01  0.67729679792E+02  0.70400080375E+02  0.00000000000E+00 0.  1.
         12    1    5    5    0    0 -0.60014053896E+02  0.25819912804E+02  0.73000316743E+03  0.73292085454E+03  0.00000000000E+00 0. -1.
         13    1    3    3    0    0 -0.20684108874E+02 -0.60438126466E+02 -0.48625197483E+03  0.49042999757E+03  0.00000000000E+00 0. -1.
        -14    1    3    3    0    0  0.15500813560E+02  0.54702897283E+01 -0.27532566799E+02  0.32066205346E+02  0.00000000000E+00 0.  1.
          5    1    4    4  501    0  0.45090584710E+02 -0.38231532657E+02  0.10085715424E+03  0.11698054915E+03  0.41800000000E+01 0.  1.
         -5    1    4    4    0  501  0.17109898794E+01  0.61860646200E+02  0.21382386358E+02  0.65607513907E+02  0.41800000000E+01 0.  1.
</event>
<event>
11    1  0.6625361E-009  0.3955620E+03  0.7561462E-02  0.9662944E-01
         22   -1    0    0    0    0  0.00000000000E+00  0.00000000000E+00  0.15803771597E+04  0.15803771597E+04  0.00000000000E+00 0. -1.
         22   -1    0    0    0    0 -0.00000000000E+00 -0.00000000000E+00 -0.99624279562E+03  0.99624279562E+03  0.00000000000E+00 0.  1.
         24    2    1    2    0    0  0.19942322951E+03 -0.31768079502E+03 -0.81515405268E+03  0.90094021163E+03  0.80786281833E+02 0.  0.
         25    2    1    2    0    0 -0.15423260769E+03  0.34707801324E+03  0.15663863993E+03  0.42945806995E+03  0.12509087007E+03 0.  0.
        -24    2    1    2    0    0 -0.45190621814E+02 -0.29397218224E+02  0.12426497769E+04  0.12462216738E+04  0.77353755836E+02 0.  0.
        -11    1    3    3    0    0  0.19856438983E+03 -0.28604562695E+03 -0.77637678311E+03  0.85088825763E+03  0.00000000000E+00 0.  1.
         12    1    3    3    0    0  0.85883967726E+00 -0.31635168067E+02 -0.38777269566E+02  0.50051954000E+02  0.00000000000E+00 0. -1.
         13    1    5    5    0    0  0.21551566582E+02 -0.14180328273E+02  0.32550278625E+03  0.32652352991E+03  0.00000000000E+00 0. -1.
        -14    1    5    5    0    0 -0.66742188396E+02 -0.15216889951E+02  0.91714699062E+03  0.91969814388E+03  0.00000000000E+00 0.  1.
          5    1    4    4  501    0 -0.13562175812E+03  0.24953483620E+03  0.58940814493E+02  0.29009030967E+03  0.41800000000E+01 0. -1.
         -5    1    4    4    0  501 -0.18610849575E+02  0.97543177040E+02  0.97697825439E+02  0.13936776028E+03  0.41800000000E+01 0. -1.
</event>
<event>
11    1  0.6625361E-009  0.1541969E+03  0.7561462E-02  0.1092666E+00
         22   -1    0    0    0    0  0.00000000000E+00  0.00000000000E+00  0.56405935408E+03  0.56405935408E+03  0.00000000000E+00 0. -1.
         22   -1    0    0    0    0 -0.00000000000E+00 -0.00000000000E+00 -0.20698643992E+03  0.20698643992E+03  0.00000000000E+00 0. -1.
         24    2    1    2    0    0  0.86877174045E+02 -0.12324882132E+02 -0.14753215401E+03  0.18877731654E+03  0.78559485022E+02 0.  0.
         25    2    1    2    0    0  0.46632931780E+01  0.76344765807E+02  0.19997196657E+03  0.24796625554E+03  0.12509279316E+03 0.  0.
        -24    2    1    2    0    0 -0.91540467223E+02 -0.64019883675E+02  0.30463310159E+03  0.33430222192E+03  0.80488796444E+02 0.  0.
        -11    1    3    3    0    0 -0.14077342799E+02 -0.49807261061E+01 -0.98404901587E+01  0.17883357050E+02  0.00000000000E+00 0.  1.
         12    1    3    3    0    0  0.10095451684E+03 -0.73441560257E+01 -0.13769166385E+03  0.17089395949E+03  0.00000000000E+00 0. -1.
         13    1    5    5    0    0 -0.53705364035E+02 -0.79941657272E+02  0.22386243796E+03  0.24369925282E+03  0.00000000000E+00 0. -1.
        -14    1    5    5    0    0 -0.37835103188E+02  0.15921773598E+02  0.80770663627E+02  0.90602969105E+02  0.00000000000E+00 0.  1.
          5    1    4    4  501    0  0.12895843273E+02 -0.13862354654E+02 -0.80851482312E+01  0.21007371854E+02  0.41800000000E+01 0. -1.
         -5    1    4    4    0  501 -0.82325500951E+01  0.90207120460E+02  0.20805711480E+03  0.22695888368E+03  0.41800000000E+01 0. -1.
</event>
<event>
11    1  0.6625361E-009  0.1387120E+03  0.7561462E-02  0.1109005E+00
         22   -1    0    0    0    0  0.00000000000E+00  0.00000000000E+00  0.67008550785E+03  0.67008550785E+03  0.00000000000E+00 0. -1.
         22   -1    0    0    0    0 -0.00000000000E+00 -0.00000000000E+00 -0.27639029827E+03  0.27639029827E+03  0.00000000000E+00 0.  1.
        -24    2    1    2    0    0 -0.37270330682E+01  0.61348069345E+02 -0.22134199141E+03  0.24348439578E+03  0.80714914596E+02 0.  0.
         25    2    1    2    0    0  0.51334333357E+02 -0.18644487695E+02  0.80027087332E+02  0.15822041700E+03  0.12508611012E+03 0.  0.
         24    2    1    2    0    0 -0.47607300289E+02 -0.42703581649E+02  0.53501011366E+03  0.54477099334E+03  0.80309168496E+02 0.  0.
        -13    1    5    5    0    0 -0.51142999438E+01  0.75565365636E+01  0.44637322861E+01  0.10157864671E+02  0.00000000000E+00 0.  1.
         14    1    5    5    0    0 -0.42493000345E+02 -0.50260118213E+02  0.53054638137E+03  0.53461312867E+03  0.00000000000E+00 0. -1.
         13    1    3    3    0    0  0.28096612277E+02  0.47963148611E+02 -0.76366478679E+02  0.94454869181E+02  0.00000000000E+00 0. -1.
        -14    1    3    3    0    0 -0.31823645345E+02  0.13384920733E+02 -0.14497551273E+03  0.14902952660E+03  0.00000000000E+00 0.  1.
          5    1    4    4  501    0 -0.39527787662E+02  0.43237205961E+01  0.38914915858E+02  0.55794118270E+02  0.41800000000E+01 0. -1.
         -5    1    4    4    0  501  0.90862121019E+02 -0.22968208291E+02  0.41112171473E+02  0.10242629873E+03  0.41800000000E+01 0. -1.
</event>
<event>
11    1  0.6625361E-009  0.1381131E+03  0.7561462E-02  0.1109684E+00
         22   -1    0    0    0    0  0.00000000000E+00  0.00000000000E+00  0.19470257359E+03  0.19470257359E+03  0.00000000000E+00 0. -1.
         22   -1    0    0    0    0 -0.00000000000E+00 -0.00000000000E+00 -0.29451881701E+03  0.29451881701E+03  0.00000000000E+00 0.  1.
        -24    2    1    2    0    0  0.20924141036E+02  0.57159003831E+02 -0.17229080397E+03  0.19951992650E+03  0.80119339372E+02 0.  0.
         25    2    1    2    0    0 -0.12853004186E+02 -0.49034531575E+02 -0.49110773238E+02  0.14362598300E+03  0.12508784890E+03 0.  0.
         24    2    1    2    0    0 -0.80711368500E+01 -0.81244722555E+01  0.12158533379E+03  0.14607548110E+03  0.80149251310E+02 0.  0.
        -11    1    5    5    0    0 -0.21297185720E+01 -0.20626751939E+02 -0.27979665375E+01  0.20924321100E+02  0.00000000000E+00 0.  1.
         12    1    5    5    0    0 -0.59414182781E+01  0.12502279684E+02  0.12438330033E+03  0.12515116000E+03  0.00000000000E+00 0. -1.
         11    1    3    3    0    0 -0.32889253771E+01 -0.17130795071E+02 -0.61649144761E+02  0.64069479627E+02  0.00000000000E+00 0. -1.
        -12    1    3    3    0    0  0.24213066413E+02  0.74289798902E+02 -0.11064165921E+03  0.13545044687E+03  0.00000000000E+00 0.  1.
          5    1    4    4  501    0 -0.26333954268E+02  0.28487899172E+02 -0.51717742091E+02  0.64786069441E+02  0.41800000000E+01 0.  1.
         -5    1    4    4    0  501  0.13480950082E+02 -0.77522430747E+02  0.26069688531E+01  0.78839913563E+02  0.41800000000E+01 0.  1.
</event>
<event>
11    1  0.6625361E-009  0.1481115E+03  0.7561462E-02  0.1098824E+00
         22   -1    0    0    0    0  0.00000000000E+00  0.00000000000E+00  0.21530428649E+03  0.21530428649E+03  0.00000000000E+00 0.  1.
         22   -1    0    0    0    0 -0.00000000000E+00 -0.00000000000E+00 -0.61863026061E+03  0.61863026061E+03  0.00000000000E+00 0.  1.
        -24    2    1    2    0    0  0.47114899213E+02  0.11448543566E+02 -0.48685603948E+03  0.49625803961E+03  0.83020213351E+02 0.  0.
         25    2    1    2    0    0 -0.57054374793E+02 -0.86904438540E+02 -0.44201946144E+02  0.16855184004E+03  0.12509327567E+03 0.  0.
         24    2    1    2    0    0  0.99394755794E+01  0.75455894974E+02  0.12773201150E+03  0.16912466745E+03  0.80593430975E+02 0.  0.
        -13    1    5    5    0    0  0.31928820653E+02  0.28929554324E+02  0.10376846794E+03  0.11235774846E+03  0.00000000000E+00 0.  1.
         14    1    5    5    0    0 -0.21989345073E+02  0.46526340650E+02  0.23963543566E+02  0.56766918987E+02  0.00000000000E+00 0. -1.
         11    1    3    3    0    0  0.41401890244E+02  0.43279920685E+02 -0.37744518652E+03  0.38216768162E+03  0.00000000000E+00 0. -1.
        -12    1    3    3    0    0  0.57130089698E+01 -0.31831377119E+02 -0.10941085296E+03  0.11409035799E+03  0.00000000000E+00 0.  1.
          5    1    4    4  501    0 -0.88018255708E+02 -0.25001605844E+02 -0.12998596045E+02  0.92513401904E+02  0.41800000000E+01 0. -1.
         -5    1    4    4    0  501  0.30963880915E+02 -0.61902832696E+02 -0.31203350098E+02  0.76038438138E+02  0.41800000000E+01 0. -1.
</event>
<event>
11    1  0.6625361E-009  0.2868981E+03  0.7561462E-02  0.1005894E+00
         22   -1    0    0    0    0  0.00000000000E+00  0.00000000000E+00  0.66819133596E+03  0.66819133596E+03  0.00000000000E+00 0. -1.
         22   -1    0    0    0    0 -0.00000000000E+00 -0.00000000000E+00 -0.63037224491E+03  0.63037224491E+03  0.00000000000E+00 0.  1.
         24    2    1    2    0    0 -0.73302885156E+02 -0.24218676422E+03 -0.49672090276E+03  0.56303353627E+03  0.79040280811E+02 0.  0.
         25    2    1    2    0    0  0.64260235899E+02  0.29703582175E+03  0.19481405241E+03  0.38204661582E+03  0.12508974508E+03 0.  0.
        -24    2    1    2    0    0  0.90426492566E+01 -0.54849057525E+02  0.33972594140E+03  0.35348342877E+03  0.80290911955E+02 0.  0.
        -11    1    3    3    0    0 -0.25799104130E+02 -0.20613137339E+02 -0.10957657662E+03  0.11444440287E+03  0.00000000000E+00 0.  1.
         12    1    3    3    0    0 -0.47503781026E+02 -0.22157362688E+03 -0.38714432614E+03  0.44858913340E+03  0.00000000000E+00 0. -1.
         11    1    5    5    0    0 -0.17993402004E+02 -0.64955693216E+02  0.20862446033E+03  0.21924226337E+03  0.00000000000E+00 0. -1.
        -12    1    5    5    0    0  0.27036051260E+02  0.10106635691E+02  0.13110148107E+03  0.13424116541E+03  0.00000000000E+00 0.  1.
          5    1    4    4  501    0  0.10158344153E+03  0.23589036084E+03  0.15394100146E+03  0.29946412517E+03  0.41800000000E+01 0. -1.
         -5    1    4    4    0  501 -0.37323205635E+02  0.61145460908E+02  0.40873050955E+02  0.82582490656E+02  0.41800000000E+01 0. -1.
</event>
<event>
11    1  0.6625361E-009  0.1408738E+03  0.7561462E-02  0.1106587E+00
         22   -1    0    0    0    0  0.00000000000E+00  0.00000000000E+00  0.71207461715E+02  0.71207461715E+02  0.00000000000E+00 0.  1.
         22   -1    0    0    0    0 -0.00000000000E+00 -0.00000000000E+00 -0.79348349089E+03  0.79348349089E+03  0.00000000000E+00 0.  1.
        -24    2    1    2    0    0  0.49204674778E+02 -0.34689208385E+02 -0.52459339973E+03  0.53440544442E+03  0.82258755051E+02 0.  0.
         25    2    1    2    0    0 -0.94570790963E+02  0.27130881597E+02 -0.17170557195E+03  0.23411355450E+03  0.12508650496E+03 0.  0.
         24    2    1    2    0    0  0.45366116185E+02  0.75583267879E+01 -0.25977057486E+02  0.96171953680E+02  0.80368055579E+02 0.  0.
        -11    1    5    5    0    0 -0.36261602285E+01  0.35202336533E+02 -0.33799486886E+01  0.35549649626E+02  0.00000000000E+00 0.  1.
         12    1    5    5    0    0  0.48992276413E+02 -0.27644009745E+02 -0.22597108798E+02  0.60622304055E+02  0.00000000000E+00 0. -1.
         11    1    3    3    0    0 -0.13600997058E+02  0.40558831436E+01 -0.20467122582E+02  0.24906633973E+02  0.00000000000E+00 0. -1.
        -12    1    3    3    0    0  0.62805671836E+02 -0.38745091528E+02 -0.50412627715E+03  0.50949881045E+03  0.00000000000E+00 0.  1.
          5    1    4    4  501    0 -0.69661992534E+02  0.14437441829E+02 -0.18830047584E+03  0.20133498090E+03  0.41800000000E+01 0. -1.
         -5    1    4    4    0  501 -0.24908798429E+02  0.12693439768E+02  0.16594903892E+02  0.32778573603E+02  0.41800000000E+01 0. -1.
</event>
<event>
11    1  0.6625361E-009  0.1637893E+03  0.7561462E-02  0.1083567E+00
         22   -1    0    0    0    0  0.00000000000E+00  0.00000000000E+00  0.98160125030E+03  0.98160125030E+03  0.00000000000E+00 0.  1.
         22   -1    0    0    0    0 -0.00000000000E+00 -0.00000000000E+00 -0.28993008734E+03  0.28993008734E+03  0.00000000000E+00 0. -1.
        -24    2    1    2    0    0  0.10729411735E+01 -0.10279187028E+03 -0.20961864029E+03  0.24694171103E+03  0.80454424942E+02 0.  0.
         25    2    1    2    0    0 -0.28204833419E+02  0.12659007268E+03  0.77739400242E+02  0.19624295717E+03  0.12508926716E+03 0.  0.
         24    2    1    2    0    0  0.27131892245E+02 -0.23798202392E+02  0.82355040301E+03  0.82834666944E+03  0.81366113729E+02 0.  0.
        -11    1    5    5    0    0  0.42848955931E+02 -0.41819878416E+02  0.69625906716E+03  0.69882875146E+03  0.00000000000E+00 0.  1.
         12    1    5    5    0    0 -0.15717063686E+02  0.18021676023E+02  0.12729133585E+03  0.12951791799E+03  0.00000000000E+00 0. -1.
         13    1    3    3    0    0 -0.55869660458E+01 -0.11448252969E+03 -0.19959285767E+03  0.23016249179E+03  0.00000000000E+00 0. -1.
        -14    1    3    3    0    0  0.66599072194E+01  0.11690659402E+02 -0.10025782622E+02  0.16779219249E+02  0.00000000000E+00 0.  1.
          5    1    4    4  501    0  0.12764261487E+02 -0.21828124591E+02  0.59611878172E+01  0.26313524178E+02  0.41800000000E+01 0. -1.
         -5    1    4    4    0  501 -0.40969094906E+02  0.14841819727E+03  0.71778212425E+02  0.16992943299E+03  0.41800000000E+01 0. -1.
</event>
<event>
11    1  0.6625361E-009  0.1270911E+03  0.7561462E-02  0.1122896E+00
         22   -1    0    0    0    0  0.00000000000E+00  0.00000000000E+00  0.22701283333E+03  0.22701283333E+03  0.00000000000E+00 0.  1.
         22   -1    0    0    0    0 -0.00000000000E+00 -0.00000000000E+00 -0.12220170505E+04  0.12220170505E+04  0.00000000000E+00 0.  1.
         24    2    1    2    0    0 -0.29987657568E+01 -0.26681680327E+02 -0.76918958676E+03  0.77379388462E+03  0.79896500761E+02 0.  0.
         25    2    1    2    0    0  0.13932755072E+01  0.37423232223E+01 -0.43304799227E+03  0.45076957540E+03  0.12508677109E+03 0.  0.
        -24    2    1    2    0    0  0.16054902496E+01  0.22939357105E+02  0.20723336190E+03  0.22446642378E+03  0.83130724860E+02 0.  0.
        -11    1    3    3    0    0  0.25442530712E+02 -0.28258862167E+02 -0.65508089979E+03  0.65618356496E+03  0.00000000000E+00 0.  1.
         12    1    3    3    0    0 -0.28441296469E+02  0.15771818391E+01 -0.11410868697E+03  0.11761031966E+03  0.00000000000E+00 0. -1.
         11    1    5    5    0    0 -0.17675584809E+02 -0.26438857341E+02  0.58769022297E+02  0.66822432293E+02  0.00000000000E+00 0. -1.
        -12    1    5    5    0    0  0.19281075059E+02  0.49378214446E+02  0.14846433960E+03  0.15764399148E+03  0.00000000000E+00 0.  1.
          5    1    4    4  501    0 -0.14978520785E+02 -0.47639643738E+02 -0.86031204882E+02  0.99562705637E+02  0.41800000000E+01 0. -1.
         -5    1    4    4    0  501  0.16371796292E+02  0.51381966960E+02 -0.34701678738E+03  0.35120686976E+03  0.41800000000E+01 0. -1.
</event>
<event>
11    1  0.6625361E-009  0.1698711E+03  0.7561462E-02  0.1078144E+00
         22   -1    0    0    0    0  0.00000000000E+00  0.00000000000E+00  0.16001033232E+04  0.16001033232E+04  0.00000000000E+00 0.  1.
         22   -1    0    0    0    0 -0.00000000000E+00 -0.00000000000E+00 -0.26036885155E+03  0.26036885155E+03  0.00000000000E+00 0. -1.
         24    2    1    2    0    0  0.69283493809E+01  0.53076733464E+01 -0.22824563516E+03  0.24219795452E+03  0.80545675142E+02 0.  0.
         25    2    1    2    0    0  0.11613075401E+02  0.10910499264E+03  0.30413644947E+03  0.34667695634E+03  0.12508864547E+03 0.  0.
        -24    2    1    2    0    0 -0.18541424782E+02 -0.11441266599E+03  0.12638436574E+04  0.12715972639E+04  0.78897203734E+02 0.  0.
        -11    1    3    3    0    0 -0.33090391208E+02 -0.98971052609E+01 -0.13883918305E+03  0.14307077072E+03  0.00000000000E+00 0.  1.
         12    1    3    3    0    0  0.40018740589E+02  0.15204778607E+02 -0.89406452102E+02  0.99127183801E+02  0.00000000000E+00 0. -1.
         13    1    5    5    0    0  0.28784226790E+02 -0.29272383493E+02  0.28948077747E+03  0.29237736689E+03  0.00000000000E+00 0. -1.
        -14    1    5    5    0    0 -0.47325651572E+02 -0.85140282497E+02  0.97436287988E+03  0.97921989700E+03  0.00000000000E+00 0.  1.
          5    1    4    4  501    0 -0.57581880007E+01  0.11579545772E+02  0.20842831414E+03  0.20887095812E+03  0.41800000000E+01 0.  1.
         -5    1    4    4    0  501  0.17371263402E+02  0.97525446872E+02  0.95708135325E+02  0.13780599823E+03  0.41800000000E+01 0.  1.
</event>
<event>
11    1  0.6625361E-009  0.3591091E+03  0.7561462E-02  0.9778764E-01
         22   -1    0    0    0    0  0.00000000000E+00  0.00000000000E+00  0.67033859422E+03  0.67033859422E+03  0.00000000000E+00 0. -1.
         22   -1    0    0    0    0 -0.00000000000E+00 -0.00000000000E+00 -0.24786527089E+04  0.24786527089E+04  0.00000000000E+00 0.  1.
         24    2    1    2    0    0  0.54837025804E+02 -0.32334034571E+03 -0.20907335680E+04  0.21180070208E+04  0.85034165266E+02 0.  0.
         25    2    1    2    0    0  0.11366194670E+02  0.43183097281E+03 -0.22537815884E+03  0.50304175316E+03  0.12509401059E+03 0.  0.
        -24    2    1    2    0    0 -0.66203220474E+02 -0.10849062710E+03  0.50779761208E+03  0.52794252922E+03  0.68642674465E+02 0.  0.
        -11    1    3    3    0    0  0.63130991608E+02 -0.26549744015E+03 -0.18636871149E+04  0.18835615400E+04  0.00000000000E+00 0.  1.
         12    1    3    3    0    0 -0.82939658046E+01 -0.57842905556E+02 -0.22704645307E+03  0.23444548075E+03  0.00000000000E+00 0. -1.
         11    1    5    5    0    0 -0.62596749826E+02 -0.11026265580E+03  0.50831630080E+03  0.52389089323E+03  0.00000000000E+00 0. -1.
        -12    1    5    5    0    0 -0.36064706482E+01  0.17720286981E+01 -0.51868871608E+00  0.40516359940E+01  0.00000000000E+00 0.  1.
          5    1    4    4  501    0 -0.21587578372E+02  0.30359902400E+03 -0.20973939856E+03  0.36965724479E+03  0.41800000000E+01 0.  1.
         -5    1    4    4    0  501  0.32953773042E+02  0.12823194880E+03 -0.15638760285E+02  0.13338450838E+03  0.41800000000E+01 0.  1.
</event>
<event>
11    1  0.6625361E-009  0.1933376E+03  0.7561462E-02  0.1059338E+00
         22   -1    0    0    0    0  0.00000000000E+00  0.00000000000E+00  0.90919905679E+03  0.90919905679E+03  0.00000000000E+00 0. -1.
         22   -1    0    0    0    0 -0.00000000000E+00 -0.00000000000E+00 -0.21869243105E+03  0.21869243105E+03  0.00000000000E+00 0.  1.
        -24    2    1    2    0    0  0.21132490799E+02  0.14362068257E+03 -0.15309372206E+03  0.22588136110E+03  0.80692124326E+02 0.  0.
         25    2    1    2    0    0 -0.14797918602E+02 -0.17809145607E+03  0.46534720363E+03  0.51392325772E+03  0.12503419444E+03 0.  0.
         24    2    1    2    0    0 -0.63345721972E+01  0.34470773503E+02  0.37825314417E+03  0.38808686902E+03  0.79420499855E+02 0.  0.
        -11    1    5    5    0    0  0.25675354182E+02 -0.12922522674E+02  0.15374808715E+03  0.15641192316E+03  0.00000000000E+00 0.  1.
         12    1    5    5    0    0 -0.32009926379E+02  0.47393296176E+02  0.22450505703E+03  0.23167494586E+03  0.00000000000E+00 0. -1.
         13    1    3    3    0    0  0.21961403703E+02  0.13308803683E+03 -0.90575312667E+02  0.16247650927E+03  0.00000000000E+00 0. -1.
        -14    1    3    3    0    0 -0.82891290368E+00  0.10532645746E+02 -0.62518409391E+02  0.63404851832E+02  0.00000000000E+00 0.  1.
          5    1    4    4  501    0  0.21708944590E+02 -0.12389966941E+02  0.87664144702E+01  0.26816263324E+02  0.41800000000E+01 0.  1.
         -5    1    4    4    0  501 -0.36506863192E+02 -0.16570148913E+03  0.45658078916E+03  0.48710699440E+03  0.41800000000E+01 0.  1.
</event>
<event>
11    1  0.6625361E-009  0.1774163E+03  0.7561462E-02  0.1071752E+00
         22   -1    0    0    0    0  0.00000000000E+00  0.00000000000E+00  0.63872172034E+03  0.63872172034E+03  0.00000000000E+00 0. -1.
         22   -1    0    0    0    0 -0.00000000000E+00 -0.00000000000E+00 -0.40121527484E+03  0.40121527484E+03  0.00000000000E+00 0. -1.
         24    2    1    2    0    0 -0.11849431690E+03 -0.20715307446E+02 -0.14962748914E+03  0.20867241684E+03  0.81766527029E+02 0.  0.
         25    2    1    2    0    0  0.13388628885E+03  0.17060335239E+01 -0.18094540140E+03  0.25752203658E+03  0.12509161500E+03 0.  0.
        -24    2    1    2    0    0 -0.15391971949E+02  0.19009273922E+02  0.56807933604E+03  0.57374254176E+03  0.76603569707E+02 0.  0.
        -13    1    3    3    0    0  0.96117383120E+01  0.89453651433E+01 -0.78276454235E+01  0.15286500705E+02  0.00000000000E+00 0.  1.
         14    1    3    3    0    0 -0.12810605522E+03 -0.29660672589E+02 -0.14179984372E+03  0.19338591614E+03  0.00000000000E+00 0. -1.
         11    1    5    5    0    0 -0.18067030426E+02 -0.33659091274E+01  0.52320714486E+03  0.52352981135E+03  0.00000000000E+00 0. -1.
        -12    1    5    5    0    0  0.26750584770E+01  0.22375183049E+02  0.44872191174E+02  0.50212730408E+02  0.00000000000E+00 0.  1.
          5    1    4    4  501    0  0.69434933177E+02  0.39180314810E+02 -0.16181704273E+03  0.18043983687E+03  0.41800000000E+01 0. -1.
         -5    1    4    4    0  501  0.64451355675E+02 -0.37474281286E+02 -0.19128358676E+02  0.77082199709E+02  0.41800000000E+01 0. -1.
</event>
<event>
11    1  0.6625361E-009  0.1397975E+03  0.7561462E-02  0.1107785E+00
         22   -1    0    0    0    0  0.00000000000E+00  0.00000000000E+00  0.19344491927E+04  0.19344491927E+04  0.00000000000E+00 0.  1.
         22   -1    0    0    0    0 -0.00000000000E+00 -0.00000000000E+00 -0.15220684281E+03  0.15220684281E+03  0.00000000000E+00 0. -1.
         24    2    1    2    0    0  0.57075607542E+01  0.19263082419E+02 -0.12642520841E+03  0.15106318629E+03  0.80206672650E+02 0.  0.
         25    2    1    2    0    0  0.56738519067E+02 -0.26049120184E+02  0.40358414974E+03  0.42711386850E+03  0.12509306349E+03 0.  0.
        -24    2    1    2    0    0 -0.62446079821E+02  0.67860377649E+01  0.15050834085E+04  0.15084789807E+04  0.79291899728E+02 0.  0.
        -11    1    3    3    0    0 -0.34672678191E+02  0.22952779196E+02 -0.55263763934E+02  0.69160019447E+02  0.00000000000E+00 0.  1.
         12    1    3    3    0    0  0.40380238946E+02 -0.36896967764E+01 -0.71161444473E+02  0.81903166844E+02  0.00000000000E+00 0. -1.
         11    1    5    5    0    0 -0.34971065766E+00 -0.28632323342E+02  0.53451614665E+03  0.53528258263E+03  0.00000000000E+00 0. -1.
        -12    1    5    5    0    0 -0.62096369163E+02  0.35418361107E+02  0.97056726188E+03  0.97319639806E+03  0.00000000000E+00 0.  1.
          5    1    4    4  501    0 -0.73745914141E+01  0.85515640185E+01 -0.42754163052E+01  0.12777536158E+02  0.41800000000E+01 0.  1.
         -5    1    4    4    0  501  0.64113110481E+02 -0.34600684203E+02  0.40785956605E+03  0.41433633234E+03  0.41800000000E+01 0.  1.
</event>
<event>
11    1  0.6625361E-009  0.1259528E+03  0.7561462E-02  0.1124344E+00
         22   -1    0    0    0    0  0.00000000000E+00  0.00000000000E+00  0.12405727894E+03  0.12405727894E+03  0.00000000000E+00 0. -1.
         22   -1    0    0    0    0 -0.00000000000E+00 -0.00000000000E+00 -0.75255613957E+03  0.75255613957E+03  0.00000000000E+00 0.  1.
        -24    2    1    2    0    0  0.75781755944E+01  0.89212070264E+01 -0.59899870139E+03  0.60800010597E+03  0.10357445590E+03 0.  0.
         25    2    1    2    0    0 -0.25089490224E+02 -0.27169460212E+02 -0.95535458562E+02  0.16168433036E+03  0.12508851567E+03 0.  0.
         24    2    1    2    0    0  0.17511314630E+02  0.18248253185E+02  0.66035299321E+02  0.10692898219E+03  0.80209111654E+02 0.  0.
        -13    1    5    5    0    0  0.10346709284E+01 -0.16975468012E+02 -0.11264338515E+02  0.20399077929E+02  0.00000000000E+00 0.  1.
         14    1    5    5    0    0  0.16476643702E+02  0.35223721197E+02  0.77299637836E+02  0.86529904266E+02  0.00000000000E+00 0. -1.
         11    1    3    3    0    0  0.21540147411E+02 -0.43306168881E+02 -0.22717612901E+03  0.23226793969E+03  0.00000000000E+00 0. -1.
        -12    1    3    3    0    0 -0.13961971816E+02  0.52227375907E+02 -0.37182257237E+03  0.37573216628E+03  0.00000000000E+00 0.  1.
          5    1    4    4  501    0 -0.38202332780E+02  0.29605271294E+02 -0.90958251157E+02  0.10308620748E+03  0.41800000000E+01 0.  1.
         -5    1    4    4    0  501  0.13112842556E+02 -0.56774731505E+02 -0.45772074057E+01  0.58598122880E+02  0.41800000000E+01 0.  1.
</event>
<event>
11    1  0.6625361E-009  0.1437315E+03  0.7561462E-02  0.1103462E+00
         22   -1    0    0    0    0  0.00000000000E+00  0.00000000000E+00  0.20842446333E+03  0.20842446333E+03  0.00000000000E+00 0. -1.
         22   -1    0    0    0    0 -0.00000000000E+00 -0.00000000000E+00 -0.14073447177E+04  0.14073447177E+04  0.00000000000E+00 0.  1.
        -24    2    1    2    0    0  0.25546152188E+02 -0.66390749026E+02 -0.12516164179E+04  0.12561054435E+04  0.78720329443E+02 0.  0.
         25    2    1    2    0    0 -0.59450313041E+02  0.46008737816E+02 -0.10383196996E+03  0.17911023935E+03  0.12509299012E+03 0.  0.
         24    2    1    2    0    0  0.33904160853E+02  0.20382011210E+02  0.15652813346E+03  0.18055349818E+03  0.80830629320E+02 0.  0.
        -11    1    5    5    0    0 -0.10191269297E+02 -0.23422314275E+02  0.65734682388E+02  0.70523153961E+02  0.00000000000E+00 0.  1.
         12    1    5    5    0    0  0.44095430150E+02  0.43804325486E+02  0.90793451075E+02  0.11003034422E+03  0.00000000000E+00 0. -1.
         11    1    3    3    0    0  0.41665876111E+02 -0.34004927150E+02 -0.38544548044E+03  0.38917939140E+03  0.00000000000E+00 0. -1.
        -12    1    3    3    0    0 -0.16119723922E+02 -0.32385821876E+02 -0.86617093742E+03  0.86692605209E+03  0.00000000000E+00 0.  1.
          5    1    4    4  501    0 -0.69781469214E+02 -0.71851320950E+01 -0.10308038627E+03  0.12475623432E+03  0.41800000000E+01 0.  1.
         -5    1    4    4    0  501  0.10331156172E+02  0.53193869911E+02 -0.75158368730E+00  0.54354005023E+02  0.41800000000E+01 0.  1.
</event>
<event>
11    1  0.6625361E-009  0.1472395E+03  0.7561462E-02  0.1099733E+00
         22   -1    0    0    0    0  0.00000000000E+00  0.00000000000E+00  0.75677449058E+03  0.75677449058E+03  0.00000000000E+00 0.  1.
         22   -1    0    0    0    0 -0.00000000000E+00 -0.00000000000E+00 -0.12075459793E+03  0.12075459793E+03  0.00000000000E+00 0. -1.
        -24    2    1    2    0    0  0.22193944117E+02  0.81034596293E+02 -0.60305094173E+02  0.13077471151E+03  0.80038389760E+02 0.  0.
         25    2    1    2    0    0 -0.38992900616E+02 -0.27874232152E+02  0.19939802094E+03  0.24021912130E+03  0.12509291094E+03 0.  0.
         24    2    1    2    0    0  0.16798956499E+02 -0.53160364141E+02  0.49692696588E+03  0.50653525571E+03  0.80828996003E+02 0.  0.
        -11    1    5    5    0    0  0.40492964243E+02 -0.48781033067E+02  0.44242954890E+03  0.44694873876E+03  0.00000000000E+00 0.  1.
         12    1    5    5    0    0 -0.23694007744E+02 -0.43793310741E+01  0.54497416981E+02  0.59586516942E+02  0.00000000000E+00 0. -1.
         11    1    3    3    0    0  0.19950454734E+02  0.95816365499E+02 -0.40404320347E+02  0.10588345312E+03  0.00000000000E+00 0. -1.
        -12    1    3    3    0    0  0.22434893828E+01 -0.14781769206E+02 -0.19900773826E+02  0.24891258392E+02  0.00000000000E+00 0.  1.
          5    1    4    4  501    0 -0.51857171515E+02 -0.58836930256E+02  0.65939025701E+02  0.10254939351E+03  0.41800000000E+01 0. -1.
         -5    1    4    4    0  501  0.12864270899E+02  0.30962698104E+02  0.13345899524E+03  0.13766972779E+03  0.41800000000E+01 0. -1.
</event>
<event>
11    1  0.6625361E-009  0.1770097E+03  0.7561462E-02  0.1072088E+00
         22   -1    0    0    0    0  0.00000000000E+00  0.00000000000E+00  0.21842454631E+03  0.21842454631E+03  0.00000000000E+00 0.  1.
         22   -1    0    0    0    0 -0.00000000000E+00 -0.00000000000E+00 -0.24014472889E+04  0.24014472889E+04  0.00000000000E+00 0.  1.
        -24    2    1    2    0    0  0.10290688972E+03  0.68083108302E+02 -0.21077761428E+04  0.21129875176E+04  0.82285136909E+02 0.  0.
         25    2    1    2    0    0 -0.13742754384E+03  0.55987291949E+02 -0.22231297238E+03  0.29511227333E+03  0.12508912629E+03 0.  0.
         24    2    1    2    0    0  0.34520654126E+02 -0.12407040025E+03  0.14706637253E+03  0.21177204434E+03  0.81447781160E+02 0.  0.
        -11    1    5    5    0    0  0.14272029648E+02 -0.12798510052E+03  0.13937462695E+03  0.18976080581E+03  0.00000000000E+00 0.  1.
         12    1    5    5    0    0  0.20248624478E+02  0.39147002697E+01  0.76917455774E+01  0.22011238526E+02  0.00000000000E+00 0. -1.
         11    1    3    3    0    0 -0.53361343037E+01  0.22952383026E+02 -0.16490369930E+03  0.16657885898E+03  0.00000000000E+00 0. -1.
        -12    1    3    3    0    0  0.10824302402E+03  0.45130725276E+02 -0.19428724435E+04  0.19464086586E+04  0.00000000000E+00 0.  1.
          5    1    4    4  501    0 -0.89233612243E+02  0.62117765609E+02 -0.57150387895E+02  0.12290196742E+03  0.41800000000E+01 0.  1.
         -5    1    4    4    0  501 -0.48193931600E+02 -0.61304736597E+01 -0.16516258448E+03  0.17221030592E+03  0.41800000000E+01 0.  1.
</event>
<event>
11    1  0.6625361E-009  0.1316397E+03  0.7561462E-02  0.1117271E+00
         22   -1    0    0    0    0  0.00000000000E+00  0.00000000000E+00  0.57374756772E+02  0.57374756772E+02  0.00000000000E+00 0.  1.
         22   -1    0    0    0    0 -0.00000000000E+00 -0.00000000000E+00 -0.21308728647E+04  0.21308728647E+04  0.00000000000E+00 0. -1.
        -24    2    1    2    0    0 -0.59442229557E+01  0.17741279731E+02 -0.18442208948E+04  0.18459776898E+04  0.78312422896E+02 0.  0.
         25    2    1    2    0    0  0.40371997183E+02 -0.34652883119E+02 -0.21016453735E+03  0.25029621277E+03  0.12509332878E+03 0.  0.
         24    2    1    2    0    0 -0.34427774227E+02  0.16911603388E+02 -0.19112675743E+02  0.91973718875E+02  0.81379337809E+02 0.  0.
        -13    1    5    5    0    0 -0.54108776921E+02  0.24037940604E+02  0.57346303154E+01  0.59485025958E+02  0.00000000000E+00 0.  1.
         14    1    5    5    0    0  0.19681002694E+02 -0.71263372155E+01 -0.24847306058E+02  0.32488692918E+02  0.00000000000E+00 0. -1.
         13    1    3    3    0    0  0.79976141578E+01  0.46215295035E+02 -0.89576354242E+03  0.89699060155E+03  0.00000000000E+00 0. -1.
        -14    1    3    3    0    0 -0.13941837113E+02 -0.28474015304E+02 -0.94845735241E+03  0.94898708828E+03  0.00000000000E+00 0.  1.
          5    1    4    4  501    0 -0.10131029201E+02 -0.32392272039E+02 -0.10245587003E+00  0.34196197709E+02  0.41800000000E+01 0.  1.
         -5    1    4    4    0  501  0.50503026383E+02 -0.22606110798E+01 -0.21006208148E+03  0.21610001506E+03  0.41800000000E+01 0.  1.
</event>
<event>
11    1  0.6625361E-009  0.1290885E+03  0.7561462E-02  0.1120394E+00
         22   -1    0    0    0    0  0.00000000000E+00  0.00000000000E+00  0.16599912111E+03  0.16599912111E+03  0.00000000000E+00 0. -1.
         22   -1    0    0    0    0 -0.00000000000E+00 -0.00000000000E+00 -0.37725018683E+03  0.37725018683E+03  0.00000000000E+00 0. -1.
         24    2    1    2    0    0 -0.40403385249E+02  0.29737996625E+02 -0.13526065820E+03  0.16506455357E+03  0.80212712245E+02 0.  0.
         25    2    1    2    0    0  0.32331465133E+02  0.42838663006E+01 -0.18785539618E+03  0.22803982532E+03  0.12509531129E+03 0.  0.
        -24    2    1    2    0    0  0.80719201162E+01 -0.34021862926E+02  0.11186498867E+03  0.15014492905E+03  0.93846049354E+02 0.  0.
        -13    1    3    3    0    0 -0.63643247048E+02  0.11874270588E+02 -0.10108728842E+03  0.12004208045E+03  0.00000000000E+00 0.  1.
         14    1    3    3    0    0  0.23239861799E+02  0.17863726037E+02 -0.34173369781E+02  0.45022473128E+02  0.00000000000E+00 0. -1.
         11    1    5    5    0    0  0.26534044344E+01 -0.62379897511E+02  0.10208062346E+03  0.11966096211E+03  0.00000000000E+00 0. -1.
        -12    1    5    5    0    0  0.54185156818E+01  0.28358034585E+02  0.97843652103E+01  0.30483966938E+02  0.00000000000E+00 0.  1.
          5    1    4    4  501    0  0.55028955636E+02  0.37599151203E+01 -0.20332653501E+02  0.58933964048E+02  0.41800000000E+01 0. -1.
         -5    1    4    4    0  501 -0.22697490503E+02  0.52395118034E+00 -0.16752274268E+03  0.16910586127E+03  0.41800000000E+01 0. -1.
</event>
<event>
11    1  0.6625361E-009  0.1331208E+03  0.7561462E-02  0.1115493E+00
         22   -1    0    0    0    0  0.00000000000E+00  0.00000000000E+00  0.70592566687E+03  0.70592566687E+03  0.00000000000E+00 0. -1.
         22   -1    0    0    0    0 -0.00000000000E+00 -0.00000000000E+00 -0.45491054191E+03  0.45491054191E+03  0.00000000000E+00 0.  1.
         24    2    1    2    0    0  0.49200245783E+01  0.36472149108E+02 -0.42711233458E+03  0.43635644715E+03  0.81409939875E+02 0.  0.
         25    2    1    2    0    0  0.31609523093E+02 -0.57657015359E+02  0.25048961817E+03  0.28760452757E+03  0.12509125508E+03 0.  0.
        -24    2    1    2    0    0 -0.36529547671E+02  0.21184866251E+02  0.42763784138E+03  0.43687523406E+03  0.78756843169E+02 0.  0.
        -11    1    3    3    0    0  0.13691236254E+02  0.43103850929E+02 -0.42166793274E+03  0.42408635608E+03  0.00000000000E+00 0.  1.
         12    1    3    3    0    0 -0.87712116756E+01 -0.66317018213E+01 -0.54444018472E+01  0.12270091066E+02  0.00000000000E+00 0. -1.
         11    1    5    5    0    0 -0.47212417249E+02  0.30131138872E+02  0.41256139961E+03  0.41634577736E+03  0.00000000000E+00 0. -1.
        -12    1    5    5    0    0  0.10682869578E+02 -0.89462726218E+01  0.15076441763E+02  0.20529456702E+02  0.00000000000E+00 0.  1.
          5    1    4    4  501    0  0.30627701700E+02 -0.90031287128E+02  0.12043031496E+03  0.15350772598E+03  0.41800000000E+01 0.  1.
         -5    1    4    4    0  501  0.98182139253E+00  0.32374271769E+02  0.13005930321E+03  0.13409680159E+03  0.41800000000E+01 0.  1.
</event>
<event>
11    1  0.6625361E-009  0.1380074E+03  0.7561462E-02  0.1109804E+00
         22   -1    0    0    0    0  0.00000000000E+00  0.00000000000E+00  0.10992958394E+03  0.10992958394E+03  0.00000000000E+00 0. -1.
         22   -1    0    0    0    0 -0.00000000000E+00 -0.00000000000E+00 -0.85571248719E+03  0.85571248719E+03  0.00000000000E+00 0. -1.
         24    2    1    2    0    0 -0.33899794602E+02  0.43279874554E+02 -0.44580287944E+03  0.45575747088E+03  0.77151288564E+02 0.  0.
         25    2    1    2    0    0  0.29537460987E+02 -0.61022939650E+02 -0.37316800614E+03  0.39938422626E+03  0.12512848842E+03 0.  0.
        -24    2    1    2    0    0  0.43623336153E+01  0.17743065096E+02  0.73187982328E+02  0.11050037399E+03  0.80746551508E+02 0.  0.
        -11    1    3    3    0    0  0.82998325063E+01  0.27449574361E+02 -0.51995343259E+02  0.59379138364E+02  0.00000000000E+00 0.  1.
         12    1    3    3    0    0 -0.42199627109E+02  0.15830300193E+02 -0.39380753618E+03  0.39637833251E+03  0.00000000000E+00 0. -1.
         11    1    5    5    0    0 -0.98666301651E+01  0.48161673276E+02  0.41708466794E+02  0.64470872228E+02  0.00000000000E+00 0. -1.
        -12    1    5    5    0    0  0.14228963780E+02 -0.30418608180E+02  0.31479515534E+02  0.46029501759E+02  0.00000000000E+00 0.  1.
          5    1    4    4  501    0 -0.38213906394E+02 -0.39584580576E+02 -0.25922526770E+03  0.26503292904E+03  0.41800000000E+01 0. -1.
         -5    1    4    4    0  501  0.67751367382E+02 -0.21438359074E+02 -0.11394273843E+03  0.13435129722E+03  0.41800000000E+01 0. -1.
</event>
<event>
11    1  0.6625361E-009  0.1350814E+03  0.7561462E-02  0.1113179E+00
         22   -1    0    0    0    0  0.00000000000E+00  0.00000000000E+00  0.14290273943E+04  0.14290273943E+04  0.00000000000E+00 0. -1.
         22   -1    0    0    0    0 -0.00000000000E+00 -0.00000000000E+00 -0.41146535343E+02  0.41146535343E+02  0.00000000000E+00 0. -1.
        -24    2    1    2    0    0  0.36239948641E+02 -0.25725090941E+02  0.72973769320E+02  0.11975671457E+03  0.83912963807E+02 0.  0.
         25    2    1    2    0    0 -0.74323447098E+02  0.21146730891E+02  0.32443194733E+03  0.35618859434E+03  0.12507224823E+03 0.  0.
         24    2    1    2    0    0  0.38083498458E+02  0.45783600497E+01  0.99047514231E+03  0.99422862073E+03  0.77319004824E+02 0.  0.
        -13    1    5    5    0    0 -0.49154017881E+01  0.26727222339E+02  0.15572905119E+03  0.15808239299E+03  0.00000000000E+00 0.  1.
         14    1    5    5    0    0  0.42998900246E+02 -0.22148862289E+02  0.83474609112E+03  0.83614622774E+03  0.00000000000E+00 0. -1.
         13    1    3    3    0    0  0.39813604458E+02 -0.51479573878E+02  0.35458864762E+02  0.74112082124E+02  0.00000000000E+00 0. -1.
        -14    1    3    3    0    0 -0.35736558175E+01  0.25754482937E+02  0.37514904558E+02  0.45644632448E+02  0.00000000000E+00 0.  1.
          5    1    4    4  501    0 -0.40447908052E+02  0.72762158793E+02  0.15826004361E+03  0.17886888724E+03  0.41800000000E+01 0. -1.
         -5    1    4    4    0  501 -0.33875539046E+02 -0.51615427902E+02  0.16617190372E+03  0.17731970711E+03  0.41800000000E+01 0. -1.
</event>
<event>
11    1  0.6625361E-009  0.1574793E+03  0.7561462E-02  0.1089472E+00
         22   -1    0    0    0    0  0.00000000000E+00  0.00000000000E+00  0.21605519411E+03  0.21605519411E+03  0.00000000000E+00 0. -1.
         22   -1    0    0    0    0 -0.00000000000E+00 -0.00000000000E+00 -0.34785700977E+03  0.34785700977E+03  0.00000000000E+00 0.  1.
        -24    2    1    2    0    0 -0.35608268564E+02 -0.54018309535E+02 -0.94080004307E+02  0.13990095603E+03  0.80841225445E+02 0.  0.
         25    2    1    2    0    0  0.10503457748E+03 -0.13350319501E+02 -0.17316320695E+03  0.23841419082E+03  0.12508132014E+03 0.  0.
         24    2    1    2    0    0 -0.69426308917E+02  0.67368629036E+02  0.13544139559E+03  0.18559705703E+03  0.82117911501E+02 0.  0.
        -13    1    5    5    0    0  0.53933223838E+01  0.45989765754E+02  0.69966404608E+02  0.83901396021E+02  0.00000000000E+00 0.  1.
         14    1    5    5    0    0 -0.74819631301E+02  0.21378863282E+02  0.65474990985E+02  0.10169566101E+03  0.00000000000E+00 0. -1.
         11    1    3    3    0    0 -0.62813594384E+01 -0.37980772190E+02  0.16207853821E+01  0.38530786104E+02  0.00000000000E+00 0. -1.
        -12    1    3    3    0    0 -0.29326909125E+02 -0.16037537346E+02 -0.95700789689E+02  0.10137016992E+03  0.00000000000E+00 0.  1.
          5    1    4    4  501    0  0.13788730759E+02 -0.84005829224E+01  0.19185595404E+02  0.25421612073E+02  0.41800000000E+01 0.  1.
         -5    1    4    4    0  501  0.91245846722E+02 -0.49497365786E+01 -0.19234880235E+03  0.21299257875E+03  0.41800000000E+01 0.  1.
</event>
<event>
11    1  0.6625361E-009  0.1490586E+03  0.7561462E-02  0.1097845E+00
         22   -1    0    0    0    0  0.00000000000E+00  0.00000000000E+00  0.11976064290E+03  0.11976064290E+03  0.00000000000E+00 0. -1.
         22   -1    0    0    0    0 -0.00000000000E+00 -0.00000000000E+00 -0.27236893398E+04  0.27236893398E+04  0.00000000000E+00 0. -1.
         24    2    1    2    0    0  0.32157176406E+02 -0.90609584487E+02 -0.25555675649E+04  0.25586155486E+04  0.79647758869E+02 0.  0.
         25    2    1    2    0    0  0.50530716644E+02  0.82039748670E+01 -0.45676771048E+02  0.14266879580E+03  0.12508940544E+03 0.  0.
        -24    2    1    2    0    0 -0.82687893050E+02  0.82405609620E+02 -0.26843609438E+01  0.14216563839E+03  0.81091866363E+02 0.  0.
        -13    1    3    3    0    0  0.19176981944E+02 -0.23156399709E+02 -0.22078966725E+03  0.22282740552E+03  0.00000000000E+00 0.  1.
         14    1    3    3    0    0  0.12980194461E+02 -0.67453184778E+02 -0.23347778977E+04  0.23357881430E+04  0.00000000000E+00 0. -1.
         13    1    5    5    0    0 -0.83345128979E+02  0.94061655508E+02  0.85485349833E+01  0.12596461016E+03  0.00000000000E+00 0. -1.
        -14    1    5    5    0    0  0.65723592917E+00 -0.11656045888E+02 -0.11232895927E+02  0.16201028230E+02  0.00000000000E+00 0.  1.
          5    1    4    4  501    0  0.80401453000E+02  0.26698909430E+02 -0.60625160227E+02  0.10425980943E+03  0.41800000000E+01 0.  1.
         -5    1    4    4    0  501 -0.29870736356E+02 -0.18494934563E+02  0.14948389179E+02  0.38408986370E+02  0.41800000000E+01 0.  1.
</event>
<event>
11    1  0.6625361E-009  0.2535277E+03  0.7561462E-02  0.1022037E+00
         22   -1    0    0    0    0  0.00000000000E+00  0.00000000000E+00  0.64004070679E+03  0.64004070679E+03  0.00000000000E+00 0.  1.
         22   -1    0    0    0    0 -0.00000000000E+00 -0.00000000000E+00 -0.10746160256E+04  0.10746160256E+04  0.00000000000E+00 0. -1.
        -24    2    1    2    0    0  0.16418119646E+03 -0.33665906949E+02 -0.86135027512E+03  0.88099989531E+03  0.78407018389E+02 0.  0.
         25    2    1    2    0    0 -0.34256453851E+03 -0.65015263395E+02  0.15720195700E+02  0.37077131465E+03  0.12508715241E+03 0.  0.
         24    2    1    2    0    0  0.17838334205E+03  0.98681170344E+02  0.41105476061E+03  0.46288552244E+03  0.61142461181E+02 0.  0.
        -13    1    5    5    0    0  0.14486020069E+03  0.56711262274E+02  0.26527680918E+03  0.30752630864E+03  0.00000000000E+00 0.  1.
         14    1    5    5    0    0  0.33523141354E+02  0.41969908071E+02  0.14577795143E+03  0.15535921380E+03  0.00000000000E+00 0. -1.
         11    1    3    3    0    0  0.14368597021E+03 -0.88087376768E+01 -0.57096762140E+03  0.58883552592E+03  0.00000000000E+00 0. -1.
        -12    1    3    3    0    0  0.20495226243E+02 -0.24857169272E+02 -0.29038265372E+03  0.29216436939E+03  0.00000000000E+00 0.  1.
          5    1    4    4  501    0 -0.37393990190E+02  0.22047679725E+02 -0.25834126218E+02  0.50688116566E+02  0.41800000000E+01 0. -1.
         -5    1    4    4    0  501 -0.30517054832E+03 -0.87062943120E+02  0.41554321918E+02  0.32008319808E+03  0.41800000000E+01 0. -1.
</event>
<event>
11    1  0.6625361E-009  0.1384174E+03  0.7561462E-02  0.1109339E+00
         22   -1    0    0    0    0  0.00000000000E+00  0.00000000000E+00  0.36186967253E+03  0.36186967253E+03  0.00000000000E+00 0. -1.
         22   -1    0    0    0    0 -0.00000000000E+00 -0.00000000000E+00 -0.21641257135E+04  0.21641257135E+04  0.00000000000E+00 0. -1.
         24    2    1    2    0    0  0.37426486691E+02 -0.18571969551E+02 -0.20361198011E+04  0.20383017037E+04  0.84524144649E+02 0.  0.
         25    2    1    2    0    0 -0.93211327360E+02  0.56628438662E+01 -0.67966619506E+02  0.17025505599E+03  0.12508758281E+03 0.  0.
        -24    2    1    2    0    0  0.55784840669E+02  0.12909125685E+02  0.30183037966E+03  0.31743862628E+03  0.79919393119E+02 0.  0.
        -13    1    3    3    0    0  0.34212492464E+01 -0.38400676557E+02 -0.43694817049E+03  0.43864566635E+03  0.00000000000E+00 0.  1.
         14    1    3    3    0    0  0.34005237444E+02  0.19828707006E+02 -0.15991716306E+04  0.15996560374E+04  0.00000000000E+00 0. -1.
         13    1    5    5    0    0  0.29964429603E+02 -0.28888982756E+02  0.20114051971E+03  0.20540192072E+03  0.00000000000E+00 0. -1.
        -14    1    5    5    0    0  0.25820411066E+02  0.41798108441E+02  0.10068985995E+03  0.11203670557E+03  0.00000000000E+00 0.  1.
          5    1    4    4  501    0 -0.88422950612E+02 -0.33045102556E+02 -0.85368979516E+02  0.12734179228E+03  0.41800000000E+01 0.  1.
         -5    1    4    4    0  501 -0.47883767472E+01  0.38707946422E+02  0.17402360010E+02  0.42913263707E+02  0.41800000000E+01 0.  1.
</event>
<event>
11    1  0.6625361E-009  0.1889513E+03  0.7561462E-02  0.1062624E+00
         22   -1    0    0    0    0  0.00000000000E+00  0.00000000000E+00  0.15352370683E+04  0.15352370683E+04  0.00000000000E+00 0. -1.
         22   -1    0    0    0    0 -0.00000000000E+00 -0.00000000000E+00 -0.54317417227E+03  0.54317417227E+03  0.00000000000E+00 0. -1.
         24    2    1    2    0    0 -0.45563996960E+01 -0.70436350223E+02 -0.51036714516E+03  0.52149271956E+03  0.80610132654E+02 0.  0.
         25    2    1    2    0    0  0.87925846119E+02 -0.59374689272E+02  0.29900160400E+03  0.34103573229E+03  0.12508838221E+03 0.  0.
        -24    2    1    2    0    0 -0.83369446423E+02  0.12981103950E+03  0.12034284372E+04  0.12158827887E+04  0.79558669458E+02 0.  0.
        -11    1    3    3    0    0 -0.23979497525E+02  0.23049488897E+01 -0.22768879699E+03  0.22895964135E+03  0.00000000000E+00 0.  1.
         12    1    3    3    0    0  0.19423097829E+02 -0.72741299113E+02 -0.28267834817E+03  0.29253307821E+03  0.00000000000E+00 0. -1.
         11    1    5    5    0    0 -0.50226865150E+02  0.12200466250E+03  0.10730715465E+04  0.10811523573E+04  0.00000000000E+00 0. -1.
        -12    1    5    5    0    0 -0.33142581273E+02  0.78063769921E+01  0.13035689063E+03  0.13473043142E+03  0.00000000000E+00 0.  1.
          5    1    4    4  501    0 -0.30025669769E+02 -0.28709681392E+02  0.85929130859E+02  0.95535724108E+02  0.41800000000E+01 0. -1.
         -5    1    4    4    0  501  0.11795151589E+03 -0.30665007880E+02  0.21307247314E+03  0.24550000819E+03  0.41800000000E+01 0. -1.
</event>
<event>
11    1  0.6625361E-009  0.1319701E+03  0.7561462E-02  0.1116872E+00
         22   -1    0    0    0    0  0.00000000000E+00  0.00000000000E+00  0.22706830688E+03  0.22706830688E+03  0.00000000000E+00 0.  1.
         22   -1    0    0    0    0 -0.00000000000E+00 -0.00000000000E+00 -0.65694464905E+03  0.65694464905E+03  0.00000000000E+00 0. -1.
        -24    2    1    2    0    0  0.13332912437E+02  0.30224691990E+02 -0.25485238272E+03  0.26894177863E+03  0.79300975752E+02 0.  0.
         25    2    1    2    0    0 -0.20541764453E+02 -0.54011148876E+02 -0.37503375144E+03  0.39954600795E+03  0.12509008538E+03 0.  0.
         24    2    1    2    0    0  0.72088520158E+01  0.23786456886E+02  0.20000979199E+03  0.21552516935E+03  0.76350629696E+02 0.  0.
        -11    1    5    5    0    0  0.15666827223E+01 -0.17378407863E+02  0.14767455190E+03  0.14870183871E+03  0.00000000000E+00 0.  1.
         12    1    5    5    0    0  0.56421692935E+01  0.41164864749E+02  0.52335240086E+02  0.66823330649E+02  0.00000000000E+00 0. -1.
         11    1    3    3    0    0  0.16649329064E+02 -0.40010545647E-01 -0.22721054891E+03  0.22781974299E+03  0.00000000000E+00 0. -1.
        -12    1    3    3    0    0 -0.33164166272E+01  0.30264702536E+02 -0.27641833801E+02  0.41122035634E+02  0.00000000000E+00 0.  1.
          5    1    4    4  501    0  0.28160041456E+02 -0.52087477597E+02 -0.32188055202E+03  0.32730819639E+03  0.41800000000E+01 0. -1.
         -5    1    4    4    0  501 -0.48701805909E+02 -0.19236712789E+01 -0.53153199418E+02  0.72237811556E+02  0.41800000000E+01 0. -1.
</event>
<event>
11    1  0.6625361E-009  0.1331757E+03  0.7561462E-02  0.1115428E+00
         22   -1    0    0    0    0  0.00000000000E+00  0.00000000000E+00  0.12402126164E+04  0.12402126164E+04  0.00000000000E+00 0.  1.
         22   -1    0    0    0    0 -0.00000000000E+00 -0.00000000000E+00 -0.46247825559E+03  0.46247825559E+03  0.00000000000E+00 0.  1.
         24    2    1    2    0    0  0.58382810620E+01 -0.39447787368E+02 -0.32862689429E+03  0.34105296746E+03  0.82044363048E+02 0.  0.
         25    2    1    2    0    0  0.36738017180E+02  0.22099340204E+02 -0.91164470066E+02  0.16061244817E+03  0.12508930874E+03 0.  0.
        -24    2    1    2    0    0 -0.42576298242E+02  0.17348447164E+02  0.11975257251E+04  0.12010254563E+04  0.79250076381E+02 0.  0.
        -11    1    3    3    0    0 -0.14289640687E+02 -0.22395958344E+02 -0.30337203690E+03  0.30453302867E+03  0.00000000000E+00 0.  1.
         12    1    3    3    0    0  0.20127921749E+02 -0.17051829023E+02 -0.25254857387E+02  0.36519938781E+02  0.00000000000E+00 0. -1.
         11    1    5    5    0    0  0.86751022757E+01 -0.56419778433E+00  0.15642495730E+02  0.17895904316E+02  0.00000000000E+00 0. -1.
        -12    1    5    5    0    0 -0.51251400517E+02  0.17912644948E+02  0.11818832294E+04  0.11831295520E+04  0.00000000000E+00 0.  1.
          5    1    4    4  501    0 -0.18874443880E+02  0.14027403263E+02  0.23087852846E+02  0.33219482584E+02  0.41800000000E+01 0. -1.
         -5    1    4    4    0  501  0.55612461060E+02  0.80719369404E+01 -0.11425232291E+03  0.12739296559E+03  0.41800000000E+01 0. -1.
</event>
<event>
11    1  0.6625361E-009  0.1310905E+03  0.7561462E-02  0.1117936E+00
         22   -1    0    0    0    0  0.00000000000E+00  0.00000000000E+00  0.23635991457E+03  0.23635991457E+03  0.00000000000E+00 0.  1.
         22   -1    0    0    0    0 -0.00000000000E+00 -0.00000000000E+00 -0.22167874588E+03  0.22167874588E+03  0.00000000000E+00 0.  1.
        -24    2    1    2    0    0 -0.15030293708E+02 -0.45076708466E+01 -0.14722678840E+03  0.16878589618E+03  0.81035317609E+02 0.  0.
         25    2    1    2    0    0 -0.16131100127E+02  0.31258649893E+02  0.38060329294E+02  0.13540377846E+03  0.12509308122E+03 0.  0.
         24    2    1    2    0    0  0.31161393835E+02 -0.26750979046E+02  0.12384762779E+03  0.15384898582E+03  0.81514588761E+02 0.  0.
        -11    1    5    5    0    0  0.20537876404E+02  0.17813649488E+02  0.97023131784E+02  0.10076020334E+03  0.00000000000E+00 0.  1.
         12    1    5    5    0    0  0.10623517431E+02 -0.44564628535E+02  0.26824496011E+02  0.53088782481E+02  0.00000000000E+00 0. -1.
         13    1    3    3    0    0 -0.24777186040E+02  0.10281866623E+02 -0.73808321661E+01  0.27822696001E+02  0.00000000000E+00 0. -1.
        -14    1    3    3    0    0  0.97468923318E+01 -0.14789537470E+02 -0.13984595623E+03  0.14096320018E+03  0.00000000000E+00 0.  1.
          5    1    4    4  501    0  0.15199997099E+02  0.74522542985E+02  0.25960237328E+02  0.80473943900E+02  0.41800000000E+01 0.  1.
         -5    1    4    4    0  501 -0.31331097226E+02 -0.43263893092E+02  0.12100091966E+02  0.54929834557E+02  0.41800000000E+01 0.  1.
</event>
<event>
11    1  0.6625361E-009  0.1794252E+03  0.7561462E-02  0.1070109E+00
         22   -1    0    0    0    0  0.00000000000E+00  0.00000000000E+00  0.65019628242E+03  0.65019628242E+03  0.00000000000E+00 0. -1.
         22   -1    0    0    0    0 -0.00000000000E+00 -0.00000000000E+00 -0.28066947480E+04  0.28066947480E+04  0.00000000000E+00 0. -1.
         24    2    1    2    0    0  0.42156126353E+02 -0.12330076688E+03 -0.26946573953E+04  0.26989921879E+04  0.80000838746E+02 0.  0.
         25    2    1    2    0    0  0.10341554047E+02  0.92222950519E+02 -0.47857319167E+02  0.16294007335E+03  0.12508846535E+03 0.  0.
        -24    2    1    2    0    0 -0.52497680400E+02  0.31077816363E+02  0.58601624898E+03  0.59495876908E+03  0.82698583515E+02 0.  0.
        -13    1    3    3    0    0  0.13555837819E+02  0.45490966137E+01 -0.64144604841E+03  0.64160539901E+03  0.00000000000E+00 0.  1.
         14    1    3    3    0    0  0.28600288534E+02 -0.12784986350E+03 -0.20532113469E+04  0.20573867889E+04  0.00000000000E+00 0. -1.
         11    1    5    5    0    0 -0.72420502741E+02  0.11413043102E+02  0.46521791674E+03  0.47095933670E+03  0.00000000000E+00 0. -1.
        -12    1    5    5    0    0  0.19922822342E+02  0.19664773261E+02  0.12079833224E+03  0.12399943237E+03  0.00000000000E+00 0.  1.
          5    1    4    4  501    0  0.20781019107E+02  0.12151105662E+03 -0.30398936820E+02  0.12703682693E+03  0.41800000000E+01 0. -1.
         -5    1    4    4    0  501 -0.10439465060E+02 -0.29288106099E+02 -0.17458382347E+02  0.35903246424E+02  0.41800000000E+01 0. -1.
</event>
<event>
11    1  0.6625361E-009  0.1721433E+03  0.7561462E-02  0.1076181E+00
         22   -1    0    0    0    0  0.00000000000E+00  0.00000000000E+00  0.30766366400E+03  0.30766366400E+03  0.00000000000E+00 0. -1.
         22   -1    0    0    0    0 -0.00000000000E+00 -0.00000000000E+00 -0.12255908755E+04  0.12255908755E+04  0.00000000000E+00 0. -1.
        -24    2    1    2    0    0  0.12238160300E+03  0.26931046782E+02 -0.83681051264E+03  0.84964936122E+03  0.77134071088E+02 0.  0.
         25    2    1    2    0    0 -0.61814109916E+02 -0.11399762292E+03 -0.34638009800E+03  0.39043645726E+03  0.12508002498E+03 0.  0.
         24    2    1    2    0    0 -0.60567493086E+02  0.87066576141E+02  0.26526339917E+03  0.29316872100E+03  0.65834779096E+02 0.  0.
        -13    1    5    5    0    0  0.88419755369E+01 -0.17061240886E+01  0.43442836652E+02  0.44366332361E+02  0.00000000000E+00 0.  1.
         14    1    5    5    0    0 -0.69409468622E+02  0.88772700230E+02  0.22182056251E+03  0.24880238864E+03  0.00000000000E+00 0. -1.
         11    1    3    3    0    0  0.10581288906E+03  0.51060311292E+02 -0.69327235559E+03  0.70315722417E+03  0.00000000000E+00 0. -1.
        -12    1    3    3    0    0  0.16568713946E+02 -0.24129264511E+02 -0.14353815705E+03  0.14649213705E+03  0.00000000000E+00 0.  1.
          5    1    4    4  501    0 -0.12672827894E+02  0.12082856511E+02 -0.15482930484E+03  0.15587232604E+03  0.41800000000E+01 0.  1.
         -5    1    4    4    0  501 -0.49141282022E+02 -0.12608047943E+03 -0.19155079316E+03  0.23456413121E+03  0.41800000000E+01 0.  1.
</event>
<event>
11    1  0.6625361E-009  0.1464671E+03  0.7561462E-02  0.1100544E+00
         22   -1    0    0    0    0  0.00000000000E+00  0.00000000000E+00  0.71839405970E+02  0.71839405970E+02  0.00000000000E+00 0. -1.
         22   -1    0    0    0    0 -0.00000000000E+00 -0.00000000000E+00 -0.95209853805E+03  0.95209853805E+03  0.00000000000E+00 0. -1.
         24    2    1    2    0    0 -0.70727424774E+02 -0.21304669738E+02 -0.69779653464E+03  0.70629970134E+03  0.80517121045E+02 0.  0.
         25    2    1    2    0    0  0.83200290209E+02  0.44605908081E+02 -0.17175220489E+03  0.23250393545E+03  0.12508910739E+03 0.  0.
        -24    2    1    2    0    0 -0.12472865435E+02 -0.23301238343E+02 -0.10710392552E+02  0.85134307236E+02  0.80216068711E+02 0.  0.
        -13    1    3    3    0    0  0.91940725869E+00 -0.33205036014E+02 -0.14522502104E+03  0.14897559016E+03  0.00000000000E+00 0.  1.
         14    1    3    3    0    0 -0.71646832033E+02  0.11900366276E+02 -0.55257151360E+03  0.55732411118E+03  0.00000000000E+00 0. -1.
         13    1    5    5    0    0  0.18215089702E+02 -0.43810933309E+02 -0.80827054721E+01  0.48130213983E+02  0.00000000000E+00 0. -1.
        -14    1    5    5    0    0 -0.30687955137E+02  0.20509694966E+02 -0.26276870796E+01  0.37004093253E+02  0.00000000000E+00 0.  1.
          5    1    4    4  501    0  0.48221692213E+02 -0.14703274077E+01  0.28617121554E+01  0.48509331670E+02  0.41800000000E+01 0.  1.
         -5    1    4    4    0  501  0.34978597996E+02  0.46076235489E+02 -0.17461391704E+03  0.18399460378E+03  0.41800000000E+01 0.  1.
</event>
<event>
11    1  0.6625361E-009  0.1666754E+03  0.7561462E-02  0.1080962E+00
         22   -1    0    0    0    0  0.00000000000E+00  0.00000000000E+00  0.85762274621E+03  0.85762274621E+03  0.00000000000E+00 0.  1.
         22   -1    0    0    0    0 -0.00000000000E+00 -0.00000000000E+00 -0.12545825503E+03  0.12545825503E+03  0.00000000000E+00 0. -1.
        -24    2    1    2    0    0  0.52263801718E+02  0.90267461589E+02 -0.35449558216E+02  0.13712480426E+03  0.81650604239E+02 0.  0.
         25    2    1    2    0    0 -0.28175913458E+02 -0.14510415415E+03  0.23715568259E+03  0.30616998864E+03  0.12509255178E+03 0.  0.
         24    2    1    2    0    0 -0.24087888261E+02  0.54836692559E+02  0.53045836680E+03  0.53978620834E+03  0.79973636865E+02 0.  0.
        -11    1    5    5    0    0  0.27687260442E+02  0.31800011893E+02  0.26633997659E+03  0.26965683429E+03  0.00000000000E+00 0.  1.
         12    1    5    5    0    0 -0.51775148703E+02  0.23036680666E+02  0.26411839021E+03  0.27012937406E+03  0.00000000000E+00 0. -1.
         11    1    3    3    0    0  0.21699030072E+02  0.92828339771E+02 -0.74945859502E+01  0.95624878506E+02  0.00000000000E+00 0. -1.
        -12    1    3    3    0    0  0.30564771646E+02 -0.25608781821E+01 -0.27954972265E+02  0.41499925749E+02  0.00000000000E+00 0.  1.
          5    1    4    4  501    0 -0.21357575020E+02 -0.72378379594E+02  0.21772438038E+03  0.23046942108E+03  0.41800000000E+01 0.  1.
         -5    1    4    4    0  501 -0.68183384374E+01 -0.72725774554E+02  0.19431302215E+02  0.75700567563E+02  0.41800000000E+01 0.  1.
</event>
<event>
11    1  0.6625361E-009  0.1625504E+03  0.7561462E-02  0.1084703E+00
         22   -1    0    0    0    0  0.00000000000E+00  0.00000000000E+00  0.40144938216E+03  0.40144938216E+03  0.00000000000E+00 0.  1.
         22   -1    0    0    0    0 -0.00000000000E+00 -0.00000000000E+00 -0.44590560965E+03  0.44590560965E+03  0.00000000000E+00 0. -1.
        -24    2    1    2    0    0  0.11401563876E+03  0.71087236214E+02 -0.28812238466E+03  0.32771227100E+03  0.79547866006E+02 0.  0.
         25    2    1    2    0    0  0.86652668441E+01 -0.72459367290E+02 -0.79602355429E+02  0.16525441464E+03  0.12508812818E+03 0.  0.
         24    2    1    2    0    0 -0.12268090561E+03  0.13721310766E+01  0.32326851260E+03  0.35438830617E+03  0.77692039296E+02 0.  0.
        -13    1    5    5    0    0 -0.50101961918E+02  0.16727627129E+02  0.22581856999E+03  0.23191387765E+03  0.00000000000E+00 0.  1.
         14    1    5    5    0    0 -0.72578943687E+02 -0.15355496053E+02  0.97449942608E+02  0.12247442852E+03  0.00000000000E+00 0. -1.
         11    1    3    3    0    0  0.84769491318E+02  0.86126881339E+02 -0.24766126816E+03  0.27557178755E+03  0.00000000000E+00 0. -1.
        -12    1    3    3    0    0  0.29246147443E+02 -0.15039645125E+02 -0.40461116504E+02  0.52140483451E+02  0.00000000000E+00 0.  1.
          5    1    4    4  501    0  0.46782949456E+02 -0.73584130377E+01  0.94462973335E+01  0.48471595141E+02  0.41800000000E+01 0.  1.
         -5    1    4    4    0  501 -0.38117682612E+02 -0.65100954253E+02 -0.89048652762E+02  0.11678281950E+03  0.41800000000E+01 0.  1.
</event>
<event>
11    1  0.6625361E-009  0.1501519E+03  0.7561462E-02  0.1096724E+00
         22   -1    0    0    0    0  0.00000000000E+00  0.00000000000E+00  0.15907645241E+04  0.15907645241E+04  0.00000000000E+00 0.  1.
         22   -1    0    0    0    0 -0.00000000000E+00 -0.00000000000E+00 -0.81326773466E+02  0.81326773466E+02  0.00000000000E+00 0. -1.
        -24    2    1    2    0    0  0.73708343594E+02  0.44786477813E+02 -0.20263911397E+02  0.11948237032E+03  0.80166465571E+02 0.  0.
         25    2    1    2    0    0 -0.56819763318E+02 -0.31821972722E+01  0.49409331761E+03  0.51284990110E+03  0.12509277625E+03 0.  0.
         24    2    1    2    0    0 -0.16888580276E+02 -0.41604280540E+02  0.10356083445E+04  0.10397590262E+04  0.81228376289E+02 0.  0.
        -11    1    5    5    0    0 -0.24810396959E+01 -0.51576446387E+02  0.98206498272E+03  0.98342153508E+03  0.00000000000E+00 0.  1.
         12    1    5    5    0    0 -0.14407540580E+02  0.99721658466E+01  0.53543361740E+02  0.56337491102E+02  0.00000000000E+00 0. -1.
         13    1    3    3    0    0  0.80203572795E+02  0.42772846351E+02 -0.39478945100E+02  0.99099528658E+02  0.00000000000E+00 0. -1.
        -14    1    3    3    0    0 -0.64952292008E+01  0.20136314620E+01  0.19215033703E+02  0.20382841663E+02  0.00000000000E+00 0.  1.
          5    1    4    4  501    0 -0.20783236882E+02 -0.22810746928E+02  0.45485537514E+03  0.45592012218E+03  0.41800000000E+01 0.  1.
         -5    1    4    4    0  501 -0.36036526436E+02  0.19628549655E+02  0.39237942469E+02  0.56929778924E+02  0.41800000000E+01 0.  1.
</event>
<event>
11    1  0.6625361E-009  0.1389357E+03  0.7561462E-02  0.1108753E+00
         22   -1    0    0    0    0  0.00000000000E+00  0.00000000000E+00  0.46728165926E+03  0.46728165926E+03  0.00000000000E+00 0.  1.
         22   -1    0    0    0    0 -0.00000000000E+00 -0.00000000000E+00 -0.18545623944E+04  0.18545623944E+04  0.00000000000E+00 0. -1.
         24    2    1    2    0    0  0.21892846450E+02  0.57007434305E+02 -0.18162791694E+04  0.18191335441E+04  0.81533341954E+02 0.  0.
         25    2    1    2    0    0 -0.74881166318E+01 -0.69616429615E+00  0.10468291527E+03  0.16328810271E+03  0.12509170717E+03 0.  0.
        -24    2    1    2    0    0 -0.14404729818E+02 -0.56311270009E+02  0.32431551904E+03  0.33942240678E+03  0.81538696113E+02 0.  0.
        -11    1    3    3    0    0  0.45961520972E+02  0.41708265825E+02 -0.78121325899E+03  0.78367480301E+03  0.00000000000E+00 0.  1.
         12    1    3    3    0    0 -0.24068674522E+02  0.15299168480E+02 -0.10350659104E+04  0.10354587411E+04  0.00000000000E+00 0. -1.
         13    1    5    5    0    0  0.21590861655E+02 -0.48824084916E+02  0.11353954593E+03  0.12546387952E+03  0.00000000000E+00 0. -1.
        -14    1    5    5    0    0 -0.35995591473E+02 -0.74871850932E+01  0.21077597311E+03  0.21395852726E+03  0.00000000000E+00 0.  1.
          5    1    4    4  501    0 -0.35480665821E+01 -0.50626864457E+02  0.10073331349E+03  0.11287311915E+03  0.41800000000E+01 0.  1.
         -5    1    4    4    0  501 -0.39400500497E+01  0.49930700161E+02  0.39496017763E+01  0.50414983558E+02  0.41800000000E+01 0.  1.
</event>
<event>
11    1  0.6625361E-009  0.1725968E+03  0.7561462E-02  0.1075794E+00
         22   -1    0    0    0    0  0.00000000000E+00  0.00000000000E+00  0.82747541563E+03  0.82747541563E+03  0.00000000000E+00 0. -1.
         22   -1    0    0    0    0 -0.00000000000E+00 -0.00000000000E+00 -0.44483128439E+03  0.44483128439E+03  0.00000000000E+00 0. -1.
         24    2    1    2    0    0  0.25561461113E+02  0.88025707504E+01 -0.39662231366E+03  0.40574268723E+03  0.81160304347E+02 0.  0.
         25    2    1    2    0    0  0.29220649427E+02 -0.11506191815E+03  0.17510497502E+03  0.24577021373E+03  0.12509258298E+03 0.  0.
        -24    2    1    2    0    0 -0.54782110540E+02  0.10625934740E+03  0.60416146988E+03  0.62079379906E+03  0.77985451982E+02 0.  0.
        -13    1    3    3    0    0  0.34907020607E+02  0.24660300546E+02 -0.10261373689E+03  0.11115848824E+03  0.00000000000E+00 0.  1.
         14    1    3    3    0    0 -0.93455594940E+01 -0.15857729795E+02 -0.29400857677E+03  0.29458419898E+03  0.00000000000E+00 0. -1.
         13    1    5    5    0    0 -0.54714659874E+02  0.84924705568E+02  0.57925681505E+03  0.58800030391E+03  0.00000000000E+00 0. -1.
        -14    1    5    5    0    0 -0.67450666205E-01  0.21334641835E+02  0.24904654829E+02  0.32793495147E+02  0.00000000000E+00 0.  1.
          5    1    4    4  501    0 -0.12427984891E+02 -0.11987839493E+03  0.16137338509E+03  0.20145502275E+03  0.41800000000E+01 0.  1.
         -5    1    4    4    0  501  0.41648634318E+02  0.48164767736E+01  0.13731589938E+02  0.44315190976E+02  0.41800000000E+01 0.  1.
</event>
<event>
11    1  0.6625361E-009  0.1383780E+03  0.7561462E-02  0.1109383E+00
         22   -1    0    0    0    0  0.00000000000E+00  0.00000000000E+00  0.37620940014E+03  0.37620940014E+03  0.00000000000E+00 0.  1.
         22   -1    0    0    0    0 -0.00000000000E+00 -0.00000000000E+00 -0.94549942631E+03  0.94549942631E+03  0.00000000000E+00 0.  1.
        -24    2    1    2    0    0 -0.97121891766E+01 -0.61665584123E+02 -0.76838046897E+03  0.77510526121E+03  0.80514905280E+02 0.  0.
         25    2    1    2    0    0 -0.19086559127E+02  0.36921084115E+02 -0.14171703401E+03  0.19354179802E+03  0.12508895498E+03 0.  0.
         24    2    1    2    0    0  0.28798748304E+02  0.24744500008E+02  0.34080747682E+03  0.35306176722E+03  0.84031048047E+02 0.  0.
        -13    1    5    5    0    0  0.51471682670E+02  0.39061797812E+02  0.26057242723E+03  0.26846442594E+03  0.00000000000E+00 0.  1.
         14    1    5    5    0    0 -0.22672934367E+02 -0.14317297804E+02  0.80235049592E+02  0.84597341283E+02  0.00000000000E+00 0. -1.
         13    1    3    3    0    0  0.21387316244E+02 -0.18527880369E+02 -0.83521284061E+02  0.88184491484E+02  0.00000000000E+00 0. -1.
        -14    1    3    3    0    0 -0.31099505420E+02 -0.43137703754E+02 -0.68485918491E+03  0.68692076972E+03  0.00000000000E+00 0.  1.
          5    1    4    4  501    0 -0.47573906901E+02  0.54064986406E+02 -0.32172231197E+02  0.78986228123E+02  0.41800000000E+01 0. -1.
         -5    1    4    4    0  501  0.28487347774E+02 -0.17143902291E+02 -0.10954480282E+03  0.11455556989E+03  0.41800000000E+01 0. -1.
</event>
<event>
11    1  0.6625361E-009  0.1338197E+03  0.7561462E-02  0.1114663E+00
         22   -1    0    0    0    0  0.00000000000E+00  0.00000000000E+00  0.86287285755E+03  0.86287285755E+03  0.00000000000E+00 0.  1.
         22   -1    0    0    0    0 -0.00000000000E+00 -0.00000000000E+00 -0.26091298081E+03  0.26091298081E+03  0.00000000000E+00 0.  1.
         24    2    1    2    0    0  0.24930928553E+02  0.44312092822E+02 -0.19145423968E+03  0.21144472284E+03  0.73952904998E+02 0.  0.
         25    2    1    2    0    0 -0.18347143818E+02 -0.16836569596E+02  0.14152979287E+02  0.12833891488E+03  0.12510188843E+03 0.  0.
        -24    2    1    2    0    0 -0.65837847346E+01 -0.27475523227E+02  0.77926113714E+03  0.78400220063E+03  0.81322076578E+02 0.  0.
        -13    1    3    3    0    0  0.33206402031E+02  0.50359140299E+02 -0.19192821938E+03  0.20118436704E+03  0.00000000000E+00 0.  1.
         14    1    3    3    0    0 -0.82754734782E+01 -0.60470474765E+01  0.47397969668E+00  0.10260355804E+02  0.00000000000E+00 0. -1.
         11    1    5    5    0    0 -0.31372236664E+02  0.16589683032E+02  0.33362045037E+03  0.33550266723E+03  0.00000000000E+00 0. -1.
        -12    1    5    5    0    0  0.24788451930E+02 -0.44065206259E+02  0.44564068677E+03  0.44849953340E+03  0.00000000000E+00 0.  1.
          5    1    4    4  501    0 -0.60801411815E+02 -0.33003356584E+02  0.35614806081E+02  0.77922525862E+02  0.41800000000E+01 0.  1.
         -5    1    4    4    0  501  0.42454267997E+02  0.16166786989E+02 -0.21461826795E+02  0.50416389023E+02  0.41800000000E+01 0.  1.
</event>
<event>
11    1  0.6625361E-009  0.1459633E+03  0.7561462E-02  0.1101076E+00
         22   -1    0    0    0    0  0.00000000000E+00  0.00000000000E+00  0.87873338898E+02  0.87873338898E+02  0.00000000000E+00 0.  1.
         22   -1    0    0    0    0 -0.00000000000E+00 -0.00000000000E+00 -0.88571850126E+03  0.88571850126E+03  0.00000000000E+00 0.  1.
        -24    2    1    2    0    0 -0.66825332400E+01 -0.37598272682E+02 -0.24217221252E+03  0.25766097692E+03  0.79268607619E+02 0.  0.
         25    2    1    2    0    0 -0.36469764945E+02  0.96835196040E+02 -0.57890190822E+03  0.60123388968E+03  0.12509065436E+03 0.  0.
         24    2    1    2    0    0  0.43152298185E+02 -0.59236923358E+02  0.23228958371E+02  0.11469697356E+03  0.85115670178E+02 0.  0.
        -11    1    5    5    0    0 -0.15861782263E+02 -0.18512795085E+02  0.34366842561E+02  0.42135490812E+02  0.00000000000E+00 0.  1.
         12    1    5    5    0    0  0.59014080448E+02 -0.40724128274E+02 -0.11137884190E+02  0.72561482750E+02  0.00000000000E+00 0. -1.
         11    1    3    3    0    0  0.13388185632E+02  0.20725745480E+02 -0.48690663469E+02  0.54585536081E+02  0.00000000000E+00 0. -1.
        -12    1    3    3    0    0 -0.20070718872E+02 -0.58324018163E+02 -0.19348154905E+03  0.20307544084E+03  0.00000000000E+00 0.  1.
          5    1    4    4  501    0  0.19128111942E+02  0.69195917472E+02 -0.13470018465E+03  0.15269437385E+03  0.41800000000E+01 0. -1.
         -5    1    4    4    0  501 -0.55597876887E+02  0.27639278569E+02 -0.44420172357E+03  0.44853951582E+03  0.41800000000E+01 0. -1.
</event>
<event>
11    1  0.7583435E-009  0.1815577E+03  0.7561462E-02  0.1068390E+00
         22   -1    0    0    0    0  0.00000000000E+00  0.00000000000E+00  0.36182174507E+03  0.36182174507E+03  0.00000000000E+00 0.  1.
         22   -1    0    0    0    0 -0.00000000000E+00 -0.00000000000E+00 -0.12813769014E+04  0.12813769014E+04  0.00000000000E+00 0. -1.
        -24    2    1    2    0    0 -0.17091598570E+02  0.10842267246E+03 -0.11228721424E+04  0.11309247911E+04  0.78111691542E+02 0.  0.
         25    2    1    2    0    0 -0.64575967964E+02  0.11617130385E+02 -0.95591857978E+02  0.17055540011E+03  0.12508528227E+03 0.  0.
         24    2    1    2    0    0  0.81667566534E+02 -0.12003980284E+03  0.29890884408E+03  0.34171845521E+03  0.79660905559E+02 0.  0.
        -11    1    5    5    0    0  0.42833732678E+02 -0.14608265305E+02  0.43879056205E+02  0.63035717207E+02  0.00000000000E+00 0.  1.
         12    1    5    5    0    0  0.38833833855E+02 -0.10543153754E+03  0.25502978787E+03  0.27868273800E+03  0.00000000000E+00 0. -1.
         11    1    3    3    0    0  0.29828223050E+02  0.41540570719E+02 -0.34419680745E+03  0.34797526372E+03  0.00000000000E+00 0. -1.
        -12    1    3    3    0    0 -0.46919821619E+02  0.66882101739E+02 -0.77867533494E+03  0.78294952739E+03  0.00000000000E+00 0.  1.
          5    1    4    4  501    0 -0.92169849441E+02  0.54110212675E+01 -0.10553601441E+03  0.14028500645E+03  0.41800000000E+01 0. -1.
         -5    1    4    4    0  501  0.27593881476E+02  0.62061091175E+01  0.99441564347E+01  0.30270393663E+02  0.41800000000E+01 0. -1.
</event>
<event>
11    1  0.6625361E-009  0.1298522E+03  0.7561462E-02  0.1119451E+00
         22   -1    0    0    0    0  0.00000000000E+00  0.00000000000E+00  0.17005218192E+03  0.17005218192E+03  0.00000000000E+00 0.  1.
         22   -1    0    0    0    0 -0.00000000000E+00 -0.00000000000E+00 -0.30574581179E+03  0.30574581179E+03  0.00000000000E+00 0.  1.
        -24    2    1    2    0    0 -0.32369204826E+02  0.27359978335E+00 -0.16367842197E+03  0.18196935791E+03  0.72624934572E+02 0.  0.
         25    2    1    2    0    0  0.44364489922E+02 -0.64376813788E+01 -0.87376435118E+02  0.15903440359E+03  0.12509056080E+03 0.  0.
         24    2    1    2    0    0 -0.11995285096E+02  0.61640815955E+01  0.11536122722E+03  0.13479423222E+03  0.68406063520E+02 0.  0.
        -11    1    5    5    0    0 -0.26532345448E+02  0.94166702383E+01  0.11650063156E+03  0.11985422891E+03  0.00000000000E+00 0.  1.
         12    1    5    5    0    0  0.14537060352E+02 -0.32525886428E+01 -0.11394043396E+01  0.14940003307E+02  0.00000000000E+00 0. -1.
         13    1    3    3    0    0  0.22884920764E+02 -0.61018827372E+01 -0.43042140987E+02  0.49128184091E+02  0.00000000000E+00 0. -1.
        -14    1    3    3    0    0 -0.55254125591E+02  0.63754825205E+01 -0.12063628098E+03  0.13284117381E+03  0.00000000000E+00 0.  1.
          5    1    4    4  501    0  0.12014975767E+02  0.58189232251E+02 -0.48823270861E+02  0.77016430521E+02  0.41800000000E+01 0.  1.
         -5    1    4    4    0  501  0.32349514155E+02 -0.64626913630E+02 -0.38553164257E+02  0.82017973065E+02  0.41800000000E+01 0.  1.
</event>
<event>
11    1  0.6625361E-009  0.1396109E+03  0.7561462E-02  0.1107994E+00
         22   -1    0    0    0    0  0.00000000000E+00  0.00000000000E+00  0.96636470882E+02  0.96636470882E+02  0.00000000000E+00 0.  1.
         22   -1    0    0    0    0 -0.00000000000E+00 -0.00000000000E+00 -0.16470137976E+04  0.16470137976E+04  0.00000000000E+00 0. -1.
        -24    2    1    2    0    0 -0.37663644042E+02  0.15999070017E+02 -0.91384090883E+03  0.91824970171E+03  0.80017421368E+02 0.  0.
         25    2    1    2    0    0 -0.20298974960E+02  0.10322085338E+02 -0.69549321683E+03  0.70701986835E+03  0.12509071011E+03 0.  0.
         24    2    1    2    0    0  0.57962619001E+02 -0.26321155355E+02  0.58956798965E+02  0.11838069839E+03  0.80533329668E+02 0.  0.
        -13    1    5    5    0    0  0.15103315243E+02 -0.50909664307E+02  0.33633076995E+02  0.62857679875E+02  0.00000000000E+00 0.  1.
         14    1    5    5    0    0  0.42859303758E+02  0.24588508951E+02  0.25323721970E+02  0.55523018519E+02  0.00000000000E+00 0. -1.
         13    1    3    3    0    0 -0.52059399377E+02  0.36050356197E+02 -0.73333482306E+03  0.73606370102E+03  0.00000000000E+00 0. -1.
        -14    1    3    3    0    0  0.14395755336E+02 -0.20051286180E+02 -0.18050608577E+03  0.18218600069E+03  0.00000000000E+00 0.  1.
          5    1    4    4  501    0 -0.18456719185E+02 -0.20384288219E+02 -0.30407158869E+02  0.41209676045E+02  0.41800000000E+01 0. -1.
         -5    1    4    4    0  501 -0.18422557751E+01  0.30706373557E+02 -0.66508605796E+03  0.66581019231E+03  0.41800000000E+01 0. -1.
</event>
<event>
11    1  0.6625361E-009  0.1529934E+03  0.7561462E-02  0.1093859E+00
         22   -1    0    0    0    0  0.00000000000E+00  0.00000000000E+00  0.38725057448E+03  0.38725057448E+03  0.00000000000E+00 0. -1.
         22   -1    0    0    0    0 -0.00000000000E+00 -0.00000000000E+00 -0.29545767831E+03  0.29545767831E+03  0.00000000000E+00 0. -1.
        -24    2    1    2    0    0  0.18312672816E+02  0.13625806281E+02 -0.42018288050E+02  0.98537723110E+02  0.86157586796E+02 0.  0.
         25    2    1    2    0    0 -0.66246604078E+02 -0.86288360604E+02 -0.18235978828E+03  0.24645272827E+03  0.12509820606E+03 0.  0.
         24    2    1    2    0    0  0.47933931262E+02  0.72662554323E+02  0.31617097251E+03  0.33771780141E+03  0.80695235099E+02 0.  0.
        -11    1    5    5    0    0  0.63348552512E+02  0.26529716069E+02  0.15917181713E+03  0.17335666214E+03  0.00000000000E+00 0.  1.
         12    1    5    5    0    0 -0.15414621249E+02  0.46132838254E+02  0.15699915537E+03  0.16436113927E+03  0.00000000000E+00 0. -1.
         13    1    3    3    0    0 -0.15554619505E+02  0.30200938219E+02 -0.49559838248E+02  0.60085109840E+02  0.00000000000E+00 0. -1.
        -14    1    3    3    0    0  0.33867292321E+02 -0.16575131938E+02  0.75415501981E+01  0.38452613270E+02  0.00000000000E+00 0.  1.
          5    1    4    4  501    0 -0.25892444330E+02 -0.10634154802E+03 -0.16486892011E+03  0.19793477897E+03  0.41800000000E+01 0.  1.
         -5    1    4    4    0  501 -0.40354159749E+02  0.20053187411E+02 -0.17490868172E+02  0.48517949295E+02  0.41800000000E+01 0.  1.
</event>
<event>
11    1  0.6625361E-009  0.3189458E+03  0.7561462E-02  0.9924771E-01
         22   -1    0    0    0    0  0.00000000000E+00  0.00000000000E+00  0.33780946640E+04  0.33780946640E+04  0.00000000000E+00 0. -1.
         22   -1    0    0    0    0 -0.00000000000E+00 -0.00000000000E+00 -0.47074763945E+03  0.47074763945E+03  0.00000000000E+00 0. -1.
        -24    2    1    2    0    0  0.31233525004E+02  0.14053663837E+03 -0.44853340671E+03  0.47783949791E+03  0.80139185277E+02 0.  0.
         25    2    1    2    0    0  0.77670474920E+01 -0.14017604187E+02  0.75277626685E+03  0.76326724177E+03  0.12509178299E+03 0.  0.
         24    2    1    2    0    0 -0.39000572496E+02 -0.12651903418E+03  0.26031041644E+04  0.26077355637E+04  0.81273422028E+02 0.  0.
        -13    1    5    5    0    0 -0.48546309221E+02 -0.40258880585E+02  0.77016259177E+03  0.77274053819E+03  0.00000000000E+00 0.  1.
         14    1    5    5    0    0  0.95457367259E+01 -0.86260153594E+02  0.18329415726E+04  0.18349950256E+04  0.00000000000E+00 0. -1.
         13    1    3    3    0    0  0.94588676524E+01  0.10922605354E+03 -0.21633199529E+03  0.24252697404E+03  0.00000000000E+00 0. -1.
        -14    1    3    3    0    0  0.21774657351E+02  0.31310584830E+02 -0.23220141142E+03  0.23531252387E+03  0.00000000000E+00 0.  1.
          5    1    4    4  501    0 -0.21907383688E+02  0.16861553522E+02  0.37899404662E+02  0.47096525572E+02  0.41800000000E+01 0. -1.
         -5    1    4    4    0  501  0.29674431180E+02 -0.30879157709E+02  0.71487686219E+03  0.71617071620E+03  0.41800000000E+01 0. -1.
</event>
<event>
11    1  0.6625361E-009  0.1319918E+03  0.7561462E-02  0.1116846E+00
         22   -1    0    0    0    0  0.00000000000E+00  0.00000000000E+00  0.88658435476E+02  0.88658435476E+02  0.00000000000E+00 0.  1.
         22   -1    0    0    0    0 -0.00000000000E+00 -0.00000000000E+00 -0.17043033179E+04  0.17043033179E+04  0.00000000000E+00 0. -1.
        -24    2    1    2    0    0  0.41886263743E+02 -0.14412432103E+02 -0.15356273940E+04  0.15383381603E+04  0.79816195931E+02 0.  0.
         25    2    1    2    0    0 -0.78861019939E+01  0.45725693767E+02 -0.90347493969E+02  0.16113143516E+03  0.12509052744E+03 0.  0.
         24    2    1    2    0    0 -0.34000161750E+02 -0.31313261664E+02  0.10330005447E+02  0.93492157951E+02  0.80607339807E+02 0.  0.
        -11    1    5    5    0    0 -0.59260911371E+02 -0.30052338661E+02  0.75953696408E+00  0.66449797380E+02  0.00000000000E+00 0.  1.
         12    1    5    5    0    0  0.25260749621E+02 -0.12609230029E+01  0.95704684832E+01  0.27042360571E+02  0.00000000000E+00 0. -1.
         11    1    3    3    0    0  0.84440537847E+01  0.19207355198E+02 -0.10886899405E+04  0.10888921026E+04  0.00000000000E+00 0. -1.
        -12    1    3    3    0    0  0.33442209959E+02 -0.33619787300E+02 -0.44693745345E+03  0.44944605772E+03  0.00000000000E+00 0.  1.
          5    1    4    4  501    0 -0.29220012876E+02  0.54097652855E+02 -0.11295275757E+03  0.12867075441E+03  0.41800000000E+01 0. -1.
         -5    1    4    4    0  501  0.21333910882E+02 -0.83719590886E+01  0.22605263601E+02  0.32460680753E+02  0.41800000000E+01 0. -1.
</event>
<event>
11    1  0.6625361E-009  0.1656410E+03  0.7561462E-02  0.1081888E+00
         22   -1    0    0    0    0  0.00000000000E+00  0.00000000000E+00  0.85214074565E+02  0.85214074565E+02  0.00000000000E+00 0.  1.
         22   -1    0    0    0    0 -0.00000000000E+00 -0.00000000000E+00 -0.12447516907E+04  0.12447516907E+04  0.00000000000E+00 0.  1.
        -24    2    1    2    0    0  0.22058701436E+02  0.10821735623E+03 -0.96652359243E+03  0.97612212970E+03  0.80305509603E+02 0.  0.
         25    2    1    2    0    0 -0.86288102854E+01 -0.98601363411E+02 -0.21726134730E+03  0.26953070840E+03  0.12509046529E+03 0.  0.
         24    2    1    2    0    0 -0.13429891150E+02 -0.96159928161E+01  0.24247323556E+02  0.84312927204E+02  0.79043707529E+02 0.  0.
        -13    1    5    5    0    0 -0.31089720775E+02  0.25349302381E+02  0.20255204525E+02  0.44938081617E+02  0.00000000000E+00 0.  1.
         14    1    5    5    0    0  0.17659829625E+02 -0.34965295197E+02  0.39921190305E+01  0.39374845587E+02  0.00000000000E+00 0. -1.
         13    1    3    3    0    0  0.14893259672E+02  0.90160829530E+02 -0.44750388314E+03  0.45673899526E+03  0.00000000000E+00 0. -1.
        -14    1    3    3    0    0  0.71654417641E+01  0.18056526697E+02 -0.51901970929E+03  0.51938313444E+03  0.00000000000E+00 0.  1.
          5    1    4    4  501    0 -0.11861082837E+02  0.16718353628E+02  0.27224590782E+01  0.21096748980E+02  0.41800000000E+01 0.  1.
         -5    1    4    4    0  501  0.32322725515E+01 -0.11531971704E+03 -0.21998380638E+03  0.24843395942E+03  0.41800000000E+01 0.  1.
</event>
<event>
11    1  0.6625361E-009  0.1619954E+03  0.7561462E-02  0.1085215E+00
         22   -1    0    0    0    0  0.00000000000E+00  0.00000000000E+00  0.97017824495E+02  0.97017824495E+02  0.00000000000E+00 0.  1.
         22   -1    0    0    0    0 -0.00000000000E+00 -0.00000000000E+00 -0.70026794084E+03  0.70026794084E+03  0.00000000000E+00 0.  1.
         24    2    1    2    0    0 -0.11087534075E+03 -0.16298873159E+02 -0.40089243976E+03  0.42420156116E+03  0.81689789961E+02 0.  0.
         25    2    1    2    0    0  0.75133759449E+02  0.50986089581E+02 -0.22680804218E+03  0.27447068834E+03  0.12509039778E+03 0.  0.
        -24    2    1    2    0    0  0.35741581304E+02 -0.34687216422E+02  0.24450365590E+02  0.98613515843E+02  0.81523870812E+02 0.  0.
        -11    1    3    3    0    0 -0.63455019380E+02  0.18394054261E+02 -0.30224647660E+03  0.30938295579E+03  0.00000000000E+00 0.  1.
         12    1    3    3    0    0 -0.47420321374E+02 -0.34692927420E+02 -0.98645963159E+02  0.11481860537E+03  0.00000000000E+00 0. -1.
         11    1    5    5    0    0 -0.47416637188E+01 -0.41636623277E+02 -0.12113755481E+02  0.43621495213E+02  0.00000000000E+00 0. -1.
        -12    1    5    5    0    0  0.40483245023E+02  0.69494068554E+01  0.36564121071E+02  0.54992020630E+02  0.00000000000E+00 0.  1.
          5    1    4    4  501    0  0.83217917488E+02 -0.17122712305E+02 -0.13914428325E+03  0.16308590690E+03  0.41800000000E+01 0.  1.
         -5    1    4    4    0  501 -0.80841580384E+01  0.68108801887E+02 -0.87663758930E+02  0.11138478143E+03  0.41800000000E+01 0.  1.
</event>
<event>
11    1  0.6625361E-009  0.1800677E+03  0.7561462E-02  0.1069588E+00
         22   -1    0    0    0    0  0.00000000000E+00  0.00000000000E+00  0.17252805151E+04  0.17252805151E+04  0.00000000000E+00 0. -1.
         22   -1    0    0    0    0 -0.00000000000E+00 -0.00000000000E+00 -0.21765082829E+03  0.21765082829E+03  0.00000000000E+00 0. -1.
        -24    2    1    2    0    0 -0.12130957341E+03  0.53764253901E+02 -0.17749419822E+03  0.23557099033E+03  0.79893012758E+02 0.  0.
         25    2    1    2    0    0  0.63855915594E+02 -0.18224455702E+02  0.57581865956E+03  0.59297987059E+03  0.12509312321E+03 0.  0.
         24    2    1    2    0    0  0.57453657811E+02 -0.35539798200E+02  0.11093052254E+04  0.11143804824E+04  0.81986440358E+02 0.  0.
        -13    1    5    5    0    0 -0.21840357154E+00 -0.19146369077E+02  0.52617559610E+02  0.55993202518E+02  0.00000000000E+00 0.  1.
         14    1    5    5    0    0  0.57672061383E+02 -0.16393429123E+02  0.10566876658E+04  0.10583872799E+04  0.00000000000E+00 0. -1.
         11    1    3    3    0    0 -0.12621416766E+03  0.62103300106E+02 -0.14648587934E+03  0.20308852466E+03  0.00000000000E+00 0. -1.
        -12    1    3    3    0    0  0.49045942572E+01 -0.83390462052E+01 -0.31008318878E+02  0.32482465672E+02  0.00000000000E+00 0.  1.
          5    1    4    4  501    0  0.46997145742E+02 -0.25058636678E+00  0.56284352266E+03  0.56481775636E+03  0.41800000000E+01 0.  1.
         -5    1    4    4    0  501  0.16858769852E+02 -0.17973869335E+02  0.12975136902E+02  0.28162114221E+02  0.41800000000E+01 0.  1.
</event>
<event>
11    1  0.6625361E-009  0.3082064E+03  0.7561462E-02  0.9967767E-01
         22   -1    0    0    0    0  0.00000000000E+00  0.00000000000E+00  0.29555633573E+04  0.29555633573E+04  0.00000000000E+00 0. -1.
         22   -1    0    0    0    0 -0.00000000000E+00 -0.00000000000E+00 -0.25359839459E+04  0.25359839459E+04  0.00000000000E+00 0. -1.
         24    2    1    2    0    0 -0.16674290208E+02 -0.51294102450E+01 -0.24758881071E+04  0.24772018802E+04  0.78758449813E+02 0.  0.
         25    2    1    2    0    0  0.26996147451E+03 -0.11376484769E+03  0.44822848251E+03  0.54988931201E+03  0.12509134521E+03 0.  0.
        -24    2    1    2    0    0 -0.25328718430E+03  0.11889425793E+03  0.24472390361E+04  0.24644561110E+04  0.79213516093E+02 0.  0.
        -11    1    3    3    0    0 -0.96759893527E+01  0.18191389707E+02 -0.17858131853E+03  0.17976606675E+03  0.00000000000E+00 0.  1.
         12    1    3    3    0    0 -0.69983008553E+01 -0.23320799952E+02 -0.22973067886E+04  0.22974358134E+04  0.00000000000E+00 0. -1.
         11    1    5    5    0    0 -0.20517970190E+03  0.68518362439E+02  0.16374501065E+04  0.16516768229E+04  0.00000000000E+00 0. -1.
        -12    1    5    5    0    0 -0.48107482396E+02  0.50375895493E+02  0.80978892957E+03  0.81277928810E+03  0.00000000000E+00 0.  1.
          5    1    4    4  501    0  0.11181016813E+03  0.15952966440E+02  0.13971285007E+03  0.17970298748E+03  0.41800000000E+01 0.  1.
         -5    1    4    4    0  501  0.15815130638E+03 -0.12971781413E+03  0.30851563243E+03  0.37018632453E+03  0.41800000000E+01 0.  1.
</event>
<event>
11    1  0.6625361E-009  0.1600651E+03  0.7561462E-02  0.1087016E+00
         22   -1    0    0    0    0  0.00000000000E+00  0.00000000000E+00  0.68884701679E+03  0.68884701679E+03  0.00000000000E+00 0.  1.
         22   -1    0    0    0    0 -0.00000000000E+00 -0.00000000000E+00 -0.11431556475E+03  0.11431556475E+03  0.00000000000E+00 0.  1.
        -24    2    1    2    0    0 -0.64236662587E+02  0.83891393881E+01 -0.30265194593E+02  0.10723103557E+03  0.79911116279E+02 0.  0.
         25    2    1    2    0    0  0.32170967992E+02  0.91744420973E+02  0.14156483766E+03  0.21246064545E+03  0.12508761986E+03 0.  0.
         24    2    1    2    0    0  0.32065694594E+02 -0.10013356036E+03  0.46323180898E+03  0.48347090053E+03  0.90030351139E+02 0.  0.
        -13    1    5    5    0    0  0.20920211005E+02 -0.83139217025E+02  0.45238036301E+03  0.46043216381E+03  0.00000000000E+00 0.  1.
         14    1    5    5    0    0  0.11145483590E+02 -0.16994343336E+02  0.10851445973E+02  0.23038736718E+02  0.00000000000E+00 0. -1.
         11    1    3    3    0    0 -0.40328170600E+00  0.28510086941E+02 -0.28447138972E+02  0.40276884303E+02  0.00000000000E+00 0. -1.
        -12    1    3    3    0    0 -0.63833380881E+02 -0.20120947553E+02 -0.18180556218E+01  0.66954151263E+02  0.00000000000E+00 0.  1.
          5    1    4    4  501    0  0.31966193571E+02 -0.25223310962E+02  0.43896909029E+02  0.60020529568E+02  0.41800000000E+01 0. -1.
         -5    1    4    4    0  501  0.20477442113E+00  0.11696773193E+03  0.97667928626E+02  0.15244011588E+03  0.41800000000E+01 0. -1.
</event>
<event>
11    1  0.6625361E-009  0.1589109E+03  0.7561462E-02  0.1088106E+00
         22   -1    0    0    0    0  0.00000000000E+00  0.00000000000E+00  0.52038934139E+03  0.52038934139E+03  0.00000000000E+00 0. -1.
         22   -1    0    0    0    0 -0.00000000000E+00 -0.00000000000E+00 -0.16897111364E+04  0.16897111364E+04  0.00000000000E+00 0. -1.
        -24    2    1    2    0    0  0.78729341654E+02 -0.54744917180E+02 -0.15051635365E+04  0.15103220399E+04  0.79750094546E+02 0.  0.
         25    2    1    2    0    0 -0.12917231160E+03  0.57830127400E+02 -0.12680038159E+03  0.22749928838E+03  0.12509108570E+03 0.  0.
         24    2    1    2    0    0  0.50442969947E+02 -0.30852102199E+01  0.46264212308E+03  0.47227914945E+03  0.80348299444E+02 0.  0.
        -11    1    5    5    0    0  0.71587237690E+02  0.15353633292E+01  0.31339372940E+03  0.32146962465E+03  0.00000000000E+00 0.  1.
         12    1    5    5    0    0 -0.21144267743E+02 -0.46205735491E+01  0.14924839367E+03  0.15080952481E+03  0.00000000000E+00 0. -1.
         13    1    3    3    0    0  0.91688142668E+02 -0.39901425649E+02 -0.13798911185E+04  0.13835094283E+04  0.00000000000E+00 0. -1.
        -14    1    3    3    0    0 -0.12958801014E+02 -0.14843491531E+02 -0.12527241802E+03  0.12681261168E+03  0.00000000000E+00 0.  1.
          5    1    4    4  501    0 -0.10681029045E+03 -0.10808757477E+02 -0.40278931100E+02  0.11473940942E+03  0.41800000000E+01 0. -1.
         -5    1    4    4    0  501 -0.22362021152E+02  0.68638884877E+02 -0.86521450490E+02  0.11275987896E+03  0.41800000000E+01 0. -1.
</event>
<event>
11    1  0.6625361E-009  0.1514091E+03  0.7561462E-02  0.1095448E+00
         22   -1    0    0    0    0  0.00000000000E+00  0.00000000000E+00  0.37718282279E+03  0.37718282279E+03  0.00000000000E+00 0. -1.
         22   -1    0    0    0    0 -0.00000000000E+00 -0.00000000000E+00 -0.19133378959E+04  0.19133378959E+04  0.00000000000E+00 0. -1.
        -24    2    1    2    0    0  0.85075605413E+02  0.16299422634E+02 -0.18529737396E+04  0.18568153716E+04  0.82146910566E+02 0.  0.
         25    2    1    2    0    0 -0.28888536302E+02  0.32547493823E+02  0.44284301013E+02  0.13964961276E+03  0.12508808155E+03 0.  0.
         24    2    1    2    0    0 -0.56187069111E+02 -0.48846916457E+02  0.27253436543E+03  0.29405573433E+03  0.81552354771E+02 0.  0.
        -13    1    5    5    0    0  0.20454719206E+01 -0.41325770680E+02  0.55542841088E+02  0.69260453896E+02  0.00000000000E+00 0.  1.
         14    1    5    5    0    0 -0.58232541031E+02 -0.75211457765E+01  0.21699152434E+03  0.22479528043E+03  0.00000000000E+00 0. -1.
         13    1    3    3    0    0  0.85732646144E+02 -0.22950861322E+01 -0.17547704331E+04  0.17568649997E+04  0.00000000000E+00 0. -1.
        -14    1    3    3    0    0 -0.65704073068E+00  0.18594508766E+02 -0.98203306475E+02  0.99950371993E+02  0.00000000000E+00 0.  1.
          5    1    4    4  501    0 -0.42126020715E+02  0.75906653848E+02  0.28711308526E+02  0.91532690099E+02  0.41800000000E+01 0.  1.
         -5    1    4    4    0  501  0.13237484413E+02 -0.43359160025E+02  0.15572992487E+02  0.48116922663E+02  0.41800000000E+01 0.  1.
</event>
<event>
11    1  0.6625361E-009  0.1891296E+03  0.7561462E-02  0.1062488E+00
         22   -1    0    0    0    0  0.00000000000E+00  0.00000000000E+00  0.14631162769E+04  0.14631162769E+04  0.00000000000E+00 0.  1.
         22   -1    0    0    0    0 -0.00000000000E+00 -0.00000000000E+00 -0.13140615780E+04  0.13140615780E+04  0.00000000000E+00 0.  1.
         24    2    1    2    0    0 -0.13406406339E+03 -0.42559053357E+02 -0.12314813128E+04  0.12419911783E+04  0.78812543817E+02 0.  0.
         25    2    1    2    0    0  0.16202555350E+03  0.76948389945E+02  0.82245668069E+02  0.23363549568E+03  0.12509140746E+03 0.  0.
        -24    2    1    2    0    0 -0.27961490115E+02 -0.34389336588E+02  0.12982903437E+04  0.13015511809E+04  0.80704329006E+02 0.  0.
        -11    1    3    3    0    0 -0.14301556989E+03 -0.39452505730E+02 -0.10705095670E+04  0.10807408045E+04  0.00000000000E+00 0.  1.
         12    1    3    3    0    0  0.89515065025E+01 -0.31065476274E+01 -0.16097174583E+03  0.16125037384E+03  0.00000000000E+00 0. -1.
         11    1    5    5    0    0  0.23442545536E+02 -0.38068928695E+01  0.66982496224E+03  0.67024586938E+03  0.00000000000E+00 0. -1.
        -12    1    5    5    0    0 -0.51404035651E+02 -0.30582443718E+02  0.62846538142E+03  0.63130531154E+03  0.00000000000E+00 0.  1.
          5    1    4    4  501    0  0.14065013930E+03  0.33214452028E+02  0.10603466119E+03  0.17929440394E+03  0.41800000000E+01 0.  1.
         -5    1    4    4    0  501  0.21375414199E+02  0.43733937917E+02 -0.23788993119E+02  0.54341091740E+02  0.41800000000E+01 0.  1.
</event>
<event>
11    1  0.6625361E-009  0.1943931E+03  0.7561462E-02  0.1058561E+00
         22   -1    0    0    0    0  0.00000000000E+00  0.00000000000E+00  0.16854564416E+03  0.16854564416E+03  0.00000000000E+00 0.  1.
         22   -1    0    0    0    0 -0.00000000000E+00 -0.00000000000E+00 -0.13446815351E+04  0.13446815351E+04  0.00000000000E+00 0.  1.
         24    2    1    2    0    0  0.10300448554E+01 -0.11460544844E+02 -0.47893507111E+03  0.48621886060E+03  0.83051628373E+02 0.  0.
         25    2    1    2    0    0 -0.13911551576E+03  0.66123632104E+02 -0.80272282527E+03  0.82688430886E+03  0.12509302372E+03 0.  0.
        -24    2    1    2    0    0  0.13808547091E+03 -0.54663087260E+02  0.10552200546E+03  0.20012400980E+03  0.82819534398E+02 0.  0.
        -13    1    3    3    0    0  0.31623270175E-01  0.35640980335E+02 -0.16839347870E+03  0.17212392091E+03  0.00000000000E+00 0.  1.
         14    1    3    3    0    0  0.99842158527E+00 -0.47101525179E+02 -0.31054159241E+03  0.31409493969E+03  0.00000000000E+00 0. -1.
         11    1    5    5    0    0  0.43123983145E+02 -0.25224619893E+02 -0.64612928365E+01  0.50375665515E+02  0.00000000000E+00 0. -1.
        -12    1    5    5    0    0  0.94961487763E+02 -0.29438467367E+02  0.11198329829E+03  0.14974834428E+03  0.00000000000E+00 0.  1.
          5    1    4    4  501    0 -0.14123836673E+03  0.96461468279E+01 -0.58647735964E+03  0.60333613364E+03  0.41800000000E+01 0. -1.
         -5    1    4    4    0  501  0.21228509677E+01  0.56477485276E+02 -0.21624546563E+03  0.22354817522E+03  0.41800000000E+01 0. -1.
</event>
<event>
11    1  0.6625361E-009  0.1866926E+03  0.7561462E-02  0.1064354E+00
         22   -1    0    0    0    0  0.00000000000E+00  0.00000000000E+00  0.17817543903E+04  0.17817543903E+04  0.00000000000E+00 0.  1.
         22   -1    0    0    0    0 -0.00000000000E+00 -0.00000000000E+00 -0.36847041733E+04  0.36847041733E+04  0.00000000000E+00 0. -1.
         24    2    1    2    0    0 -0.11208644851E+03  0.81407644934E+02 -0.36626145994E+04  0.36661390262E+04  0.81480545415E+02 0.  0.
         25    2    1    2    0    0  0.79767606704E+02 -0.16032016403E+03  0.68062670810E+03  0.71481992590E+03  0.12509750041E+03 0.  0.
        -24    2    1    2    0    0  0.32318841810E+02  0.78912519095E+02  0.10790381083E+04  0.10854996115E+04  0.81941894637E+02 0.  0.
        -13    1    3    3    0    0 -0.30547221146E+02  0.80951547948E+01 -0.28529777467E+03  0.28704265273E+03  0.00000000000E+00 0.  1.
         14    1    3    3    0    0 -0.81539227369E+02  0.73312490140E+02 -0.33773168247E+04  0.33790963735E+04  0.00000000000E+00 0. -1.
         11    1    5    5    0    0 -0.48697028221E+01 -0.13879289167E+02  0.70425074995E+02  0.71944700023E+02  0.00000000000E+00 0. -1.
        -12    1    5    5    0    0  0.37188544633E+02  0.92791808262E+02  0.10086130333E+04  0.10135549114E+04  0.00000000000E+00 0.  1.
          5    1    4    4  501    0  0.29009368582E+02 -0.41902646916E+02  0.42957725351E+03  0.43261006047E+03  0.41800000000E+01 0.  1.
         -5    1    4    4    0  501  0.50758238122E+02 -0.11841751711E+03  0.25104945459E+03  0.28220986543E+03  0.41800000000E+01 0.  1.
</event>
<event>
11    1  0.6625361E-009  0.2751186E+03  0.7561462E-02  0.1011308E+00
         22   -1    0    0    0    0  0.00000000000E+00  0.00000000000E+00  0.12374839509E+04  0.12374839509E+04  0.00000000000E+00 0. -1.
         22   -1    0    0    0    0 -0.00000000000E+00 -0.00000000000E+00 -0.66057387152E+03  0.66057387152E+03  0.00000000000E+00 0.  1.
         24    2    1    2    0    0 -0.14042428933E+02  0.32433101886E+02 -0.54102773623E+03  0.54726030641E+03  0.74389083179E+02 0.  0.
         25    2    1    2    0    0 -0.22560801172E+03 -0.87407425915E+02  0.84308823555E+02  0.28512209882E+03  0.12509036913E+03 0.  0.
        -24    2    1    2    0    0  0.23965044065E+03  0.54974324028E+02  0.10336289920E+04  0.10656754172E+04  0.82587478484E+02 0.  0.
        -11    1    3    3    0    0 -0.28780952427E+02 -0.14382707988E+02 -0.25939565383E+03  0.26138345537E+03  0.00000000000E+00 0.  1.
         12    1    3    3    0    0  0.14738523494E+02  0.46815809874E+02 -0.28163208239E+03  0.28587685104E+03  0.00000000000E+00 0. -1.
         13    1    5    5    0    0  0.24260863330E+03  0.60750913745E+02  0.10237408256E+04  0.10538476647E+04  0.00000000000E+00 0. -1.
        -14    1    5    5    0    0 -0.29581926511E+01 -0.57765897166E+01  0.98881664673E+01  0.11827752475E+02  0.00000000000E+00 0.  1.
          5    1    4    4  501    0  0.51240429122E+01  0.10342385953E+02  0.24593973223E+02  0.27487391325E+02  0.41800000000E+01 0. -1.
         -5    1    4    4    0  501 -0.23073205463E+03 -0.97749811868E+02  0.59714850331E+02  0.25763470749E+03  0.41800000000E+01 0. -1.
</event>
<event>
11    1  0.1064299E-008  0.1609710E+03  0.7561462E-02  0.1086168E+00
         22   -1    0    0    0    0  0.00000000000E+00  0.00000000000E+00  0.56779853581E+03  0.56779853581E+03  0.00000000000E+00 0. -1.
         22   -1    0    0    0    0 -0.00000000000E+00 -0.00000000000E+00 -0.19025449042E+04  0.19025449042E+04  0.00000000000E+00 0. -1.
        -24    2    1    2    0    0 -0.57243365115E+02  0.20890544540E+02 -0.16480140566E+04  0.16511288092E+04  0.81011085450E+02 0.  0.
         25    2    1    2    0    0 -0.38615538531E+02 -0.58046111294E+02 -0.22371597535E+03  0.26562525939E+03  0.12508968761E+03 0.  0.
         24    2    1    2    0    0  0.95858903647E+02  0.37155566754E+02  0.53698366363E+03  0.55358937141E+03  0.86834737197E+02 0.  0.
        -11    1    5    5    0    0  0.27598589153E+02  0.51699434463E+02  0.16459604630E+03  0.17471797877E+03  0.00000000000E+00 0.  1.
         12    1    5    5    0    0  0.68260314493E+02 -0.14543867709E+02  0.37238761732E+03  0.37887139264E+03  0.00000000000E+00 0. -1.
         11    1    3    3    0    0 -0.17803333782E+02  0.41320228865E+02 -0.12171608144E+04  0.12179921051E+04  0.00000000000E+00 0. -1.
        -12    1    3    3    0    0 -0.39440031333E+02 -0.20429684325E+02 -0.43085324226E+03  0.43313670410E+03  0.00000000000E+00 0.  1.
          5    1    4    4  501    0  0.36490502185E+02 -0.49430026824E+02 -0.63699538837E+02  0.88600157729E+02  0.41800000000E+01 0.  1.
         -5    1    4    4    0  501 -0.75106040717E+02 -0.86160844694E+01 -0.16001643651E+03  0.17702510166E+03  0.41800000000E+01 0.  1.
</event>
<event>
11    1  0.6625361E-009  0.1444068E+03  0.7561462E-02  0.1102735E+00
         22   -1    0    0    0    0  0.00000000000E+00  0.00000000000E+00  0.10349858866E+04  0.10349858866E+04  0.00000000000E+00 0.  1.
         22   -1    0    0    0    0 -0.00000000000E+00 -0.00000000000E+00 -0.89322599858E+02  0.89322599858E+02  0.00000000000E+00 0.  1.
        -24    2    1    2    0    0  0.11569569486E+02 -0.70278932248E+02 -0.32302637660E+02  0.11298833101E+03  0.81547037271E+02 0.  0.
         25    2    1    2    0    0  0.14783216207E+01  0.82877358308E+02  0.40178040282E+03  0.42888932412E+03  0.12509084020E+03 0.  0.
         24    2    1    2    0    0 -0.13047891107E+02 -0.12598426059E+02  0.57618552159E+03  0.58243083134E+03  0.83108063395E+02 0.  0.
        -11    1    5    5    0    0 -0.19995292146E+02  0.31520139956E+01  0.55390505644E+03  0.55427480409E+03  0.00000000000E+00 0.  1.
         12    1    5    5    0    0  0.69474010386E+01 -0.15750440055E+02  0.22280465158E+02  0.28156027255E+02  0.00000000000E+00 0. -1.
         11    1    3    3    0    0  0.22626911161E+01 -0.17009794787E+02  0.27467068813E+02  0.32386613885E+02  0.00000000000E+00 0. -1.
        -12    1    3    3    0    0  0.93068783701E+01 -0.53269137461E+02 -0.59769706473E+02  0.80601717120E+02  0.00000000000E+00 0.  1.
          5    1    4    4  501    0  0.55423117209E+02  0.56328293511E+02  0.30310025028E+03  0.31326000813E+03  0.41800000000E+01 0. -1.
         -5    1    4    4    0  501 -0.53944795588E+02  0.26549064797E+02  0.98680152541E+02  0.11562931600E+03  0.41800000000E+01 0. -1.
</event>
<event>
11    1  0.6625361E-009  0.1630451E+03  0.7561462E-02  0.1084248E+00
         22   -1    0    0    0    0  0.00000000000E+00  0.00000000000E+00  0.38503950187E+03  0.38503950187E+03  0.00000000000E+00 0.  1.
         22   -1    0    0    0    0 -0.00000000000E+00 -0.00000000000E+00 -0.14549323813E+04  0.14549323813E+04  0.00000000000E+00 0. -1.
        -24    2    1    2    0    0 -0.10415456759E+03  0.95741889000E+01 -0.14116461689E+04  0.14177918530E+04  0.80305624323E+02 0.  0.
         25    2    1    2    0    0  0.10456202088E+03  0.12428047226E+01  0.19649350284E+03  0.25532320905E+03  0.12508190774E+03 0.  0.
         24    2    1    2    0    0 -0.40745328892E+00 -0.10816993623E+02  0.14525978656E+03  0.16685682115E+03  0.81385624064E+02 0.  0.
        -13    1    5    5    0    0 -0.26595397074E+02  0.11973837254E+02  0.12109576209E+03  0.12455870713E+03  0.00000000000E+00 0.  1.
         14    1    5    5    0    0  0.26187943785E+02 -0.22790830876E+02  0.24164024468E+02  0.42298114027E+02  0.00000000000E+00 0. -1.
         11    1    3    3    0    0 -0.49605735697E+02  0.44208947601E+02 -0.79375457324E+03  0.79653090499E+03  0.00000000000E+00 0. -1.
        -12    1    3    3    0    0 -0.54548831890E+02 -0.34634758701E+02 -0.61789159561E+03  0.62126094799E+03  0.00000000000E+00 0.  1.
          5    1    4    4  501    0  0.76417822227E+02 -0.14019660613E+02  0.26354852034E+02  0.82147946191E+02  0.41800000000E+01 0.  1.
         -5    1    4    4    0  501  0.28144198649E+02  0.15262465336E+02  0.17013865081E+03  0.17317526286E+03  0.41800000000E+01 0.  1.
</event>
<event>
11    1  0.7990195E-009  0.1780444E+03  0.7561462E-02  0.1071236E+00
         22   -1    0    0    0    0  0.00000000000E+00  0.00000000000E+00  0.31638198844E+03  0.31638198844E+03  0.00000000000E+00 0.  1.
         22   -1    0    0    0    0 -0.00000000000E+00 -0.00000000000E+00 -0.21586694414E+04  0.21586694414E+04  0.00000000000E+00 0.  1.
        -24    2    1    2    0    0  0.52720352045E+02  0.36419895198E+02 -0.16948133808E+04  0.16978816427E+04  0.79396678884E+02 0.  0.
         25    2    1    2    0    0 -0.17459277795E+03 -0.92129963326E+01 -0.41703365976E+03  0.46918281875E+03  0.12509167288E+03 0.  0.
         24    2    1    2    0    0  0.12187242591E+03 -0.27206898865E+02  0.26955958759E+03  0.30798696839E+03  0.81243448335E+02 0.  0.
        -11    1    5    5    0    0 -0.26904116553E+01  0.14421575384E+02  0.12309269676E+02  0.19150411781E+02  0.00000000000E+00 0.  1.
         12    1    5    5    0    0  0.12456283756E+03 -0.41628474249E+02  0.25725031791E+03  0.28883655661E+03  0.00000000000E+00 0. -1.
         13    1    3    3    0    0 -0.22339713479E+01  0.63346525185E+01 -0.10901751965E+02  0.12804946170E+02  0.00000000000E+00 0. -1.
        -14    1    3    3    0    0  0.54954323393E+02  0.30085242679E+02 -0.16839116289E+04  0.16850766966E+04  0.00000000000E+00 0.  1.
          5    1    4    4  501    0 -0.46496241359E+02 -0.45337453018E+02 -0.61528477485E+02  0.89557864246E+02  0.41800000000E+01 0.  1.
         -5    1    4    4    0  501 -0.12809653659E+03  0.36124456685E+02 -0.35550518228E+03  0.37962495451E+03  0.41800000000E+01 0.  1.
</event>
<event>
11    1  0.6625361E-009  0.1287599E+03  0.7561462E-02  0.1120802E+00
         22   -1    0    0    0    0  0.00000000000E+00  0.00000000000E+00  0.19226046367E+03  0.19226046367E+03  0.00000000000E+00 0. -1.
         22   -1    0    0    0    0 -0.00000000000E+00 -0.00000000000E+00 -0.60380628093E+03  0.60380628093E+03  0.00000000000E+00 0. -1.
        -24    2    1    2    0    0  0.25182066045E+02 -0.19221462421E+02 -0.49042291191E+03  0.49815783614E+03  0.81504577293E+02 0.  0.
         25    2    1    2    0    0  0.50629556011E+01  0.33932812146E+02 -0.54261927076E+02  0.14059883189E+03  0.12508639231E+03 0.  0.
         24    2    1    2    0    0 -0.30245021646E+02 -0.14711349725E+02  0.13313902172E+03  0.15731007657E+03  0.76741618046E+02 0.  0.
        -13    1    5    5    0    0  0.72707927099E+00  0.29344478721E+02  0.56084411650E+02  0.63301566377E+02  0.00000000000E+00 0.  1.
         14    1    5    5    0    0 -0.30972100917E+02 -0.44055828446E+02  0.77054610068E+02  0.94008510190E+02  0.00000000000E+00 0. -1.
         13    1    3    3    0    0  0.33937512835E+01 -0.49587617548E+02 -0.25707282781E+03  0.26183370325E+03  0.00000000000E+00 0. -1.
        -14    1    3    3    0    0  0.21788314762E+02  0.30366155128E+02 -0.23335008410E+03  0.23632413289E+03  0.00000000000E+00 0.  1.
          5    1    4    4  501    0 -0.38389869365E+01  0.27250104037E+02  0.38261173723E+02  0.47314858188E+02  0.41800000000E+01 0.  1.
         -5    1    4    4    0  501  0.89019425376E+01  0.66827081083E+01 -0.92523100799E+02  0.93283973704E+02  0.41800000000E+01 0.  1.
</event>
<event>
11    1  0.6625361E-009  0.1460831E+03  0.7561462E-02  0.1100950E+00
         22   -1    0    0    0    0  0.00000000000E+00  0.00000000000E+00  0.26984365419E+03  0.26984365419E+03  0.00000000000E+00 0.  1.
         22   -1    0    0    0    0 -0.00000000000E+00 -0.00000000000E+00 -0.12774632228E+04  0.12774632228E+04  0.00000000000E+00 0. -1.
         24    2    1    2    0    0  0.20142390331E+02  0.73676805478E+02 -0.11447804286E+04  0.11501498706E+04  0.80551272408E+02 0.  0.
         25    2    1    2    0    0  0.12861326661E+02 -0.66516620922E+02 -0.80020899476E+02  0.16321729270E+03  0.12508663278E+03 0.  0.
        -24    2    1    2    0    0 -0.33003716993E+02 -0.71601845558E+01  0.21718175952E+03  0.23393971368E+03  0.80120904822E+02 0.  0.
        -13    1    3    3    0    0 -0.28665959265E+02  0.15323700153E+02 -0.24263209603E+03  0.24479968756E+03  0.00000000000E+00 0.  1.
         14    1    3    3    0    0  0.48808349597E+02  0.58353105325E+02 -0.90214833260E+03  0.90535018303E+03  0.00000000000E+00 0. -1.
         11    1    5    5    0    0 -0.17880364351E+02 -0.43188766109E+02  0.13676751069E+03  0.14453487098E+03  0.00000000000E+00 0. -1.
        -12    1    5    5    0    0 -0.15123352641E+02  0.36028581554E+02  0.80414248823E+02  0.89404842697E+02  0.00000000000E+00 0.  1.
          5    1    4    4  501    0 -0.46566113868E+02 -0.72780820836E+01 -0.17961809873E+00  0.47316784572E+02  0.41800000000E+01 0.  1.
         -5    1    4    4    0  501  0.59427440529E+02 -0.59238538838E+02 -0.79841281377E+02  0.11590050812E+03  0.41800000000E+01 0.  1.
</event>
<event>
11    1  0.6625361E-009  0.1488183E+03  0.7561462E-02  0.1098092E+00
         22   -1    0    0    0    0  0.00000000000E+00  0.00000000000E+00  0.41722174611E+03  0.41722174611E+03  0.00000000000E+00 0.  1.
         22   -1    0    0    0    0 -0.00000000000E+00 -0.00000000000E+00 -0.13724224899E+04  0.13724224899E+04  0.00000000000E+00 0. -1.
        -24    2    1    2    0    0  0.80471851476E+02  0.27547210163E+01 -0.12999457196E+04  0.13057894548E+04  0.93508925266E+02 0.  0.
         25    2    1    2    0    0 -0.84772702627E+02  0.32060827885E+02  0.29851746891E+02  0.15732998260E+03  0.12508912358E+03 0.  0.
         24    2    1    2    0    0  0.43008511510E+01 -0.34815548901E+02  0.31489322892E+03  0.32652479857E+03  0.78930847574E+02 0.  0.
        -11    1    5    5    0    0 -0.21576442732E+02 -0.45966762574E+02  0.13121456546E+03  0.14069736434E+03  0.00000000000E+00 0.  1.
         12    1    5    5    0    0  0.25877293884E+02  0.11151213673E+02  0.18367866345E+03  0.18582743423E+03  0.00000000000E+00 0. -1.
         13    1    3    3    0    0  0.94713023424E+02  0.83199174069E+01 -0.12486206077E+04  0.12522352813E+04  0.00000000000E+00 0. -1.
        -14    1    3    3    0    0 -0.14241171948E+02 -0.55651963905E+01 -0.51325111927E+02  0.53554173541E+02  0.00000000000E+00 0.  1.
          5    1    4    4  501    0 -0.99981390744E+02  0.64046023988E+02  0.22963526322E+02  0.12100813041E+03  0.41800000000E+01 0.  1.
         -5    1    4    4    0  501  0.15208688117E+02 -0.31985196103E+02  0.68882205697E+01  0.36321852192E+02  0.41800000000E+01 0.  1.
</event>
<event>
11    1  0.6625361E-009  0.1459301E+03  0.7561462E-02  0.1101111E+00
         22   -1    0    0    0    0  0.00000000000E+00  0.00000000000E+00  0.10711531005E+03  0.10711531005E+03  0.00000000000E+00 0. -1.
         22   -1    0    0    0    0 -0.00000000000E+00 -0.00000000000E+00 -0.13643456141E+04  0.13643456141E+04  0.00000000000E+00 0. -1.
         24    2    1    2    0    0  0.73963473748E+02 -0.14920967817E+02 -0.77545082207E+03  0.78285456651E+03  0.76446478754E+02 0.  0.
         25    2    1    2    0    0 -0.70668143983E+02  0.24879100904E+02 -0.55830157059E+03  0.57702778078E+03  0.12508980705E+03 0.  0.
        -24    2    1    2    0    0 -0.32953297648E+01 -0.99581330869E+01  0.76522088645E+02  0.11157857683E+03  0.80524065617E+02 0.  0.
        -11    1    3    3    0    0 -0.16135196286E+02 -0.31434842111E+01 -0.10667989430E+03  0.10793899157E+03  0.00000000000E+00 0.  1.
         12    1    3    3    0    0  0.90098670034E+02 -0.11777483606E+02 -0.66877092777E+03  0.67491557494E+03  0.00000000000E+00 0. -1.
         13    1    5    5    0    0 -0.11295169487E+02 -0.44413338646E+02  0.42542075011E+02  0.62529622178E+02  0.00000000000E+00 0. -1.
        -14    1    5    5    0    0  0.79998397223E+01  0.34455205559E+02  0.33980013634E+02  0.49048954650E+02  0.00000000000E+00 0.  1.
          5    1    4    4  501    0 -0.73407385666E+02  0.19472047143E+02 -0.56311661843E+03  0.56823023788E+03  0.41800000000E+01 0. -1.
         -5    1    4    4    0  501  0.27392416826E+01  0.54070537613E+01  0.48150478368E+01  0.87975428981E+01  0.41800000000E+01 0. -1.
</event>
<event>
11    1  0.6625361E-009  0.1427643E+03  0.7561462E-02  0.1104510E+00
         22   -1    0    0    0    0  0.00000000000E+00  0.00000000000E+00  0.24759016506E+04  0.24759016506E+04  0.00000000000E+00 0. -1.
         22   -1    0    0    0    0 -0.00000000000E+00 -0.00000000000E+00 -0.13309020681E+03  0.13309020681E+03  0.00000000000E+00 0.  1.
         24    2    1    2    0    0 -0.61385954545E+02 -0.21913818270E+02 -0.45167679450E+02  0.11325325777E+03  0.80856232177E+02 0.  0.
         25    2    1    2    0    0  0.55949683710E+02  0.71638964991E+02  0.60026350521E+02  0.16587502097E+03  0.12509536927E+03 0.  0.
        -24    2    1    2    0    0  0.54362708344E+01 -0.49725146721E+02  0.23279527727E+04  0.23298635787E+04  0.79987748790E+02 0.  0.
        -13    1    3    3    0    0 -0.15906393382E+02 -0.48518295167E+02 -0.24809053845E+02  0.56767309862E+02  0.00000000000E+00 0.  1.
         14    1    3    3    0    0 -0.45479561162E+02  0.26604476896E+02 -0.20358625605E+02  0.56485947907E+02  0.00000000000E+00 0. -1.
         13    1    5    5    0    0  0.11545703043E+02 -0.40495118046E+02  0.22885031444E+04  0.22888905172E+04  0.00000000000E+00 0. -1.
        -14    1    5    5    0    0 -0.61094322088E+01 -0.92300286754E+01  0.39449628373E+02  0.40973061516E+02  0.00000000000E+00 0.  1.
          5    1    4    4  501    0  0.56939208200E+02  0.54284357113E+02 -0.22103023208E+02  0.81822251818E+02  0.41800000000E+01 0.  1.
         -5    1    4    4    0  501 -0.98952448963E+00  0.17354607878E+02  0.82129373729E+02  0.84052769154E+02  0.41800000000E+01 0.  1.
</event>
<event>
11    1  0.6625361E-009  0.4270660E+03  0.7561462E-02  0.9573109E-01
         22   -1    0    0    0    0  0.00000000000E+00  0.00000000000E+00  0.75092340034E+03  0.75092340034E+03  0.00000000000E+00 0. -1.
         22   -1    0    0    0    0 -0.00000000000E+00 -0.00000000000E+00 -0.66532060304E+03  0.66532060304E+03  0.00000000000E+00 0.  1.
         24    2    1    2    0    0 -0.42734031208E+02  0.75933057995E+02 -0.24803928025E+03  0.27462149333E+03  0.79381693944E+02 0.  0.
         25    2    1    2    0    0  0.33013364163E+03 -0.34448788691E+03 -0.14756730338E+03  0.51486225420E+03  0.12508759412E+03 0.  0.
        -24    2    1    2    0    0 -0.28739961043E+03  0.26855482892E+03  0.48120938093E+03  0.62676025585E+03  0.80905610474E+02 0.  0.
        -11    1    3    3    0    0 -0.49500327191E+02  0.89108650256E+02 -0.22755876884E+03  0.24934640005E+03  0.00000000000E+00 0.  1.
         12    1    3    3    0    0  0.67662959832E+01 -0.13175592261E+02 -0.20480511412E+02  0.25275093283E+02  0.00000000000E+00 0. -1.
         11    1    5    5    0    0 -0.15402917299E+03  0.19735208403E+03  0.30464970892E+03  0.39431494563E+03  0.00000000000E+00 0. -1.
        -12    1    5    5    0    0 -0.13337043744E+03  0.71202744893E+02  0.17655967201E+03  0.23244531022E+03  0.00000000000E+00 0.  1.
          5    1    4    4  501    0  0.18252965715E+02 -0.10102158935E+02  0.18670702597E+02  0.28307099957E+02  0.41800000000E+01 0.  1.
         -5    1    4    4    0  501  0.31188067592E+03 -0.33438572798E+03 -0.16623800598E+03  0.48655515424E+03  0.41800000000E+01 0.  1.
</event>
<event>
11    1  0.6625361E-009  0.1480711E+03  0.7561462E-02  0.1098866E+00
         22   -1    0    0    0    0  0.00000000000E+00  0.00000000000E+00  0.24607246363E+03  0.24607246363E+03  0.00000000000E+00 0. -1.
         22   -1    0    0    0    0 -0.00000000000E+00 -0.00000000000E+00 -0.71634452572E+03  0.71634452572E+03  0.00000000000E+00 0. -1.
        -24    2    1    2    0    0  0.46466478238E+02  0.73736015158E+01 -0.46896219754E+03  0.47819971204E+03  0.80845026293E+02 0.  0.
         25    2    1    2    0    0  0.30705324113E+02  0.20838487716E+02 -0.20857960969E+03  0.24602922137E+03  0.12509142532E+03 0.  0.
         24    2    1    2    0    0 -0.77171802350E+02 -0.28212089232E+02  0.20726974513E+03  0.23818805595E+03  0.83793756880E+02 0.  0.
        -13    1    5    5    0    0 -0.11366615776E+02 -0.36407236487E+02  0.28788081232E+02  0.47785358049E+02  0.00000000000E+00 0.  1.
         14    1    5    5    0    0 -0.65805186574E+02  0.81951472550E+01  0.17848166390E+03  0.19040269790E+03  0.00000000000E+00 0. -1.
         11    1    3    3    0    0  0.53740316229E+02  0.43208892040E+01 -0.46695876146E+03  0.47006082221E+03  0.00000000000E+00 0. -1.
        -12    1    3    3    0    0 -0.72738379912E+01  0.30527123118E+01 -0.20034360800E+01  0.81388898326E+01  0.00000000000E+00 0.  1.
          5    1    4    4  501    0 -0.23344428503E+02 -0.39005754697E+02 -0.10651947647E+03  0.11588909573E+03  0.41800000000E+01 0.  1.
         -5    1    4    4    0  501  0.54049752616E+02  0.59844242413E+02 -0.10206013323E+03  0.13014012564E+03  0.41800000000E+01 0.  1.
</event>
<event>
11    1  0.6625361E-009  0.1405036E+03  0.7561462E-02  0.1106997E+00
         22   -1    0    0    0    0  0.00000000000E+00  0.00000000000E+00  0.15929648272E+04  0.15929648272E+04  0.00000000000E+00 0. -1.
         22   -1    0    0    0    0 -0.00000000000E+00 -0.00000000000E+00 -0.63902110717E+03  0.63902110717E+03  0.00000000000E+00 0.  1.
         24    2    1    2    0    0  0.58379059722E+02 -0.26022761305E+02 -0.59329199219E+03  0.60178684623E+03  0.77889162096E+02 0.  0.
         25    2    1    2    0    0 -0.45948203994E+02  0.58965981389E+02  0.91930599650E+02  0.17229629402E+03  0.12508618377E+03 0.  0.
        -24    2    1    2    0    0 -0.12430855728E+02 -0.32943220084E+02  0.14553051125E+04  0.14579027941E+04  0.79547498538E+02 0.  0.
        -13    1    3    3    0    0  0.75765564894E+02 -0.87901685701E+01 -0.45137938566E+03  0.45777837180E+03  0.00000000000E+00 0.  1.
         14    1    3    3    0    0 -0.17386505172E+02 -0.17232592735E+02 -0.14191260654E+03  0.14400847443E+03  0.00000000000E+00 0. -1.
         11    1    5    5    0    0 -0.35949424253E+02 -0.40016033031E+02  0.12461936384E+04  0.12473540911E+04  0.00000000000E+00 0. -1.
        -12    1    5    5    0    0  0.23518568525E+02  0.70728129479E+01  0.20911147410E+03  0.21054870304E+03  0.00000000000E+00 0.  1.
          5    1    4    4  501    0 -0.39059327560E+02 -0.25318033305E+02 -0.78089450999E+00  0.46740946462E+02  0.41800000000E+01 0. -1.
         -5    1    4    4    0  501 -0.68888764340E+01  0.84284014694E+02  0.92711494160E+02  0.12555534756E+03  0.41800000000E+01 0. -1.
</event>
<event>
11    1  0.6625361E-009  0.1365506E+03  0.7561462E-02  0.1111473E+00
         22   -1    0    0    0    0  0.00000000000E+00  0.00000000000E+00  0.52914543331E+02  0.52914543331E+02  0.00000000000E+00 0.  1.
         22   -1    0    0    0    0 -0.00000000000E+00 -0.00000000000E+00 -0.13129518101E+04  0.13129518101E+04  0.00000000000E+00 0. -1.
         24    2    1    2    0    0  0.22103703362E+02 -0.71555059576E+01 -0.10025813821E+04  0.10063547649E+04  0.83908939039E+02 0.  0.
         25    2    1    2    0    0 -0.69070978231E+02  0.21009868524E+02 -0.20856180005E+03  0.25368100962E+03  0.12507523972E+03 0.  0.
        -24    2    1    2    0    0  0.46967274868E+02 -0.13854362567E+02 -0.48894084587E+02  0.10583057893E+03  0.80072539971E+02 0.  0.
        -11    1    3    3    0    0  0.47624587246E+02 -0.16052608861E+02 -0.39669466950E+03  0.39986553787E+03  0.00000000000E+00 0.  1.
         12    1    3    3    0    0 -0.25520883884E+02  0.88971029032E+01 -0.60588671261E+03  0.60648922700E+03  0.00000000000E+00 0. -1.
         13    1    5    5    0    0  0.13628413151E+02 -0.38068230597E+01 -0.65672021752E+02  0.67179163346E+02  0.00000000000E+00 0. -1.
        -14    1    5    5    0    0  0.33338861718E+02 -0.10047539507E+02  0.16777937165E+02  0.38651415580E+02  0.00000000000E+00 0.  1.
          5    1    4    4  501    0 -0.12506495750E+01  0.45041366566E+02 -0.16121835968E+03  0.16744886003E+03  0.41800000000E+01 0. -1.
         -5    1    4    4    0  501 -0.67820328656E+02 -0.24031498041E+02 -0.47343440374E+02  0.86232149594E+02  0.41800000000E+01 0. -1.
</event>
<event>
11    1  0.6625361E-009  0.1562964E+03  0.7561462E-02  0.1090613E+00
         22   -1    0    0    0    0  0.00000000000E+00  0.00000000000E+00  0.44827138596E+02  0.44827138596E+02  0.00000000000E+00 0. -1.
         22   -1    0    0    0    0 -0.00000000000E+00 -0.00000000000E+00 -0.22461311155E+04  0.22461311155E+04  0.00000000000E+00 0. -1.
         24    2    1    2    0    0  0.73036966029E+02 -0.65917328450E+02 -0.19270067728E+04  0.19310586213E+04  0.77154415477E+02 0.  0.
         25    2    1    2    0    0 -0.24314231337E+02  0.27112023905E+02 -0.14541226662E+03  0.19523851492E+03  0.12508839571E+03 0.  0.
        -24    2    1    2    0    0 -0.48722734692E+02  0.38805304545E+02 -0.12888493744E+03  0.16466111784E+03  0.81376901467E+02 0.  0.
        -13    1    3    3    0    0  0.50645238021E+01 -0.34406665933E+02 -0.25335517200E+03  0.25573093524E+03  0.00000000000E+00 0.  1.
         14    1    3    3    0    0  0.67972442227E+02 -0.31510662517E+02 -0.16736516008E+04  0.16753276861E+04  0.00000000000E+00 0. -1.
         11    1    5    5    0    0  0.15131009019E+02  0.20738550699E+00  0.68032613267E+00  0.15147715548E+02  0.00000000000E+00 0. -1.
        -12    1    5    5    0    0 -0.63853743711E+02  0.38597919038E+02 -0.12956526357E+03  0.14951340229E+03  0.00000000000E+00 0.  1.
          5    1    4    4  501    0  0.40022186348E+02  0.47026603191E+02 -0.58097281619E+02  0.84888416992E+02  0.41800000000E+01 0.  1.
         -5    1    4    4    0  501 -0.64336417685E+02 -0.19914579286E+02 -0.87314984997E+02  0.11035009793E+03  0.41800000000E+01 0.  1.
</event>
<event>
11    1  0.6625361E-009  0.1374531E+03  0.7561462E-02  0.1110436E+00
         22   -1    0    0    0    0  0.00000000000E+00  0.00000000000E+00  0.41624369508E+03  0.41624369508E+03  0.00000000000E+00 0.  1.
         22   -1    0    0    0    0 -0.00000000000E+00 -0.00000000000E+00 -0.91533091954E+02  0.91533091954E+02  0.00000000000E+00 0.  1.
        -24    2    1    2    0    0  0.15929282322E+02  0.53232536444E+02 -0.39479432709E+01  0.95914139126E+02  0.78080028539E+02 0.  0.
         25    2    1    2    0    0 -0.50451454770E+02 -0.46755508289E+02  0.12241040922E+03  0.18805178108E+03  0.12509091589E+03 0.  0.
         24    2    1    2    0    0  0.34522172449E+02 -0.64770281552E+01  0.20624813718E+03  0.22381086683E+03  0.79493884907E+02 0.  0.
        -13    1    5    5    0    0 -0.22580962861E+02  0.10495688558E+02  0.39016568810E+02  0.46285548541E+02  0.00000000000E+00 0.  1.
         14    1    5    5    0    0  0.57103135310E+02 -0.16972716713E+02  0.16723156837E+03  0.17752531829E+03  0.00000000000E+00 0. -1.
         11    1    3    3    0    0 -0.24551200847E+02  0.38254212862E+02  0.16233080597E+02  0.48266542972E+02  0.00000000000E+00 0. -1.
        -12    1    3    3    0    0  0.40480483169E+02  0.14978323581E+02 -0.20181023868E+02  0.47647596154E+02  0.00000000000E+00 0.  1.
          5    1    4    4  501    0 -0.82308737676E+02  0.13850793454E+01  0.88639788275E+02  0.12104185726E+03  0.41800000000E+01 0. -1.
         -5    1    4    4    0  501  0.31857282905E+02 -0.48140587634E+02  0.33770620943E+02  0.67009923823E+02  0.41800000000E+01 0. -1.
</event>
<event>
11    1  0.7094997E-009  0.1834339E+03  0.7561462E-02  0.1066899E+00
         22   -1    0    0    0    0  0.00000000000E+00  0.00000000000E+00  0.61902119700E+03  0.61902119700E+03  0.00000000000E+00 0.  1.
         22   -1    0    0    0    0 -0.00000000000E+00 -0.00000000000E+00 -0.34346253514E+03  0.34346253514E+03  0.00000000000E+00 0.  1.
        -24    2    1    2    0    0  0.46430258999E+02 -0.62168298597E+02 -0.20115716987E+03  0.23073297757E+03  0.82175626862E+02 0.  0.
         25    2    1    2    0    0 -0.16408829889E+03  0.11240959435E+03  0.34512519562E+01  0.23498918555E+03  0.12508844652E+03 0.  0.
         24    2    1    2    0    0  0.11765803989E+03 -0.50241295752E+02  0.47326457977E+03  0.49676156901E+03  0.80156670509E+02 0.  0.
        -13    1    5    5    0    0  0.14168669601E+02  0.50367106754E+01  0.18392570457E+03  0.18453938456E+03  0.00000000000E+00 0.  1.
         14    1    5    5    0    0  0.10348937029E+03 -0.55278006427E+02  0.28933887520E+03  0.31222218445E+03  0.00000000000E+00 0. -1.
         11    1    3    3    0    0 -0.19886845670E+02 -0.13387839895E+02 -0.18174866710E+02  0.30083993546E+02  0.00000000000E+00 0. -1.
        -12    1    3    3    0    0  0.66317104669E+02 -0.48780458702E+02 -0.18298230316E+03  0.20064898403E+03  0.00000000000E+00 0.  1.
          5    1    4    4  501    0 -0.16645320079E+03  0.83911954405E+02  0.37646818747E+02  0.19021734807E+03  0.41800000000E+01 0.  1.
         -5    1    4    4    0  501  0.23649018991E+01  0.28497639943E+02 -0.34195566791E+02  0.44771837482E+02  0.41800000000E+01 0.  1.
</event>
<event>
11    1  0.6625361E-009  0.1419271E+03  0.7561462E-02  0.1105425E+00
         22   -1    0    0    0    0  0.00000000000E+00  0.00000000000E+00  0.54110878937E+03  0.54110878937E+03  0.00000000000E+00 0. -1.
         22   -1    0    0    0    0 -0.00000000000E+00 -0.00000000000E+00 -0.17497036471E+04  0.17497036471E+04  0.00000000000E+00 0. -1.
        -24    2    1    2    0    0  0.50092520121E+02  0.47705487044E+02 -0.16136731594E+04  0.16170890796E+04  0.79062962113E+02 0.  0.
         25    2    1    2    0    0 -0.10575073732E+00 -0.37499304412E+02 -0.96965105117E+02  0.16265302015E+03  0.12509022479E+03 0.  0.
         24    2    1    2    0    0 -0.49986769383E+02 -0.10206182633E+02  0.50204340676E+03  0.51107033674E+03  0.80885496536E+02 0.  0.
        -13    1    5    5    0    0  0.13365865606E+02  0.11726762480E+02  0.35183567659E+02  0.39421399707E+02  0.00000000000E+00 0.  1.
         14    1    5    5    0    0 -0.63352634990E+02 -0.21932945112E+02  0.46685983910E+03  0.47164893703E+03  0.00000000000E+00 0. -1.
         11    1    3    3    0    0  0.26918663316E+02  0.68697971474E+02 -0.11355617390E+04  0.11379562772E+04  0.00000000000E+00 0. -1.
        -12    1    3    3    0    0  0.23173856804E+02 -0.20992484429E+02 -0.47811142042E+03  0.47913280244E+03  0.00000000000E+00 0.  1.
          5    1    4    4  501    0 -0.58217671878E+02 -0.37839525698E+02 -0.69178018735E+02  0.98102995368E+02  0.41800000000E+01 0.  1.
         -5    1    4    4    0  501  0.58111921141E+02  0.34022128587E+00 -0.27787086382E+02  0.64550024778E+02  0.41800000000E+01 0.  1.
</event>
<event>
11    1  0.6625361E-009  0.1460279E+03  0.7561462E-02  0.1101008E+00
         22   -1    0    0    0    0  0.00000000000E+00  0.00000000000E+00  0.45001391890E+03  0.45001391890E+03  0.00000000000E+00 0.  1.
         22   -1    0    0    0    0 -0.00000000000E+00 -0.00000000000E+00 -0.12059783202E+04  0.12059783202E+04  0.00000000000E+00 0. -1.
         24    2    1    2    0    0 -0.42820597904E+02 -0.60963251641E+02 -0.11067019457E+04  0.11120614106E+04  0.79632046372E+02 0.  0.
         25    2    1    2    0    0  0.23648361436E+02  0.10371678033E+03 -0.16392134171E+02  0.16502185693E+03  0.12508835150E+03 0.  0.
        -24    2    1    2    0    0  0.19172236469E+02 -0.42753528690E+02  0.36712967858E+03  0.37890897150E+03  0.81193404430E+02 0.  0.
        -13    1    3    3    0    0  0.20041777152E+02 -0.97243172884E+01 -0.41941668156E+03  0.42000784272E+03  0.00000000000E+00 0.  1.
         14    1    3    3    0    0 -0.62862375056E+02 -0.51238934353E+02 -0.68728526411E+03  0.69205356791E+03  0.00000000000E+00 0. -1.
         13    1    5    5    0    0  0.13785500310E+02 -0.77766744716E+01  0.74515942633E+01  0.17494083048E+02  0.00000000000E+00 0. -1.
        -14    1    5    5    0    0  0.53867361588E+01 -0.34976854219E+02  0.35967808432E+03  0.36141488846E+03  0.00000000000E+00 0.  1.
          5    1    4    4  501    0 -0.41907483904E+02  0.44961460422E+01  0.91137173337E+01  0.43324182393E+02  0.41800000000E+01 0. -1.
         -5    1    4    4    0  501  0.65555845340E+02  0.99220634289E+02 -0.25505851504E+02  0.12169767454E+03  0.41800000000E+01 0. -1.
</event>
<event>
11    1  0.6625361E-009  0.1261464E+03  0.7561462E-02  0.1124097E+00
         22   -1    0    0    0    0  0.00000000000E+00  0.00000000000E+00  0.28293675687E+03  0.28293675687E+03  0.00000000000E+00 0.  1.
         22   -1    0    0    0    0 -0.00000000000E+00 -0.00000000000E+00 -0.10145807584E+04  0.10145807584E+04  0.00000000000E+00 0.  1.
         24    2    1    2    0    0  0.41639795659E+00  0.75026243836E+01 -0.93072970109E+03  0.93418778652E+03  0.79953619360E+02 0.  0.
         25    2    1    2    0    0 -0.51535919454E+01 -0.22356916452E+02 -0.20510881835E+02  0.12882491347E+03  0.12509504720E+03 0.  0.
        -24    2    1    2    0    0  0.47371939888E+01  0.14854292068E+02  0.21959658142E+03  0.23450481524E+03  0.80788358048E+02 0.  0.
        -11    1    3    3    0    0 -0.10327054275E+02  0.12972859464E+02 -0.91040851068E+03  0.91055949803E+03  0.00000000000E+00 0.  1.
         12    1    3    3    0    0  0.10743452231E+02 -0.54702350801E+01 -0.20321190400E+02  0.23628288490E+02  0.00000000000E+00 0. -1.
         13    1    5    5    0    0 -0.28621275766E+02  0.32964369489E+02  0.10248902929E+03  0.11139940847E+03  0.00000000000E+00 0. -1.
        -14    1    5    5    0    0  0.33358469755E+02 -0.18110077421E+02  0.11710755214E+03  0.12310540677E+03  0.00000000000E+00 0.  1.
          5    1    4    4  501    0 -0.27830851718E+01 -0.14330807934E+02 -0.73481744852E+02  0.75034371095E+02  0.41800000000E+01 0.  1.
         -5    1    4    4    0  501 -0.23705067735E+01 -0.80261085173E+01  0.52970863017E+02  0.53790542376E+02  0.41800000000E+01 0.  1.
</event>
<event>
11    1  0.6625361E-009  0.1961741E+03  0.7561462E-02  0.1057263E+00
         22   -1    0    0    0    0  0.00000000000E+00  0.00000000000E+00  0.12066524408E+04  0.12066524408E+04  0.00000000000E+00 0. -1.
         22   -1    0    0    0    0 -0.00000000000E+00 -0.00000000000E+00 -0.61853577186E+03  0.61853577186E+03  0.00000000000E+00 0.  1.
         24    2    1    2    0    0 -0.14997754292E+03 -0.26316481007E+02 -0.56860202182E+03  0.59416017055E+03  0.80822202936E+02 0.  0.
         25    2    1    2    0    0  0.13741212899E+03 -0.72647860550E+02  0.26793446286E+03  0.33406029176E+03  0.12509035658E+03 0.  0.
        -24    2    1    2    0    0  0.12565413931E+02  0.98964341557E+02  0.88878422789E+03  0.89696775033E+03  0.68278187351E+02 0.  0.
        -13    1    3    3    0    0 -0.38864580083E+02 -0.33929597014E+02 -0.10022994842E+03  0.11272850437E+03  0.00000000000E+00 0.  1.
         14    1    3    3    0    0 -0.11111296283E+03  0.76131160070E+01 -0.46837207341E+03  0.48143166617E+03  0.00000000000E+00 0. -1.
         13    1    5    5    0    0 -0.20492799494E+02  0.76768533014E+02  0.65712989430E+03  0.66191620351E+03  0.00000000000E+00 0. -1.
        -14    1    5    5    0    0  0.33058213425E+02  0.22195808543E+02  0.23165433359E+03  0.23505154682E+03  0.00000000000E+00 0.  1.
          5    1    4    4  501    0  0.10541380388E+03 -0.24111610093E+02  0.72845259886E+02  0.13045054265E+03  0.41800000000E+01 0. -1.
         -5    1    4    4    0  501  0.31998325108E+02 -0.48536250457E+02  0.19508920297E+03  0.20360974911E+03  0.41800000000E+01 0. -1.
</event>
<event>
11    1  0.6625361E-009  0.1615489E+03  0.7561462E-02  0.1085629E+00
         22   -1    0    0    0    0  0.00000000000E+00  0.00000000000E+00  0.13876546688E+03  0.13876546688E+03  0.00000000000E+00 0.  1.
         22   -1    0    0    0    0 -0.00000000000E+00 -0.00000000000E+00 -0.52725430545E+03  0.52725430545E+03  0.00000000000E+00 0.  1.
         24    2    1    2    0    0  0.16615021507E+02 -0.11117727081E+01 -0.27263391504E+03  0.28450907166E+03  0.79616990958E+02 0.  0.
         25    2    1    2    0    0  0.87345298382E+02  0.14941871092E+02 -0.18006017663E+03  0.23647885485E+03  0.12509244951E+03 0.  0.
        -24    2    1    2    0    0 -0.10396031989E+03 -0.13830098384E+02  0.64205253106E+02  0.14503184582E+03  0.76895396752E+02 0.  0.
        -13    1    3    3    0    0  0.29715458642E+02  0.30309108943E+02 -0.19769488468E+03  0.20220019287E+03  0.00000000000E+00 0.  1.
         14    1    3    3    0    0 -0.13100437136E+02 -0.31420881651E+02 -0.74939030360E+02  0.82308878793E+02  0.00000000000E+00 0. -1.
         11    1    5    5    0    0 -0.30665732044E+02  0.31418155157E+02  0.22344973564E+02  0.49262414058E+02  0.00000000000E+00 0. -1.
        -12    1    5    5    0    0 -0.73294587845E+02 -0.45248253541E+02  0.41860279542E+02  0.95769431757E+02  0.00000000000E+00 0.  1.
          5    1    4    4  501    0  0.32122076810E+02  0.15462825583E+02  0.11009116256E+02  0.37544637890E+02  0.41800000000E+01 0.  1.
         -5    1    4    4    0  501  0.55223221572E+02 -0.52095449155E+00 -0.19106929289E+03  0.19893421696E+03  0.41800000000E+01 0.  1.
</event>
<event>
11    1  0.6625361E-009  0.1531563E+03  0.7561462E-02  0.1093697E+00
         22   -1    0    0    0    0  0.00000000000E+00  0.00000000000E+00  0.98016327876E+03  0.98016327876E+03  0.00000000000E+00 0.  1.
         22   -1    0    0    0    0 -0.00000000000E+00 -0.00000000000E+00 -0.11725688320E+04  0.11725688320E+04  0.00000000000E+00 0. -1.
        -24    2    1    2    0    0  0.19061912329E+02 -0.86259309047E+01 -0.10685771689E+04  0.10715929650E+04  0.77566446748E+02 0.  0.
         25    2    1    2    0    0 -0.15582846384E+02  0.96625538187E+02 -0.34596054986E+02  0.16255321668E+03  0.12508933408E+03 0.  0.
         24    2    1    2    0    0 -0.34790659446E+01 -0.87999607283E+02  0.91076767062E+03  0.91858592906E+03  0.80909359456E+02 0.  0.
        -13    1    5    5    0    0  0.16785409554E+02 -0.70666860726E+02  0.36441468799E+03  0.37158258840E+03  0.00000000000E+00 0.  1.
         14    1    5    5    0    0 -0.20264475499E+02 -0.17332746557E+02  0.54635298263E+03  0.54700334066E+03  0.00000000000E+00 0. -1.
         13    1    3    3    0    0  0.20429085492E+02  0.66367694560E+01 -0.10279114934E+04  0.10281359018E+04  0.00000000000E+00 0. -1.
        -14    1    3    3    0    0 -0.13671731630E+01 -0.15262700361E+02 -0.40665675459E+02  0.43457063238E+02  0.00000000000E+00 0.  1.
          5    1    4    4  501    0 -0.63883581263E+02  0.18921404850E+02 -0.20859196868E+02  0.69940760723E+02  0.41800000000E+01 0.  1.
         -5    1    4    4    0  501  0.48300734879E+02  0.77704133337E+02 -0.13736858118E+02  0.92612455957E+02  0.41800000000E+01 0.  1.
</event>
<event>
11    1  0.6625361E-009  0.1504790E+03  0.7561462E-02  0.1096390E+00
         22   -1    0    0    0    0  0.00000000000E+00  0.00000000000E+00  0.42039396994E+03  0.42039396994E+03  0.00000000000E+00 0.  1.
         22   -1    0    0    0    0 -0.00000000000E+00 -0.00000000000E+00 -0.29576507175E+03  0.29576507175E+03  0.00000000000E+00 0.  1.
        -24    2    1    2    0    0 -0.81874818815E+02 -0.31152936767E+02 -0.24275157830E+03  0.26993489611E+03  0.79136135513E+02 0.  0.
         25    2    1    2    0    0  0.18544341920E+02  0.49068150055E+02  0.13774441258E+03  0.19331913250E+03  0.12508871982E+03 0.  0.
         24    2    1    2    0    0  0.63330476896E+02 -0.17915213288E+02  0.22963606390E+03  0.25290501308E+03  0.83045286616E+02 0.  0.
        -11    1    5    5    0    0  0.20178301261E+02 -0.47609745629E+02  0.90438315422E+02  0.10417744774E+03  0.00000000000E+00 0.  1.
         12    1    5    5    0    0  0.43152175634E+02  0.29694532341E+02  0.13919774848E+03  0.14872756535E+03  0.00000000000E+00 0. -1.
         13    1    3    3    0    0 -0.17833174921E+02  0.25609590638E+02 -0.48553769886E+02  0.57717777423E+02  0.00000000000E+00 0. -1.
        -14    1    3    3    0    0 -0.64041643894E+02 -0.56762527405E+02 -0.19419780841E+03  0.21221711868E+03  0.00000000000E+00 0.  1.
          5    1    4    4  501    0  0.46936987411E+02  0.74771561150E+02  0.12429182707E+03  0.15251163176E+03  0.41800000000E+01 0. -1.
         -5    1    4    4    0  501 -0.28392645491E+02 -0.25703411096E+02  0.13452585510E+02  0.40807500743E+02  0.41800000000E+01 0. -1.
</event>
<event>
11    1  0.6625361E-009  0.1334692E+03  0.7561462E-02  0.1115078E+00
         22   -1    0    0    0    0  0.00000000000E+00  0.00000000000E+00  0.17750079425E+04  0.17750079425E+04  0.00000000000E+00 0. -1.
         22   -1    0    0    0    0 -0.00000000000E+00 -0.00000000000E+00 -0.20283462689E+03  0.20283462689E+03  0.00000000000E+00 0. -1.
        -24    2    1    2    0    0  0.60542407444E+01  0.27915958950E+02 -0.18570676691E+03  0.20499816904E+03  0.81983482701E+02 0.  0.
         25    2    1    2    0    0  0.17119998473E+02 -0.58209973768E+02  0.10863160003E+04  0.10951767207E+04  0.12509237283E+03 0.  0.
         24    2    1    2    0    0 -0.23174239217E+02  0.30294014818E+02  0.67156408227E+03  0.67766767966E+03  0.82343152509E+02 0.  0.
        -11    1    5    5    0    0 -0.67778579375E+01 -0.74315282356E+01  0.80584895005E+01  0.12888220326E+02  0.00000000000E+00 0.  1.
         12    1    5    5    0    0 -0.16396381280E+02  0.37725543053E+02  0.66350559277E+03  0.66477945934E+03  0.00000000000E+00 0. -1.
         11    1    3    3    0    0  0.12742627385E+02  0.33540444908E+02 -0.19129140362E+03  0.19462717461E+03  0.00000000000E+00 0. -1.
        -12    1    3    3    0    0 -0.66883866404E+01 -0.56244859580E+01  0.55846367108E+01  0.10370994424E+02  0.00000000000E+00 0.  1.
          5    1    4    4  501    0  0.43791750691E+02 -0.34289854345E+02  0.10009550684E+04  0.10025078717E+04  0.41800000000E+01 0.  1.
         -5    1    4    4    0  501 -0.26671752219E+02 -0.23920119423E+02  0.85360931880E+02  0.92668848979E+02  0.41800000000E+01 0.  1.
</event>
<event>
11    1  0.6625361E-009  0.1404739E+03  0.7561462E-02  0.1107030E+00
         22   -1    0    0    0    0  0.00000000000E+00  0.00000000000E+00  0.30930576868E+04  0.30930576868E+04  0.00000000000E+00 0.  1.
         22   -1    0    0    0    0 -0.00000000000E+00 -0.00000000000E+00 -0.10940540604E+03  0.10940540604E+03  0.00000000000E+00 0. -1.
        -24    2    1    2    0    0 -0.60883239826E+02 -0.21507288011E+02 -0.79291233737E+02  0.12982651145E+03  0.79990568180E+02 0.  0.
         25    2    1    2    0    0  0.27932531149E+02  0.27346520637E+02  0.10956706095E+04  0.11034806917E+04  0.12508994359E+03 0.  0.
         24    2    1    2    0    0  0.32950708676E+02 -0.58392326257E+01  0.19672729050E+04  0.19691558897E+04  0.79324581720E+02 0.  0.
        -11    1    5    5    0    0  0.47254646394E+02 -0.14454737793E+02  0.18540357596E+04  0.18546941901E+04  0.00000000000E+00 0.  1.
         12    1    5    5    0    0 -0.14303937718E+02  0.86155051673E+01  0.11323714541E+03  0.11446169955E+03  0.00000000000E+00 0. -1.
         11    1    3    3    0    0 -0.75216226139E+02 -0.55740726016E+01 -0.77777878317E+02  0.10834181702E+03  0.00000000000E+00 0. -1.
        -12    1    3    3    0    0  0.14332986313E+02 -0.15933215410E+02 -0.15133554194E+01  0.21484694426E+02  0.00000000000E+00 0.  1.
          5    1    4    4  501    0  0.62953149025E+02  0.51576629351E+02  0.86853460898E+03  0.87234917726E+03  0.41800000000E+01 0.  1.
         -5    1    4    4    0  501 -0.35020617875E+02 -0.24230108714E+02  0.22713600055E+03  0.23113151449E+03  0.41800000000E+01 0.  1.
</event>
<event>
11    1  0.6625361E-009  0.1322585E+03  0.7561462E-02  0.1116525E+00
         22   -1    0    0    0    0  0.00000000000E+00  0.00000000000E+00  0.31541007150E+03  0.31541007150E+03  0.00000000000E+00 0.  1.
         22   -1    0    0    0    0 -0.00000000000E+00 -0.00000000000E+00 -0.63177671405E+03  0.63177671405E+03  0.00000000000E+00 0. -1.
         24    2    1    2    0    0  0.27397323907E+02 -0.30363499934E+02 -0.53363507501E+03  0.54284459857E+03  0.90781657971E+02 0.  0.
         25    2    1    2    0    0 -0.60155690206E+02  0.39882829102E+02 -0.24788031107E+02  0.14652955247E+03  0.12508843328E+03 0.  0.
        -24    2    1    2    0    0  0.32758366299E+02 -0.95193291677E+01  0.24205646356E+03  0.25781263451E+03  0.81928595568E+02 0.  0.
        -13    1    3    3    0    0 -0.79461886922E+01 -0.16097702044E+02 -0.16739221999E+02  0.24545457399E+02  0.00000000000E+00 0.  1.
         14    1    3    3    0    0  0.35343512599E+02 -0.14265797891E+02 -0.51689585301E+03  0.51829914117E+03  0.00000000000E+00 0. -1.
         11    1    5    5    0    0 -0.19459414211E+02 -0.22226933055E+02  0.13290046124E+03  0.13614418075E+03  0.00000000000E+00 0. -1.
        -12    1    5    5    0    0  0.52217780510E+02  0.12707603888E+02  0.10915600233E+03  0.12166845377E+03  0.00000000000E+00 0.  1.
          5    1    4    4  501    0  0.75038511872E+01 -0.16157943054E+02 -0.51463145859E+02  0.54619728011E+02  0.41800000000E+01 0.  1.
         -5    1    4    4    0  501 -0.67659541393E+02  0.56040772156E+02  0.26675114752E+02  0.91909824461E+02  0.41800000000E+01 0.  1.
</event>
<event>
11    1  0.6625361E-009  0.1420891E+03  0.7561462E-02  0.1105248E+00
         22   -1    0    0    0    0  0.00000000000E+00  0.00000000000E+00  0.21975839082E+04  0.21975839082E+04  0.00000000000E+00 0.  1.
         22   -1    0    0    0    0 -0.00000000000E+00 -0.00000000000E+00 -0.12642744627E+03  0.12642744627E+03  0.00000000000E+00 0. -1.
         24    2    1    2    0    0 -0.69228761466E+02  0.18432762588E+02 -0.31243363343E+02  0.11178403001E+03  0.79919543672E+02 0.  0.
         25    2    1    2    0    0  0.42088037995E+02 -0.51966929060E+02  0.39478981598E+02  0.14723570631E+03  0.12509116102E+03 0.  0.
        -24    2    1    2    0    0  0.27140723470E+02  0.33534166472E+02  0.20629208437E+04  0.20649916182E+04  0.81772957428E+02 0.  0.
        -13    1    3    3    0    0 -0.45833812000E+02  0.24431918253E+02  0.19585446575E+02  0.55508978279E+02  0.00000000000E+00 0.  1.
         14    1    3    3    0    0 -0.23394949465E+02 -0.59991556653E+01 -0.50828809919E+02  0.56275051727E+02  0.00000000000E+00 0. -1.
         11    1    5    5    0    0  0.26082026705E+02  0.46158447616E+01  0.18896305284E+03  0.19081041239E+03  0.00000000000E+00 0. -1.
        -12    1    5    5    0    0  0.10586967652E+01  0.28918321710E+02  0.18739577909E+04  0.18741812058E+04  0.00000000000E+00 0.  1.
          5    1    4    4  501    0  0.58587832349E+02  0.15675125583E+02  0.47330126648E+02  0.77044512783E+02  0.41800000000E+01 0. -1.
         -5    1    4    4    0  501 -0.16499794354E+02 -0.67642054643E+02 -0.78511450500E+01  0.70191193526E+02  0.41800000000E+01 0. -1.
</event>
<event>
11    1  0.6625361E-009  0.1723192E+03  0.7561462E-02  0.1076031E+00
         22   -1    0    0    0    0  0.00000000000E+00  0.00000000000E+00  0.15895950500E+04  0.15895950500E+04  0.00000000000E+00 0. -1.
         22   -1    0    0    0    0 -0.00000000000E+00 -0.00000000000E+00 -0.11994288859E+03  0.11994288859E+03  0.00000000000E+00 0. -1.
         24    2    1    2    0    0 -0.37420074129E+01 -0.17135944020E+01 -0.86920079759E+02  0.11636193065E+03  0.77253217496E+02 0.  0.
         25    2    1    2    0    0  0.75590931681E+02  0.94708749448E+02  0.55909925979E+03  0.58559497080E+03  0.12508297786E+03 0.  0.
        -24    2    1    2    0    0 -0.71848924268E+02 -0.92995155046E+02  0.99747298140E+03  0.10075810372E+04  0.80354409179E+02 0.  0.
        -11    1    3    3    0    0  0.17285844736E+02  0.31994264667E+02 -0.31118483176E+02  0.47862233493E+02  0.00000000000E+00 0.  1.
         12    1    3    3    0    0 -0.21027852149E+02 -0.33707859069E+02 -0.55801596583E+02  0.68499697154E+02  0.00000000000E+00 0. -1.
         13    1    5    5    0    0 -0.18682077080E+02 -0.54864966451E+02  0.72702730283E+03  0.72933386293E+03  0.00000000000E+00 0. -1.
        -14    1    5    5    0    0 -0.53166847188E+02 -0.38130188595E+02  0.27044567856E+03  0.27824717425E+03  0.00000000000E+00 0.  1.
          5    1    4    4  501    0  0.10924377347E+03  0.85820858803E+02  0.43785865472E+03  0.45938774010E+03  0.41800000000E+01 0. -1.
         -5    1    4    4    0  501 -0.33652841788E+02  0.88878906445E+01  0.12124060508E+03  0.12620723070E+03  0.41800000000E+01 0. -1.
</event>
<event>
11    1  0.6991445E-009  0.1989665E+03  0.7561462E-02  0.1055257E+00
         22   -1    0    0    0    0  0.00000000000E+00  0.00000000000E+00  0.44736138412E+03  0.44736138412E+03  0.00000000000E+00 0.  1.
         22   -1    0    0    0    0 -0.00000000000E+00 -0.00000000000E+00 -0.13316661766E+04  0.13316661766E+04  0.00000000000E+00 0. -1.
         24    2    1    2    0    0 -0.11217299624E+02  0.20244040749E+02 -0.70914795498E+03  0.71431918752E+03  0.82616164296E+02 0.  0.
         25    2    1    2    0    0  0.12333183385E+03 -0.12596476104E+03 -0.58286659388E+03  0.62165771336E+03  0.12508790526E+03 0.  0.
        -24    2    1    2    0    0 -0.11211453423E+03  0.10572072029E+03  0.40770975636E+03  0.44305065988E+03  0.79499071087E+02 0.  0.
        -13    1    3    3    0    0 -0.20167495254E+02  0.48983864141E+02 -0.36006949924E+03  0.36394531333E+03  0.00000000000E+00 0.  1.
         14    1    3    3    0    0  0.89501956299E+01 -0.28739823392E+02 -0.34907845574E+03  0.35037387418E+03  0.00000000000E+00 0. -1.
         11    1    5    5    0    0 -0.23622766696E+02 -0.49163057346E+01  0.24045184282E+02  0.34064292971E+02  0.00000000000E+00 0. -1.
        -12    1    5    5    0    0 -0.88491767533E+02  0.11063702603E+03  0.38366457208E+03  0.40898636691E+03  0.00000000000E+00 0.  1.
          5    1    4    4  501    0  0.70246128607E+02 -0.12757398544E+03 -0.51593769651E+03  0.53611455812E+03  0.41800000000E+01 0.  1.
         -5    1    4    4    0  501  0.53085705245E+02  0.16092243973E+01 -0.66928897374E+02  0.85543155239E+02  0.41800000000E+01 0.  1.
</event>
<event>
11    1  0.6625361E-009  0.1735966E+03  0.7561462E-02  0.1074944E+00
         22   -1    0    0    0    0  0.00000000000E+00  0.00000000000E+00  0.31186248061E+03  0.31186248061E+03  0.00000000000E+00 0. -1.
         22   -1    0    0    0    0 -0.00000000000E+00 -0.00000000000E+00 -0.89941846715E+03  0.89941846715E+03  0.00000000000E+00 0. -1.
        -24    2    1    2    0    0  0.60220524428E+02  0.30308444739E+02 -0.63881518098E+03  0.64757326838E+03  0.81982858542E+02 0.  0.
         25    2    1    2    0    0 -0.14017180502E+03 -0.11368414867E+03 -0.18578068230E+03  0.28763508842E+03  0.12508901469E+03 0.  0.
         24    2    1    2    0    0  0.79951280589E+02  0.83375703933E+02  0.23703987674E+03  0.27607259095E+03  0.81758528826E+02 0.  0.
        -13    1    5    5    0    0  0.59582478195E+02  0.54335291092E+01  0.84065710916E+02  0.10318255036E+03  0.00000000000E+00 0.  1.
         14    1    5    5    0    0  0.20368802394E+02  0.77942174823E+02  0.15297416582E+03  0.17289004060E+03  0.00000000000E+00 0. -1.
         11    1    3    3    0    0  0.68019384686E+02  0.10106931731E+01 -0.53841175583E+03  0.54269224889E+03  0.00000000000E+00 0. -1.
        -12    1    3    3    0    0 -0.77988602582E+01  0.29297751566E+02 -0.10040342515E+03  0.10488101949E+03  0.00000000000E+00 0.  1.
          5    1    4    4  501    0 -0.15473303247E+03 -0.10252002737E+03 -0.12452649467E+03  0.22355533460E+03  0.41800000000E+01 0.  1.
         -5    1    4    4    0  501  0.14561227452E+02 -0.11164121296E+02 -0.61254187622E+02  0.64079753827E+02  0.41800000000E+01 0.  1.
</event>
<event>
11    1  0.6625361E-009  0.1510860E+03  0.7561462E-02  0.1095774E+00
         22   -1    0    0    0    0  0.00000000000E+00  0.00000000000E+00  0.15142289765E+04  0.15142289765E+04  0.00000000000E+00 0.  1.
         22   -1    0    0    0    0 -0.00000000000E+00 -0.00000000000E+00 -0.67209160918E+02  0.67209160918E+02  0.00000000000E+00 0.  1.
         24    2    1    2    0    0  0.56510065186E+02 -0.58369311452E+02  0.15768024338E+02  0.11554057305E+03  0.80626481024E+02 0.  0.
         25    2    1    2    0    0  0.30259517275E+02  0.79942633144E+01  0.28649781583E+03  0.31417829104E+03  0.12508978159E+03 0.  0.
        -24    2    1    2    0    0 -0.86769582461E+02  0.50375048137E+02  0.11447539754E+04  0.11517192733E+04  0.77000093517E+02 0.  0.
        -11    1    3    3    0    0  0.56781381647E+02 -0.38166315048E+02 -0.22704432031E+02  0.72085256051E+02  0.00000000000E+00 0.  1.
         12    1    3    3    0    0 -0.27131646131E+00 -0.20202996404E+02  0.38472456369E+02  0.43455316998E+02  0.00000000000E+00 0. -1.
         11    1    5    5    0    0 -0.96266176723E+02  0.33225949040E+02  0.80755848200E+03  0.81395444733E+03  0.00000000000E+00 0. -1.
        -12    1    5    5    0    0  0.94965942625E+01  0.17149099097E+02  0.33719549339E+03  0.33776482597E+03  0.00000000000E+00 0.  1.
          5    1    4    4  501    0  0.75358140766E+02 -0.70242279526E+01  0.21715152227E+03  0.23000096779E+03  0.41800000000E+01 0.  1.
         -5    1    4    4    0  501 -0.45098623491E+02  0.15018491267E+02  0.69346293556E+02  0.84177323257E+02  0.41800000000E+01 0.  1.
</event>
<event>
11    1  0.6625361E-009  0.2232656E+03  0.7561462E-02  0.1039191E+00
         22   -1    0    0    0    0  0.00000000000E+00  0.00000000000E+00  0.31124991935E+04  0.31124991935E+04  0.00000000000E+00 0.  1.
         22   -1    0    0    0    0 -0.00000000000E+00 -0.00000000000E+00 -0.72773240755E+03  0.72773240755E+03  0.00000000000E+00 0. -1.
         24    2    1    2    0    0 -0.27734088112E+02 -0.13234214791E+02 -0.68749921172E+03  0.69255401026E+03  0.77663163240E+02 0.  0.
         25    2    1    2    0    0  0.75210302848E+02 -0.16605046620E+03  0.32513330413E+03  0.39317791869E+03  0.12509141982E+03 0.  0.
        -24    2    1    2    0    0 -0.47476214736E+02  0.17928468099E+03  0.27471326935E+04  0.27544996721E+04  0.78316153278E+02 0.  0.
        -11    1    3    3    0    0 -0.40098539533E+02  0.21754478201E+02 -0.33108643923E+03  0.33421457244E+03  0.00000000000E+00 0.  1.
         12    1    3    3    0    0  0.12364451421E+02 -0.34988692992E+02 -0.35641277250E+03  0.35833943782E+03  0.00000000000E+00 0. -1.
         13    1    5    5    0    0 -0.24132364396E+02  0.13675906835E+02  0.20451865319E+03  0.20639108736E+03  0.00000000000E+00 0. -1.
        -14    1    5    5    0    0 -0.23343850341E+02  0.16560877416E+03  0.25426140403E+04  0.25481085847E+04  0.00000000000E+00 0.  1.
          5    1    4    4  501    0  0.42837947934E+02 -0.18956235225E+02  0.16697160605E+02  0.49906875372E+02  0.41800000000E+01 0. -1.
         -5    1    4    4    0  501  0.32372354914E+02 -0.14709423098E+03  0.30843614353E+03  0.34327104332E+03  0.41800000000E+01 0. -1.
</event>
<event>
11    1  0.6625361E-009  0.1427708E+03  0.7561462E-02  0.1104503E+00
         22   -1    0    0    0    0  0.00000000000E+00  0.00000000000E+00  0.45464666987E+03  0.45464666987E+03  0.00000000000E+00 0.  1.
         22   -1    0    0    0    0 -0.00000000000E+00 -0.00000000000E+00 -0.69174215390E+03  0.69174215390E+03  0.00000000000E+00 0. -1.
        -24    2    1    2    0    0 -0.16259188459E+02  0.39768185443E+02 -0.65356719716E+03  0.65957345992E+03  0.77725144252E+02 0.  0.
         25    2    1    2    0    0  0.18171431240E+02  0.45546987744E+02  0.20477068237E+03  0.24491469176E+03  0.12508974728E+03 0.  0.
         24    2    1    2    0    0 -0.19122427807E+01 -0.85315173187E+02  0.21170103076E+03  0.24190067210E+03  0.80101643500E+02 0.  0.
        -11    1    5    5    0    0 -0.25431836101E+02 -0.88197657905E+02  0.15063834822E+03  0.17640157908E+03  0.00000000000E+00 0.  1.
         12    1    5    5    0    0  0.23519593321E+02  0.28824847176E+01  0.61062682539E+02  0.65499093024E+02  0.00000000000E+00 0. -1.
         13    1    3    3    0    0  0.15967518395E+02 -0.65014610815E+01 -0.37289392502E+03  0.37329225810E+03  0.00000000000E+00 0. -1.
        -14    1    3    3    0    0 -0.32226706855E+02  0.46269646524E+02 -0.28067327214E+03  0.28628120182E+03  0.00000000000E+00 0.  1.
          5    1    4    4  501    0 -0.34725677125E+01  0.34515332107E+01 -0.16964582501E+02  0.18145006681E+02  0.41800000000E+01 0. -1.
         -5    1    4    4    0  501  0.21643998953E+02  0.42095454534E+02  0.22173526487E+03  0.22676968508E+03  0.41800000000E+01 0. -1.
</event>
<event>
11    1  0.8880045E-009  0.1899066E+03  0.7561462E-02  0.1061900E+00
         22   -1    0    0    0    0  0.00000000000E+00  0.00000000000E+00  0.38625603649E+03  0.38625603649E+03  0.00000000000E+00 0.  1.
         22   -1    0    0    0    0 -0.00000000000E+00 -0.00000000000E+00 -0.58963238439E+03  0.58963238439E+03  0.00000000000E+00 0. -1.
        -24    2    1    2    0    0  0.37136170395E+02 -0.60150120148E+01 -0.33385774637E+03  0.34458837859E+03  0.76582506671E+02 0.  0.
         25    2    1    2    0    0 -0.14901645125E+03 -0.79503859393E+02 -0.18269044866E+03  0.27848008585E+03  0.12509433153E+03 0.  0.
         24    2    1    2    0    0  0.11188028085E+03  0.85518871408E+02  0.31317184713E+03  0.35281995644E+03  0.81084161304E+02 0.  0.
        -13    1    5    5    0    0  0.11212165685E+03  0.43441577949E+02  0.23902045218E+03  0.26756160634E+03  0.00000000000E+00 0.  1.
         14    1    5    5    0    0 -0.24137599935E+00  0.42077293458E+02  0.74151394951E+02  0.85258350092E+02  0.00000000000E+00 0. -1.
         13    1    3    3    0    0  0.40847388436E+02 -0.35914980063E+02 -0.23656083350E+03  0.24273323399E+03  0.00000000000E+00 0. -1.
        -14    1    3    3    0    0 -0.37112180409E+01  0.29899968049E+02 -0.97296912870E+02  0.10185514461E+03  0.00000000000E+00 0.  1.
          5    1    4    4  501    0 -0.13139226351E+03 -0.43268943040E+02 -0.19222529757E+03  0.23686317942E+03  0.41800000000E+01 0. -1.
         -5    1    4    4    0  501 -0.17624187736E+02 -0.36234916353E+02  0.95348489067E+01  0.41616906422E+02  0.41800000000E+01 0. -1.
</event>
<event>
11    1  0.6625361E-009  0.2832273E+03  0.7561462E-02  0.1007551E+00
         22   -1    0    0    0    0  0.00000000000E+00  0.00000000000E+00  0.20253021637E+03  0.20253021637E+03  0.00000000000E+00 0. -1.
         22   -1    0    0    0    0 -0.00000000000E+00 -0.00000000000E+00 -0.22071990887E+04  0.22071990887E+04  0.00000000000E+00 0.  1.
         24    2    1    2    0    0  0.96181624029E+02 -0.79431994130E+02 -0.16561877965E+04  0.16627899222E+04  0.79699194353E+02 0.  0.
         25    2    1    2    0    0 -0.30581060912E+03 -0.43938570356E+02 -0.36006603585E+03  0.49065787467E+03  0.12508746213E+03 0.  0.
        -24    2    1    2    0    0  0.20962898509E+03  0.12337056449E+03  0.11584960086E+02  0.25628150815E+03  0.79883618771E+02 0.  0.
        -11    1    3    3    0    0  0.66749092401E+02 -0.12853839815E+02 -0.10594803727E+04  0.10616587600E+04  0.00000000000E+00 0.  1.
         12    1    3    3    0    0  0.29432531629E+02 -0.66578154315E+02 -0.59670742382E+03  0.60113116222E+03  0.00000000000E+00 0. -1.
         11    1    5    5    0    0  0.16187771777E+03  0.58849295153E+02  0.27571237171E+02  0.17443568491E+03  0.00000000000E+00 0. -1.
        -12    1    5    5    0    0  0.47751267321E+02  0.64521269332E+02 -0.15986277085E+02  0.81845823241E+02  0.00000000000E+00 0.  1.
          5    1    4    4  501    0 -0.60718513594E+02  0.23978285081E+01 -0.15893827392E+03  0.17020967890E+03  0.41800000000E+01 0.  1.
         -5    1    4    4    0  501 -0.24509209553E+03 -0.46336398864E+02 -0.20112776193E+03  0.32044819577E+03  0.41800000000E+01 0.  1.
</event>
<event>
11    1  0.6625361E-009  0.2086376E+03  0.7561462E-02  0.1048578E+00
         22   -1    0    0    0    0  0.00000000000E+00  0.00000000000E+00  0.29383783834E+03  0.29383783834E+03  0.00000000000E+00 0. -1.
         22   -1    0    0    0    0 -0.00000000000E+00 -0.00000000000E+00 -0.12157685201E+04  0.12157685201E+04  0.00000000000E+00 0.  1.
        -24    2    1    2    0    0  0.62084187962E+02 -0.49188328672E+02 -0.10712583211E+04  0.10772466950E+04  0.81191831135E+02 0.  0.
         25    2    1    2    0    0  0.15713358148E+02  0.18771411170E+03  0.67773387301E+02  0.23606102550E+03  0.12509227944E+03 0.  0.
         24    2    1    2    0    0 -0.77797546110E+02 -0.13852578303E+03  0.81554251986E+02  0.19629863793E+03  0.81487474441E+02 0.  0.
        -11    1    5    5    0    0 -0.44107675226E+02 -0.93903827290E+01  0.20957350175E+02  0.49728028595E+02  0.00000000000E+00 0.  1.
         12    1    5    5    0    0 -0.33689870884E+02 -0.12913540030E+03  0.60596901811E+02  0.14657060933E+03  0.00000000000E+00 0. -1.
         13    1    3    3    0    0  0.38997213890E+02 -0.27156004936E+02 -0.20640386976E+03  0.21180365612E+03  0.00000000000E+00 0. -1.
        -14    1    3    3    0    0  0.23086974072E+02 -0.22032323736E+02 -0.86485445131E+03  0.86544303892E+03  0.00000000000E+00 0.  1.
          5    1    4    4  501    0 -0.13321700678E+02  0.22779115413E+02  0.63043176967E+02  0.68470945444E+02  0.41800000000E+01 0. -1.
         -5    1    4    4    0  501  0.29035058826E+02  0.16493499629E+03  0.47302103344E+01  0.16759008005E+03  0.41800000000E+01 0. -1.
</event>
<event>
11    1  0.6625361E-009  0.1863863E+03  0.7561462E-02  0.1064591E+00
         22   -1    0    0    0    0  0.00000000000E+00  0.00000000000E+00  0.40014755063E+03  0.40014755063E+03  0.00000000000E+00 0.  1.
         22   -1    0    0    0    0 -0.00000000000E+00 -0.00000000000E+00 -0.93528375324E+03  0.93528375324E+03  0.00000000000E+00 0.  1.
         24    2    1    2    0    0  0.43319429825E+02 -0.50473083392E+02 -0.78369980966E+03  0.79071612044E+03  0.81378660114E+02 0.  0.
         25    2    1    2    0    0 -0.11407846625E+03 -0.71268382211E+02 -0.62897940770E+02  0.19415770621E+03  0.12509190686E+03 0.  0.
        -24    2    1    2    0    0  0.70759036429E+02  0.12174146560E+03  0.31146154782E+03  0.35055747721E+03  0.77810175260E+02 0.  0.
        -11    1    3    3    0    0 -0.44627063133E+01 -0.53095204862E+02 -0.51876698400E+03  0.52149611716E+03  0.00000000000E+00 0.  1.
         12    1    3    3    0    0  0.47782136139E+02  0.26221214697E+01 -0.26493282566E+03  0.26922000328E+03  0.00000000000E+00 0. -1.
         13    1    5    5    0    0  0.40272534029E+02  0.25640570307E+02  0.44789332590E+02  0.65462967826E+02  0.00000000000E+00 0. -1.
        -14    1    5    5    0    0  0.30486502401E+02  0.96100895297E+02  0.26667221523E+03  0.28509450938E+03  0.00000000000E+00 0.  1.
          5    1    4    4  501    0  0.23713635381E+02 -0.75470546392E+01 -0.29201991422E+02  0.38594342069E+02  0.41800000000E+01 0.  1.
         -5    1    4    4    0  501 -0.13779210164E+03 -0.63721327572E+02 -0.33695949348E+02  0.15556336414E+03  0.41800000000E+01 0.  1.
</event>
<event>
11    1  0.6625361E-009  0.1674946E+03  0.7561462E-02  0.1080233E+00
         22   -1    0    0    0    0  0.00000000000E+00  0.00000000000E+00  0.72018557859E+03  0.72018557859E+03  0.00000000000E+00 0.  1.
         22   -1    0    0    0    0 -0.00000000000E+00 -0.00000000000E+00 -0.11692490773E+04  0.11692490773E+04  0.00000000000E+00 0.  1.
         24    2    1    2    0    0 -0.38320666963E+02  0.32473454623E+01 -0.10714078387E+04  0.10748729256E+04  0.77188279982E+02 0.  0.
         25    2    1    2    0    0  0.13556349092E+03  0.45613821564E+02  0.13149860570E+02  0.19047328509E+03  0.12509625379E+03 0.  0.
        -24    2    1    2    0    0 -0.97242823952E+02 -0.48861167026E+02  0.60919447945E+03  0.62408844518E+03  0.80776810783E+02 0.  0.
        -13    1    3    3    0    0 -0.44270410254E+02 -0.24802112041E+02 -0.86446148798E+03  0.86594958178E+03  0.00000000000E+00 0.  1.
         14    1    3    3    0    0  0.59497432914E+01  0.28049457503E+02 -0.20694635070E+03  0.20892334379E+03  0.00000000000E+00 0. -1.
         11    1    5    5    0    0  0.10396615505E+02 -0.22330162227E+02  0.10518380543E+03  0.10802943434E+03  0.00000000000E+00 0. -1.
        -12    1    5    5    0    0 -0.10763943946E+03 -0.26531004799E+02  0.50401067402E+03  0.51605901084E+03  0.00000000000E+00 0.  1.
          5    1    4    4  501    0  0.14650930419E+03  0.34509767995E+02  0.42949420126E+02  0.15658232783E+03  0.41800000000E+01 0.  1.
         -5    1    4    4    0  501 -0.10945813273E+02  0.11104053569E+02 -0.29799559556E+02  0.33890957254E+02  0.41800000000E+01 0.  1.
</event>
<event>
11    1  0.6625361E-009  0.1755949E+03  0.7561462E-02  0.1073263E+00
         22   -1    0    0    0    0  0.00000000000E+00  0.00000000000E+00  0.49236927033E+03  0.49236927033E+03  0.00000000000E+00 0.  1.
         22   -1    0    0    0    0 -0.00000000000E+00 -0.00000000000E+00 -0.96360555046E+03  0.96360555046E+03  0.00000000000E+00 0. -1.
         24    2    1    2    0    0 -0.17997473152E+02 -0.54107045168E+02 -0.75829089247E+03  0.76488062253E+03  0.82376014346E+02 0.  0.
         25    2    1    2    0    0  0.11414795790E+03  0.12659966920E+03 -0.13113307672E+03  0.24879793036E+03  0.12508914345E+03 0.  0.
        -24    2    1    2    0    0 -0.96150484744E+02 -0.72492624030E+02  0.41818768907E+03  0.44229626790E+03  0.79024990058E+02 0.  0.
        -13    1    3    3    0    0 -0.28699244933E+02  0.10002185808E+02 -0.36419501613E+03  0.36546094203E+03  0.00000000000E+00 0.  1.
         14    1    3    3    0    0  0.10701771781E+02 -0.64109230976E+02 -0.39409587635E+03  0.39941968050E+03  0.00000000000E+00 0. -1.
         11    1    5    5    0    0 -0.60153688152E+02 -0.13265783040E+02  0.10682229842E+03  0.12331038333E+03  0.00000000000E+00 0. -1.
        -12    1    5    5    0    0 -0.35996796592E+02 -0.59226840989E+02  0.31136539065E+03  0.31898588457E+03  0.00000000000E+00 0.  1.
          5    1    4    4  501    0  0.38372989562E+02  0.12476323360E+03 -0.10791256125E+03  0.16941352975E+03  0.41800000000E+01 0.  1.
         -5    1    4    4    0  501  0.75774968334E+02  0.18364355959E+01 -0.23220515470E+02  0.79384400611E+02  0.41800000000E+01 0.  1.
</event>
<event>
11    1  0.6625361E-009  0.1354268E+03  0.7561462E-02  0.1112775E+00
         22   -1    0    0    0    0  0.00000000000E+00  0.00000000000E+00  0.14347621264E+03  0.14347621264E+03  0.00000000000E+00 0.  1.
         22   -1    0    0    0    0 -0.00000000000E+00 -0.00000000000E+00 -0.14110395719E+04  0.14110395719E+04  0.00000000000E+00 0.  1.
        -24    2    1    2    0    0 -0.13448421807E+02  0.49442703642E+02 -0.11200174767E+04  0.11240165861E+04  0.79678709287E+02 0.  0.
         25    2    1    2    0    0  0.61922481877E+02 -0.41308836606E+02 -0.25136758652E+03  0.29047255887E+03  0.12509128731E+03 0.  0.
         24    2    1    2    0    0 -0.48474060069E+02 -0.81338670361E+01  0.10382170389E+03  0.14002663965E+03  0.80078831901E+02 0.  0.
        -11    1    5    5    0    0 -0.38540924537E+02 -0.42098980398E+02  0.75809866339E+02  0.94893955809E+02  0.00000000000E+00 0.  1.
         12    1    5    5    0    0 -0.99331355324E+01  0.33965113362E+02  0.28011837553E+02  0.45132683836E+02  0.00000000000E+00 0. -1.
         11    1    3    3    0    0 -0.10660688380E+00 -0.40057515357E+00  0.13757858762E+01  0.14368758674E+01  0.00000000000E+00 0. -1.
        -12    1    3    3    0    0 -0.13341814924E+02  0.49843278795E+02 -0.11213932625E+04  0.11225797102E+04  0.00000000000E+00 0.  1.
          5    1    4    4  501    0  0.92831720549E+02 -0.19772069807E+02 -0.11622200193E+03  0.15011225538E+03  0.41800000000E+01 0.  1.
         -5    1    4    4    0  501 -0.30909238673E+02 -0.21536766799E+02 -0.13514558460E+03  0.14036030349E+03  0.41800000000E+01 0.  1.
</event>
<event>
11    1  0.6625361E-009  0.1303923E+03  0.7561462E-02  0.1118788E+00
         22   -1    0    0    0    0  0.00000000000E+00  0.00000000000E+00  0.13529425065E+03  0.13529425065E+03  0.00000000000E+00 0. -1.
         22   -1    0    0    0    0 -0.00000000000E+00 -0.00000000000E+00 -0.72338166283E+03  0.72338166283E+03  0.00000000000E+00 0. -1.
         24    2    1    2    0    0  0.33025442444E+01 -0.36493988249E+02 -0.59779268187E+03  0.60920881100E+03  0.11151935673E+03 0.  0.
         25    2    1    2    0    0 -0.51022172451E+02  0.30854676467E+02 -0.37680365170E+02  0.14360379356E+03  0.12508783499E+03 0.  0.
        -24    2    1    2    0    0  0.47719628206E+02  0.56393117822E+01  0.47385634854E+02  0.10586330893E+03  0.81563944441E+02 0.  0.
        -11    1    3    3    0    0 -0.39771031568E+02 -0.46750563874E+02 -0.20678458396E+03  0.21570167903E+03  0.00000000000E+00 0.  1.
         12    1    3    3    0    0  0.43073575812E+02  0.10256575625E+02 -0.39100809791E+03  0.39350713197E+03  0.00000000000E+00 0. -1.
         11    1    5    5    0    0  0.39540708792E+02 -0.16175682417E+02  0.64211531921E+02  0.77124841556E+02  0.00000000000E+00 0. -1.
        -12    1    5    5    0    0  0.81789194140E+01  0.21814994199E+02 -0.16825897067E+02  0.28738467370E+02  0.00000000000E+00 0.  1.
          5    1    4    4  501    0  0.22031695009E+02  0.19871364006E+01  0.31588884287E+02  0.38790131561E+02  0.41800000000E+01 0.  1.
         -5    1    4    4    0  501 -0.73053867460E+02  0.28867540066E+02 -0.69269249457E+02  0.10481366199E+03  0.41800000000E+01 0.  1.
</event>
<event>
11    1  0.6625361E-009  0.2525480E+03  0.7561462E-02  0.1022551E+00
         22   -1    0    0    0    0  0.00000000000E+00  0.00000000000E+00  0.17503384465E+04  0.17503384465E+04  0.00000000000E+00 0. -1.
         22   -1    0    0    0    0 -0.00000000000E+00 -0.00000000000E+00 -0.91322620626E+03  0.91322620626E+03  0.00000000000E+00 0. -1.
         24    2    1    2    0    0 -0.90944549339E+01  0.69826687993E+01 -0.68948529709E+03  0.69413349643E+03  0.79371715313E+02 0.  0.
         25    2    1    2    0    0  0.17236121995E+03  0.13945599023E+03 -0.13728326492E+03  0.28922131428E+03  0.12508361385E+03 0.  0.
        -24    2    1    2    0    0 -0.16326676502E+03 -0.14643865903E+03  0.16638808023E+04  0.16802098421E+04  0.80656505051E+02 0.  0.
        -11    1    3    3    0    0 -0.33481099737E+02  0.18246335608E+02 -0.18268839641E+03  0.18662519387E+03  0.00000000000E+00 0.  1.
         12    1    3    3    0    0  0.24386644803E+02 -0.11263666808E+02 -0.50679690068E+03  0.50750830257E+03  0.00000000000E+00 0. -1.
         13    1    5    5    0    0 -0.13236769717E+03 -0.15233281145E+03  0.14715873835E+04  0.14853605353E+04  0.00000000000E+00 0. -1.
        -14    1    5    5    0    0 -0.30899067851E+02  0.58941524250E+01  0.19229341879E+03  0.19484930674E+03  0.00000000000E+00 0.  1.
          5    1    4    4  501    0 -0.17259000662E+02  0.51972651743E+01  0.14878565833E+01  0.18562617983E+02  0.41800000000E+01 0. -1.
         -5    1    4    4    0  501  0.18962022062E+03  0.13425872505E+03 -0.13877112150E+03  0.27065869630E+03  0.41800000000E+01 0. -1.
</event>
<event>
11    1  0.6625361E-009  0.1602606E+03  0.7561462E-02  0.1086832E+00
         22   -1    0    0    0    0  0.00000000000E+00  0.00000000000E+00  0.76405351556E+03  0.76405351556E+03  0.00000000000E+00 0.  1.
         22   -1    0    0    0    0 -0.00000000000E+00 -0.00000000000E+00 -0.12683097530E+04  0.12683097530E+04  0.00000000000E+00 0. -1.
         24    2    1    2    0    0 -0.98550814384E+02 -0.15910157427E+02 -0.12167296461E+04  0.12234726800E+04  0.80554149793E+02 0.  0.
         25    2    1    2    0    0  0.11332622986E+03  0.34636398380E+02  0.11860297881E+03  0.20918004517E+03  0.12508840972E+03 0.  0.
        -24    2    1    2    0    0 -0.14775415476E+02 -0.18726240954E+02  0.59387042982E+03  0.59971054335E+03  0.80010395500E+02 0.  0.
        -13    1    3    3    0    0 -0.18196154542E+02 -0.29816095089E+02 -0.16887755000E+03  0.17245209903E+03  0.00000000000E+00 0.  1.
         14    1    3    3    0    0 -0.80354659842E+02  0.13905937662E+02 -0.10478520961E+04  0.10510205810E+04  0.00000000000E+00 0. -1.
         11    1    5    5    0    0  0.22097969103E+02  0.15145792801E+02  0.33318093462E+03  0.33425626467E+03  0.00000000000E+00 0. -1.
        -12    1    5    5    0    0 -0.36873384579E+02 -0.33872033755E+02  0.26068949519E+03  0.26545427867E+03  0.00000000000E+00 0.  1.
          5    1    4    4  501    0  0.12565539114E+03  0.54029833506E+02  0.12459357542E+03  0.18506628993E+03  0.41800000000E+01 0.  1.
         -5    1    4    4    0  501 -0.12329161284E+02 -0.19393435126E+02 -0.59905966088E+01  0.24113755238E+02  0.41800000000E+01 0.  1.
</event>
<event>
11    1  0.6625361E-009  0.1601900E+03  0.7561462E-02  0.1086899E+00
         22   -1    0    0    0    0  0.00000000000E+00  0.00000000000E+00  0.14790854278E+03  0.14790854278E+03  0.00000000000E+00 0. -1.
         22   -1    0    0    0    0 -0.00000000000E+00 -0.00000000000E+00 -0.12108339226E+04  0.12108339226E+04  0.00000000000E+00 0.  1.
        -24    2    1    2    0    0 -0.17190327687E+02  0.28598419492E+02 -0.96728753417E+03  0.97109157177E+03  0.79121994653E+02 0.  0.
         25    2    1    2    0    0 -0.33601099158E+02  0.63542100816E+02 -0.17886217838E+03  0.22979649988E+03  0.12509244607E+03 0.  0.
         24    2    1    2    0    0  0.50791426845E+02 -0.92140520308E+02  0.83224332686E+02  0.15785439377E+03  0.83199011764E+02 0.  0.
        -11    1    5    5    0    0  0.35098534692E+02 -0.14476311790E+02 -0.60986730696E+01  0.38453407570E+02  0.00000000000E+00 0.  1.
         12    1    5    5    0    0  0.15692892153E+02 -0.77664208518E+02  0.89323005755E+02  0.11940098620E+03  0.00000000000E+00 0. -1.
         11    1    3    3    0    0  0.62984408435E+01 -0.69548540368E+01 -0.14008024203E+02  0.16860162924E+02  0.00000000000E+00 0. -1.
        -12    1    3    3    0    0 -0.23488768530E+02  0.35553273529E+02 -0.95327950996E+03  0.95423140884E+03  0.00000000000E+00 0.  1.
          5    1    4    4  501    0 -0.51252894515E+02 -0.13183482489E+02 -0.29073795849E+02  0.60526204340E+02  0.41800000000E+01 0.  1.
         -5    1    4    4    0  501  0.17651795357E+02  0.76725583304E+02 -0.14978838253E+03  0.16927029554E+03  0.41800000000E+01 0.  1.
</event>
<event>
11    1  0.6625361E-009  0.1365764E+03  0.7561462E-02  0.1111443E+00
         22   -1    0    0    0    0  0.00000000000E+00  0.00000000000E+00  0.32058979742E+03  0.32058979742E+03  0.00000000000E+00 0. -1.
         22   -1    0    0    0    0 -0.00000000000E+00 -0.00000000000E+00 -0.82607622086E+03  0.82607622086E+03  0.00000000000E+00 0.  1.
         24    2    1    2    0    0 -0.15622514770E+02 -0.26882151134E+00 -0.77483393421E+03  0.77888736188E+03  0.77805923019E+02 0.  0.
         25    2    1    2    0    0  0.18182438649E+02  0.54599143348E+02  0.96599720941E+02  0.16819643011E+03  0.12508743137E+03 0.  0.
        -24    2    1    2    0    0 -0.25599238789E+01 -0.54330321836E+02  0.17274778984E+03  0.19958222629E+03  0.83862560631E+02 0.  0.
        -13    1    3    3    0    0 -0.33540478852E+01 -0.33644087401E+02 -0.56906862278E+03  0.57007216358E+03  0.00000000000E+00 0.  1.
         14    1    3    3    0    0 -0.12268466885E+02  0.33375265890E+02 -0.20576531143E+03  0.20881519830E+03  0.00000000000E+00 0. -1.
         11    1    5    5    0    0  0.10282967855E+02 -0.69887560830E+02  0.90004000192E+02  0.11441473086E+03  0.00000000000E+00 0. -1.
        -12    1    5    5    0    0 -0.12842891734E+02  0.15557238993E+02  0.82743789644E+02  0.85167495430E+02  0.00000000000E+00 0.  1.
          5    1    4    4  501    0 -0.18427903079E+02  0.62831915269E+02  0.12284617274E+01  0.65623309171E+02  0.41800000000E+01 0. -1.
         -5    1    4    4    0  501  0.36610341728E+02 -0.82327719215E+01  0.95371259213E+02  0.10257312094E+03  0.41800000000E+01 0. -1.
</event>
<event>
11    1  0.6625361E-009  0.1501900E+03  0.7561462E-02  0.1096685E+00
         22   -1    0    0    0    0  0.00000000000E+00  0.00000000000E+00  0.16105055408E+04  0.16105055408E+04  0.00000000000E+00 0.  1.
         22   -1    0    0    0    0 -0.00000000000E+00 -0.00000000000E+00 -0.89014371967E+02  0.89014371967E+02  0.00000000000E+00 0. -1.
        -24    2    1    2    0    0  0.73394859629E+02 -0.15286412941E+02  0.44846346652E+02  0.12029393600E+03  0.82697982982E+02 0.  0.
         25    2    1    2    0    0 -0.98051971490E+02 -0.15765703074E+02  0.78117367812E+02  0.17779928941E+03  0.12509003819E+03 0.  0.
         24    2    1    2    0    0  0.24657111861E+02  0.31052116015E+02  0.13985274544E+04  0.14014266874E+04  0.80904340640E+02 0.  0.
        -13    1    5    5    0    0  0.10902152524E+02  0.58363290741E+02  0.88456247207E+03  0.88655281716E+03  0.00000000000E+00 0.  1.
         14    1    5    5    0    0  0.13754959337E+02 -0.27311174726E+02  0.51396498235E+03  0.51487387024E+03  0.00000000000E+00 0. -1.
         11    1    3    3    0    0  0.24758114828E+02  0.16389403405E+02 -0.18019128761E+02  0.34731337364E+02  0.00000000000E+00 0. -1.
        -12    1    3    3    0    0  0.48636744801E+02 -0.31675816346E+02  0.62865475413E+02  0.85562598633E+02  0.00000000000E+00 0.  1.
          5    1    4    4  501    0 -0.11650799819E+03  0.73871938950E+01  0.29109325155E+02  0.12038899239E+03  0.41800000000E+01 0. -1.
         -5    1    4    4    0  501  0.18456026703E+02 -0.23152896969E+02  0.49008042657E+02  0.57410297028E+02  0.41800000000E+01 0. -1.
</event>
<event>
11    1  0.6625361E-009  0.1279351E+03  0.7561462E-02  0.1121832E+00
         22   -1    0    0    0    0  0.00000000000E+00  0.00000000000E+00  0.83668156178E+03  0.83668156178E+03  0.00000000000E+00 0.  1.
         22   -1    0    0    0    0 -0.00000000000E+00 -0.00000000000E+00 -0.11567774374E+04  0.11567774374E+04  0.00000000000E+00 0. -1.
         24    2    1    2    0    0 -0.13713348706E+02  0.23035738736E+02 -0.11125502777E+04  0.11157259281E+04  0.79734089377E+02 0.  0.
         25    2    1    2    0    0  0.11912000573E+02 -0.22117958181E+02  0.60080892640E+02  0.14103518883E+03  0.12510040366E+03 0.  0.
        -24    2    1    2    0    0  0.18013481326E+01 -0.91778055456E+00  0.73237350937E+03  0.73669788233E+03  0.79678889476E+02 0.  0.
        -11    1    3    3    0    0 -0.32176395104E+02 -0.55459419022E+01 -0.20898818058E+03  0.21152337341E+03  0.00000000000E+00 0.  1.
         12    1    3    3    0    0  0.18463046398E+02  0.28581680638E+02 -0.90356209708E+03  0.90420255465E+03  0.00000000000E+00 0. -1.
         13    1    5    5    0    0  0.32051827310E+01  0.60627545523E+00 -0.92956450322E+00  0.33918809579E+01  0.00000000000E+00 0. -1.
        -14    1    5    5    0    0 -0.14038345984E+01 -0.15240560098E+01  0.73330307387E+03  0.73330600137E+03  0.00000000000E+00 0.  1.
          5    1    4    4  501    0 -0.46222442257E+02  0.19374083073E+02  0.46067285887E+01  0.50503104968E+02  0.41800000000E+01 0.  1.
         -5    1    4    4    0  501  0.58134442831E+02 -0.41492041254E+02  0.55474164051E+02  0.90532083859E+02  0.41800000000E+01 0.  1.
</event>
<event>
11    1  0.6625361E-009  0.1347243E+03  0.7561462E-02  0.1113597E+00
         22   -1    0    0    0    0  0.00000000000E+00  0.00000000000E+00  0.25921209497E+03  0.25921209497E+03  0.00000000000E+00 0. -1.
         22   -1    0    0    0    0 -0.00000000000E+00 -0.00000000000E+00 -0.10106598508E+04  0.10106598508E+04  0.00000000000E+00 0.  1.
         24    2    1    2    0    0  0.16428368513E+02 -0.31501929551E+02 -0.40113980963E+03  0.41086352593E+03  0.81445854465E+02 0.  0.
         25    2    1    2    0    0 -0.34248159156E+02  0.77689525474E+02 -0.58595753116E+03  0.60514600297E+03  0.12508740069E+03 0.  0.
        -24    2    1    2    0    0  0.17819790643E+02 -0.46187595923E+02  0.23564958497E+03  0.25386241687E+03  0.80402492783E+02 0.  0.
        -13    1    3    3    0    0 -0.31507617704E+02 -0.16616959239E+02 -0.22138084251E+03  0.22422830049E+03  0.00000000000E+00 0.  1.
         14    1    3    3    0    0  0.47935986217E+02 -0.14884970312E+02 -0.17975896712E+03  0.18663522544E+03  0.00000000000E+00 0. -1.
         13    1    5    5    0    0 -0.13498642208E+02 -0.59042273856E+02  0.15190706782E+03  0.16353580861E+03  0.00000000000E+00 0. -1.
        -14    1    5    5    0    0  0.31318432851E+02  0.12854677933E+02  0.83742517144E+02  0.90326608253E+02  0.00000000000E+00 0.  1.
          5    1    4    4  501    0 -0.59818314704E+00 -0.33748626258E+02 -0.10975598324E+03  0.11490507323E+03  0.41800000000E+01 0.  1.
         -5    1    4    4    0  501 -0.33649976009E+02  0.11143815173E+03 -0.47620154792E+03  0.49024092974E+03  0.41800000000E+01 0.  1.
</event>
<event>
11    1  0.6625361E-009  0.1303352E+03  0.7561462E-02  0.1118858E+00
         22   -1    0    0    0    0  0.00000000000E+00  0.00000000000E+00  0.16197596175E+04  0.16197596175E+04  0.00000000000E+00 0.  1.
         22   -1    0    0    0    0 -0.00000000000E+00 -0.00000000000E+00 -0.15822003063E+03  0.15822003063E+03  0.00000000000E+00 0. -1.
        -24    2    1    2    0    0 -0.22144912561E+02  0.25082743582E+02 -0.47639621998E+02  0.99005217377E+02  0.80080948458E+02 0.  0.
         25    2    1    2    0    0  0.11273252880E+02 -0.59757711172E+02 -0.25770135793E+02  0.14145526946E+03  0.12508966018E+03 0.  0.
         24    2    1    2    0    0  0.10871659681E+02  0.34674967590E+02  0.15349493447E+04  0.15375191613E+04  0.81087201784E+02 0.  0.
        -11    1    5    5    0    0  0.17123632288E+01  0.44882972923E+02  0.40440861528E+03  0.40689524642E+03  0.00000000000E+00 0.  1.
         12    1    5    5    0    0  0.91592964523E+01 -0.10208005333E+02  0.11305407294E+04  0.11306239149E+04  0.00000000000E+00 0. -1.
         11    1    3    3    0    0 -0.74996391415E+01  0.51086841783E+02 -0.45939022762E+02  0.69112255086E+02  0.00000000000E+00 0. -1.
        -12    1    3    3    0    0 -0.14645273420E+02 -0.26004098201E+02 -0.17005992354E+01  0.29892962292E+02  0.00000000000E+00 0.  1.
          5    1    4    4  501    0 -0.79374724140E+01 -0.36699394498E+02  0.48361857968E+02  0.61369297950E+02  0.41800000000E+01 0. -1.
         -5    1    4    4    0  501  0.19210725294E+02 -0.23058316674E+02 -0.74131993761E+02  0.80085971513E+02  0.41800000000E+01 0. -1.
</event>
<event>
11    1  0.6625361E-009  0.1449382E+03  0.7561462E-02  0.1102166E+00
         22   -1    0    0    0    0  0.00000000000E+00  0.00000000000E+00  0.40650363838E+03  0.40650363838E+03  0.00000000000E+00 0. -1.
         22   -1    0    0    0    0 -0.00000000000E+00 -0.00000000000E+00 -0.25262305286E+03  0.25262305286E+03  0.00000000000E+00 0.  1.
         24    2    1    2    0    0  0.95908524097E+00  0.16463129458E+02 -0.17731214402E+03  0.19541822275E+03  0.80478139206E+02 0.  0.
         25    2    1    2    0    0 -0.75319586827E+01 -0.86956660867E+02  0.46400613677E+02  0.15942589289E+03  0.12508160177E+03 0.  0.
        -24    2    1    2    0    0  0.65728734417E+01  0.70493531409E+02  0.28479211587E+03  0.30428257560E+03  0.80428825156E+02 0.  0.
        -13    1    3    3    0    0  0.21787041786E+02  0.43084800549E+02 -0.10821169337E+03  0.11849365304E+03  0.00000000000E+00 0.  1.
         14    1    3    3    0    0 -0.20827956545E+02 -0.26621671091E+02 -0.69100450649E+02  0.76924569713E+02  0.00000000000E+00 0. -1.
         13    1    5    5    0    0 -0.57697829751E+01  0.35820632373E+01  0.17489999242E+03  0.17503179402E+03  0.00000000000E+00 0. -1.
        -14    1    5    5    0    0  0.12342656417E+02  0.66911468172E+02  0.10989212345E+03  0.12925078157E+03  0.00000000000E+00 0.  1.
          5    1    4    4  501    0  0.30261292825E+02  0.17017207467E+02 -0.83012419553E+01  0.35940425865E+02  0.41800000000E+01 0. -1.
         -5    1    4    4    0  501 -0.37793251507E+02 -0.10397386833E+03  0.54701855632E+02  0.12348546702E+03  0.41800000000E+01 0. -1.
</event>
<event>
11    1  0.6625361E-009  0.1377452E+03  0.7561462E-02  0.1110103E+00
         22   -1    0    0    0    0  0.00000000000E+00  0.00000000000E+00  0.10515729964E+04  0.10515729964E+04  0.00000000000E+00 0.  1.
         22   -1    0    0    0    0 -0.00000000000E+00 -0.00000000000E+00 -0.42666074727E+03  0.42666074727E+03  0.00000000000E+00 0.  1.
        -24    2    1    2    0    0  0.40834427595E+02 -0.14508841903E+01 -0.35133443363E+03  0.36266401100E+03  0.80123311716E+02 0.  0.
         25    2    1    2    0    0  0.13135819997E+02 -0.22513432984E+02 -0.62946389010E+01  0.12793422720E+03  0.12509252407E+03 0.  0.
         24    2    1    2    0    0 -0.53970247593E+02  0.23964317175E+02  0.98254132164E+03  0.98763550545E+03  0.80928158034E+02 0.  0.
        -11    1    5    5    0    0 -0.69104169524E+02  0.36167909539E+02  0.86368493262E+03  0.86719961184E+03  0.00000000000E+00 0.  1.
         12    1    5    5    0    0  0.15133921931E+02 -0.12203592364E+02  0.11885638902E+03  0.12043589361E+03  0.00000000000E+00 0. -1.
         11    1    3    3    0    0 -0.99834171004E+01 -0.28547690015E+02 -0.86333519008E+02  0.91477405552E+02  0.00000000000E+00 0. -1.
        -12    1    3    3    0    0  0.50817844696E+02  0.27096805824E+02 -0.26500091462E+03  0.27118660545E+03  0.00000000000E+00 0.  1.
          5    1    4    4  501    0  0.47598721554E+02  0.12862977186E+02  0.37267482189E+02  0.61947010455E+02  0.41800000000E+01 0. -1.
         -5    1    4    4    0  501 -0.34462901556E+02 -0.35376410170E+02 -0.43562121090E+02  0.65987216748E+02  0.41800000000E+01 0. -1.
</event>
<event>
11    1  0.6625361E-009  0.1835741E+03  0.7561462E-02  0.1066788E+00
         22   -1    0    0    0    0  0.00000000000E+00  0.00000000000E+00  0.16523767248E+04  0.16523767248E+04  0.00000000000E+00 0.  1.
         22   -1    0    0    0    0 -0.00000000000E+00 -0.00000000000E+00 -0.24076230331E+04  0.24076230331E+04  0.00000000000E+00 0. -1.
         24    2    1    2    0    0 -0.58499169044E+02 -0.12069990850E+03 -0.23379009000E+04  0.23431261090E+04  0.80428377661E+02 0.  0.
         25    2    1    2    0    0  0.10708875868E+03  0.11197864015E+03  0.85374282998E+02  0.21666385012E+03  0.12508891904E+03 0.  0.
        -24    2    1    2    0    0 -0.48589589640E+02  0.87212683542E+01  0.14972803087E+04  0.15002097988E+04  0.79649914006E+02 0.  0.
        -11    1    3    3    0    0 -0.18706859588E+02  0.44431504803E+01 -0.14111818334E+03  0.14242201323E+03  0.00000000000E+00 0.  1.
         12    1    3    3    0    0 -0.39792309456E+02 -0.12514305898E+03 -0.21967827167E+04  0.22007040958E+04  0.00000000000E+00 0. -1.
         11    1    5    5    0    0 -0.63284893024E+01 -0.29258964849E+02  0.27818018337E+03  0.27978625988E+03  0.00000000000E+00 0. -1.
        -12    1    5    5    0    0 -0.42261100338E+02  0.37980233204E+02  0.12191001253E+04  0.12204235389E+04  0.00000000000E+00 0.  1.
          5    1    4    4  501    0  0.12397123392E+03  0.49285971239E+02  0.65195698393E+02  0.14854603761E+03  0.41800000000E+01 0.  1.
         -5    1    4    4    0  501 -0.16882475234E+02  0.62692668907E+02  0.20178584605E+02  0.68117812512E+02  0.41800000000E+01 0.  1.
</event>
<event>
11    1  0.6625361E-009  0.1691482E+03  0.7561462E-02  0.1078775E+00
         22   -1    0    0    0    0  0.00000000000E+00  0.00000000000E+00  0.40777754674E+03  0.40777754674E+03  0.00000000000E+00 0. -1.
         22   -1    0    0    0    0 -0.00000000000E+00 -0.00000000000E+00 -0.22148630114E+04  0.22148630114E+04  0.00000000000E+00 0.  1.
         24    2    1    2    0    0  0.22158122905E+02  0.31914334762E+02 -0.20379570102E+04  0.20399359493E+04  0.80996264239E+02 0.  0.
         25    2    1    2    0    0  0.35056695199E+01 -0.14073912268E+03 -0.10749426867E+03  0.21684395912E+03  0.12508594820E+03 0.  0.
        -24    2    1    2    0    0 -0.25663792425E+02  0.10882478792E+03  0.33836581423E+03  0.36586064967E+03  0.82831914317E+02 0.  0.
        -11    1    3    3    0    0  0.38290350508E+02  0.49635202071E+02 -0.11999571153E+04  0.12015934765E+04  0.00000000000E+00 0.  1.
         12    1    3    3    0    0 -0.16132227603E+02 -0.17720867309E+02 -0.83799989488E+03  0.83834247281E+03  0.00000000000E+00 0. -1.
         11    1    5    5    0    0 -0.68015904782E+01  0.91004497462E+02  0.32313032835E+03  0.33576969680E+03  0.00000000000E+00 0. -1.
        -12    1    5    5    0    0 -0.18862201947E+02  0.17820290461E+02  0.15235485877E+02  0.30090952864E+02  0.00000000000E+00 0.  1.
          5    1    4    4  501    0  0.59541440376E+02 -0.37675365461E+02 -0.33974977199E+02  0.78335099159E+02  0.41800000000E+01 0. -1.
         -5    1    4    4    0  501 -0.56035770856E+02 -0.10306375722E+03 -0.73519291473E+02  0.13850885996E+03  0.41800000000E+01 0. -1.
</event>
<event>
11    1  0.6625361E-009  0.1313689E+03  0.7561462E-02  0.1117598E+00
         22   -1    0    0    0    0  0.00000000000E+00  0.00000000000E+00  0.30559029980E+03  0.30559029980E+03  0.00000000000E+00 0.  1.
         22   -1    0    0    0    0 -0.00000000000E+00 -0.00000000000E+00 -0.32277585205E+03  0.32277585205E+03  0.00000000000E+00 0.  1.
         24    2    1    2    0    0 -0.46068845621E+01 -0.15751401427E+02 -0.26415841702E+03  0.27663189936E+03  0.80474893176E+02 0.  0.
         25    2    1    2    0    0  0.32821144308E+02  0.40174892103E+02  0.67845810938E+02  0.15146224095E+03  0.12508599803E+03 0.  0.
        -24    2    1    2    0    0 -0.28214259746E+02 -0.24423490676E+02  0.17912705382E+03  0.20027201154E+03  0.81423742509E+02 0.  0.
        -13    1    3    3    0    0  0.11475661732E+01 -0.23353355974E+02 -0.26591171536E+03  0.26693770155E+03  0.00000000000E+00 0.  1.
         14    1    3    3    0    0 -0.57544507353E+01  0.76019545471E+01  0.17532983404E+01  0.96941978147E+01  0.00000000000E+00 0. -1.
         13    1    5    5    0    0 -0.40419298417E+02 -0.44054669044E+02  0.88924017328E+02  0.10715416187E+03  0.00000000000E+00 0. -1.
        -14    1    5    5    0    0  0.12205038671E+02  0.19631178368E+02  0.90203036497E+02  0.93117849665E+02  0.00000000000E+00 0.  1.
          5    1    4    4  501    0 -0.24633215456E+02 -0.26002838443E+02 -0.62789821114E+01  0.36603837601E+02  0.41800000000E+01 0.  1.
         -5    1    4    4    0  501  0.57454359764E+02  0.66177730545E+02  0.74124793050E+02  0.11485840335E+03  0.41800000000E+01 0.  1.
</event>
<event>
11    1  0.6625361E-009  0.1670296E+03  0.7561462E-02  0.1080646E+00
         22   -1    0    0    0    0  0.00000000000E+00  0.00000000000E+00  0.39012454985E+03  0.39012454985E+03  0.00000000000E+00 0.  1.
         22   -1    0    0    0    0 -0.00000000000E+00 -0.00000000000E+00 -0.37618052868E+03  0.37618052868E+03  0.00000000000E+00 0. -1.
        -24    2    1    2    0    0 -0.27693059049E+02  0.35606104624E+02 -0.24597992112E+03  0.26269042454E+03  0.80407943296E+02 0.  0.
         25    2    1    2    0    0  0.13333359087E+03 -0.12329599622E+02 -0.28171136178E+02  0.18539465120E+03  0.12509076025E+03 0.  0.
         24    2    1    2    0    0 -0.10564053182E+03 -0.23276505002E+02  0.28809507847E+03  0.31822000278E+03  0.81015296579E+02 0.  0.
        -11    1    5    5    0    0 -0.91212252957E+01 -0.22544045160E+01  0.13932258230E+03  0.13963903835E+03  0.00000000000E+00 0.  1.
         12    1    5    5    0    0 -0.96519306527E+02 -0.21022100486E+02  0.14877249617E+03  0.17858096443E+03  0.00000000000E+00 0. -1.
         11    1    3    3    0    0 -0.49949129074E+02  0.19480977910E+02 -0.21356799590E+03  0.22019471581E+03  0.00000000000E+00 0. -1.
        -12    1    3    3    0    0  0.22256070025E+02  0.16125126714E+02 -0.32411925219E+02  0.42495708735E+02  0.00000000000E+00 0.  1.
          5    1    4    4  501    0  0.14516932682E+03 -0.25743063831E+02 -0.51027386253E+02  0.15607083435E+03  0.41800000000E+01 0.  1.
         -5    1    4    4    0  501 -0.11835735952E+02  0.13413464209E+02  0.22856250075E+02  0.29323816857E+02  0.41800000000E+01 0.  1.
</event>
<event>
11    1  0.6625361E-009  0.1272078E+03  0.7561462E-02  0.1122748E+00
         22   -1    0    0    0    0  0.00000000000E+00  0.00000000000E+00  0.21226280790E+03  0.21226280790E+03  0.00000000000E+00 0. -1.
         22   -1    0    0    0    0 -0.00000000000E+00 -0.00000000000E+00 -0.55934181876E+03  0.55934181876E+03  0.00000000000E+00 0.  1.
         24    2    1    2    0    0  0.14895792111E+02 -0.19338038079E+02 -0.38622510024E+03  0.39513585731E+03  0.79791436475E+02 0.  0.
         25    2    1    2    0    0  0.66762502146E+01  0.79399329508E+01 -0.13407879909E+03  0.18366323569E+03  0.12508974749E+03 0.  0.
        -24    2    1    2    0    0 -0.21572042326E+02  0.11398105128E+02  0.17322488847E+03  0.19280553367E+03  0.81066898391E+02 0.  0.
        -11    1    3    3    0    0  0.10268010683E+02  0.30989882252E+02 -0.16689604550E+03  0.17005909222E+03  0.00000000000E+00 0.  1.
         12    1    3    3    0    0  0.46277814284E+01 -0.50327920331E+02 -0.21932905474E+03  0.22507676508E+03  0.00000000000E+00 0. -1.
         11    1    5    5    0    0 -0.32261696922E+02  0.24831815008E+02  0.17065808750E+03  0.17544691207E+03  0.00000000000E+00 0. -1.
        -12    1    5    5    0    0  0.10689654596E+02 -0.13433709880E+02  0.25668009733E+01  0.17358621597E+02  0.00000000000E+00 0.  1.
          5    1    4    4  501    0 -0.46479476874E+02 -0.33651215376E+02 -0.54720249251E+02  0.79401033650E+02  0.41800000000E+01 0.  1.
         -5    1    4    4    0  501  0.53155727088E+02  0.41591148327E+02 -0.79358549837E+02  0.10426220204E+03  0.41800000000E+01 0.  1.
</event>
<event>
11    1  0.6625361E-009  0.1349936E+03  0.7561462E-02  0.1113281E+00
         22   -1    0    0    0    0  0.00000000000E+00  0.00000000000E+00  0.59358423380E+03  0.59358423380E+03  0.00000000000E+00 0. -1.
         22   -1    0    0    0    0 -0.00000000000E+00 -0.00000000000E+00 -0.65228038751E+03  0.65228038751E+03  0.00000000000E+00 0.  1.
         24    2    1    2    0    0 -0.20216405493E+02  0.33817340032E+02 -0.61216255739E+03  0.61913197783E+03  0.83839690827E+02 0.  0.
         25    2    1    2    0    0 -0.75228622730E+00 -0.76476017476E+02  0.13902904723E+03  0.20205701911E+03  0.12509522699E+03 0.  0.
        -24    2    1    2    0    0  0.20968691721E+02  0.42658677444E+02  0.41443735645E+03  0.42467562437E+03  0.79571444135E+02 0.  0.
        -11    1    3    3    0    0 -0.40442946531E+02 -0.67489421443E+00 -0.46097601895E+03  0.46274720685E+03  0.00000000000E+00 0.  1.
         12    1    3    3    0    0  0.20226541038E+02  0.34492234246E+02 -0.15118653845E+03  0.15638477097E+03  0.00000000000E+00 0. -1.
         11    1    5    5    0    0  0.51609674106E+02  0.26626409020E+02  0.26517636209E+03  0.27146091271E+03  0.00000000000E+00 0. -1.
        -12    1    5    5    0    0 -0.30640982385E+02  0.16032268424E+02  0.14926099436E+03  0.15321471166E+03  0.00000000000E+00 0.  1.
          5    1    4    4  501    0 -0.59876132044E+02 -0.59421604486E+02  0.72167780580E+02  0.11109338064E+03  0.41800000000E+01 0.  1.
         -5    1    4    4    0  501  0.59123845817E+02 -0.17054412989E+02  0.66861266648E+02  0.90963638473E+02  0.41800000000E+01 0.  1.
</event>
<event>
11    1  0.6625361E-009  0.1584668E+03  0.7561462E-02  0.1088528E+00
         22   -1    0    0    0    0  0.00000000000E+00  0.00000000000E+00  0.11016297390E+04  0.11016297390E+04  0.00000000000E+00 0.  1.
         22   -1    0    0    0    0 -0.00000000000E+00 -0.00000000000E+00 -0.12648017935E+04  0.12648017935E+04  0.00000000000E+00 0.  1.
        -24    2    1    2    0    0  0.93501145702E+02  0.25784655785E+02 -0.12359927094E+04  0.12424121008E+04  0.80638315125E+02 0.  0.
         25    2    1    2    0    0 -0.11988597636E+03 -0.57897477081E+02  0.35270614873E+03  0.39720870408E+03  0.12509341338E+03 0.  0.
         24    2    1    2    0    0  0.26384830653E+02  0.32112821296E+02  0.72011450616E+03  0.72681072767E+03  0.89227458188E+02 0.  0.
        -11    1    5    5    0    0  0.46972635394E+02 -0.12617686063E+02  0.39634977849E+03  0.39932290366E+03  0.00000000000E+00 0.  1.
         12    1    5    5    0    0 -0.20587804741E+02  0.44730507359E+02  0.32376472767E+03  0.32748782401E+03  0.00000000000E+00 0. -1.
         11    1    3    3    0    0  0.22339770598E+02  0.12212204602E+02 -0.75833519529E+02  0.79993287067E+02  0.00000000000E+00 0. -1.
        -12    1    3    3    0    0  0.71161375104E+02  0.13572451183E+02 -0.11601591898E+04  0.11624188137E+04  0.00000000000E+00 0.  1.
          5    1    4    4  501    0 -0.20770624970E+02 -0.13522216209E+02 -0.29613940009E+01  0.25308327627E+02  0.41800000000E+01 0. -1.
         -5    1    4    4    0  501 -0.99115351385E+02 -0.44375260872E+02  0.35566754273E+03  0.37190037645E+03  0.41800000000E+01 0. -1.
</event>
<event>
11    1  0.6625361E-009  0.1315750E+03  0.7561462E-02  0.1117349E+00
         22   -1    0    0    0    0  0.00000000000E+00  0.00000000000E+00  0.61229962357E+03  0.61229962357E+03  0.00000000000E+00 0.  1.
         22   -1    0    0    0    0 -0.00000000000E+00 -0.00000000000E+00 -0.14576614000E+03  0.14576614000E+03  0.00000000000E+00 0.  1.
        -24    2    1    2    0    0  0.36994991942E+02 -0.11312263597E+02 -0.76408165192E+02  0.11744373801E+03  0.80363095725E+02 0.  0.
         25    2    1    2    0    0 -0.40238284104E+02  0.39873177242E+02  0.59267919654E+02  0.14956346965E+03  0.12509018900E+03 0.  0.
         24    2    1    2    0    0  0.32432921620E+01 -0.28560913645E+02  0.48367372911E+03  0.49105855589E+03  0.79824710169E+02 0.  0.
        -11    1    5    5    0    0  0.19497386936E+02  0.16706510272E+01  0.40186229786E+03  0.40233847146E+03  0.00000000000E+00 0.  1.
         12    1    5    5    0    0 -0.16254094774E+02 -0.30231564673E+02  0.81811431243E+02  0.88720084432E+02  0.00000000000E+00 0. -1.
         11    1    3    3    0    0 -0.14071764575E+01 -0.91442616366E+01  0.15365440210E+02  0.17935841751E+02  0.00000000000E+00 0. -1.
        -12    1    3    3    0    0  0.38402168400E+02 -0.21680019600E+01 -0.91773605402E+02  0.99507896264E+02  0.00000000000E+00 0.  1.
          5    1    4    4  501    0 -0.34470527559E+02 -0.39163744628E+02  0.32779619598E+01  0.52442669631E+02  0.41800000000E+01 0. -1.
         -5    1    4    4    0  501 -0.57677565453E+01  0.79036921870E+02  0.55989957695E+02  0.97120800022E+02  0.41800000000E+01 0. -1.
</event>
<event>
11    1  0.6625361E-009  0.2197538E+03  0.7561462E-02  0.1041372E+00
         22   -1    0    0    0    0  0.00000000000E+00  0.00000000000E+00  0.41377737369E+03  0.41377737369E+03  0.00000000000E+00 0. -1.
         22   -1    0    0    0    0 -0.00000000000E+00 -0.00000000000E+00 -0.18800090815E+04  0.18800090815E+04  0.00000000000E+00 0. -1.
        -24    2    1    2    0    0  0.29779984715E+02  0.17327103172E+03 -0.16387910553E+04  0.16501435389E+04  0.80174048939E+02 0.  0.
         25    2    1    2    0    0 -0.35310357469E+02 -0.25855613594E+03 -0.13135647597E+03  0.31779766279E+03  0.12507091556E+03 0.  0.
         24    2    1    2    0    0  0.55303727539E+01  0.85285104228E+02  0.30391582346E+03  0.32584525350E+03  0.80660817316E+02 0.  0.
        -11    1    5    5    0    0  0.11761297669E+02 -0.13853395947E+02  0.48593920442E+02  0.51880765281E+02  0.00000000000E+00 0.  1.
         12    1    5    5    0    0 -0.62309249154E+01  0.99138500175E+02  0.25532190302E+03  0.27396448822E+03  0.00000000000E+00 0. -1.
         13    1    3    3    0    0  0.33493511249E+02  0.17157073125E+03 -0.13435831371E+04  0.13549073685E+04  0.00000000000E+00 0. -1.
        -14    1    3    3    0    0 -0.37135265341E+01  0.17003004699E+01 -0.29520791829E+03  0.29523617042E+03  0.00000000000E+00 0.  1.
          5    1    4    4  501    0  0.46159725511E+02 -0.85199821140E+02 -0.55410951685E+02  0.11170306956E+03  0.41800000000E+01 0.  1.
         -5    1    4    4    0  501 -0.81470082980E+02 -0.17335631480E+03 -0.75945524281E+02  0.20609459324E+03  0.41800000000E+01 0.  1.
</event>
<event>
11    1  0.6625361E-009  0.1332546E+03  0.7561462E-02  0.1115334E+00
         22   -1    0    0    0    0  0.00000000000E+00  0.00000000000E+00  0.23759760955E+04  0.23759760955E+04  0.00000000000E+00 0.  1.
         22   -1    0    0    0    0 -0.00000000000E+00 -0.00000000000E+00 -0.26013208942E+03  0.26013208942E+03  0.00000000000E+00 0. -1.
        -24    2    1    2    0    0  0.45140342214E+02  0.12103805735E+02 -0.21585678529E+03  0.23506925873E+03  0.80493801210E+02 0.  0.
         25    2    1    2    0    0 -0.39855965142E+02  0.14365937703E+02  0.94976342931E+02  0.16267172726E+03  0.12508679790E+03 0.  0.
         24    2    1    2    0    0 -0.52843770716E+01 -0.26469743439E+02  0.22367244484E+04  0.22383671989E+04  0.81381122171E+02 0.  0.
        -13    1    5    5    0    0 -0.46251311638E+01  0.79493481455E+00  0.20103979268E+04  0.20104034043E+04  0.00000000000E+00 0.  1.
         14    1    5    5    0    0 -0.65924590782E+00 -0.27264678253E+02  0.22632652157E+03  0.22796379461E+03  0.00000000000E+00 0. -1.
         13    1    3    3    0    0  0.47428893785E+02  0.10006056763E+02 -0.22250934154E+03  0.22772796976E+03  0.00000000000E+00 0. -1.
        -14    1    3    3    0    0 -0.22885515711E+01  0.20977489725E+01  0.66525562494E+01  0.73412889670E+01  0.00000000000E+00 0.  1.
          5    1    4    4  501    0 -0.77740940057E+02  0.37356651172E+02  0.72783742312E+02  0.11293413431E+03  0.41800000000E+01 0.  1.
         -5    1    4    4    0  501  0.37884974915E+02 -0.22990713468E+02  0.22192600619E+02  0.49737592948E+02  0.41800000000E+01 0.  1.
</event>
<event>
11    1  0.6625361E-009  0.2184148E+03  0.7561462E-02  0.1042215E+00
         22   -1    0    0    0    0  0.00000000000E+00  0.00000000000E+00  0.73458698650E+02  0.73458698650E+02  0.00000000000E+00 0. -1.
         22   -1    0    0    0    0 -0.00000000000E+00 -0.00000000000E+00 -0.14304683426E+04  0.14304683426E+04  0.00000000000E+00 0. -1.
         24    2    1    2    0    0  0.16889662921E+03 -0.11352609631E+03 -0.10089826107E+04  0.10323108600E+04  0.78775358171E+02 0.  0.
         25    2    1    2    0    0 -0.10862857943E+03  0.67264404605E+02 -0.30198132700E+03  0.35094947220E+03  0.12509253288E+03 0.  0.
        -24    2    1    2    0    0 -0.60268049777E+02  0.46261691707E+02 -0.46045706179E+02  0.12066670899E+03  0.81657000055E+02 0.  0.
        -13    1    3    3    0    0  0.20589321941E+02  0.25316130199E+01 -0.22809495405E+03  0.22903632311E+03  0.00000000000E+00 0.  1.
         14    1    3    3    0    0  0.14830730727E+03 -0.11605770933E+03 -0.78088765670E+03  0.80327453692E+03  0.00000000000E+00 0. -1.
         13    1    5    5    0    0 -0.17664478992E+02  0.53697846081E+02  0.12978724800E+01  0.56543584647E+02  0.00000000000E+00 0. -1.
        -14    1    5    5    0    0 -0.42603570785E+02 -0.74361543740E+01 -0.47343578659E+02  0.64123124344E+02  0.00000000000E+00 0.  1.
          5    1    4    4  501    0 -0.46879407629E+02 -0.99622330428E+01 -0.21134290689E+03  0.21674921370E+03  0.41800000000E+01 0. -1.
         -5    1    4    4    0  501 -0.61749171805E+02  0.77226637648E+02 -0.90638420108E+02  0.13420025850E+03  0.41800000000E+01 0. -1.
</event>
<event>
11    1  0.6625361E-009  0.1454908E+03  0.7561462E-02  0.1101577E+00
         22   -1    0    0    0    0  0.00000000000E+00  0.00000000000E+00  0.11341225244E+04  0.11341225244E+04  0.00000000000E+00 0.  1.
         22   -1    0    0    0    0 -0.00000000000E+00 -0.00000000000E+00 -0.89004482440E+02  0.89004482440E+02  0.00000000000E+00 0.  1.
         24    2    1    2    0    0 -0.45822223246E+02 -0.26322070489E+01 -0.56497393233E+01  0.97507942353E+02  0.85844479207E+02 0.  0.
         25    2    1    2    0    0  0.92526914795E+02 -0.51884360372E+02  0.16282222374E+03  0.23111071322E+03  0.12509144019E+03 0.  0.
        -24    2    1    2    0    0 -0.46704691548E+02  0.54516567421E+02  0.88794555750E+03  0.89450835122E+03  0.80898040662E+02 0.  0.
        -13    1    3    3    0    0  0.10103838672E+00  0.36693299452E+02 -0.50924482901E+01  0.37045127386E+02  0.00000000000E+00 0.  1.
         14    1    3    3    0    0 -0.45923261633E+02 -0.39325506501E+02 -0.55729103319E+00  0.60462814968E+02  0.00000000000E+00 0. -1.
         11    1    5    5    0    0  0.17865603511E+02  0.19046830535E+02  0.10890893468E+03  0.11199606062E+03  0.00000000000E+00 0. -1.
        -12    1    5    5    0    0 -0.64570295060E+02  0.35469736886E+02  0.77903662282E+03  0.78251229060E+03  0.00000000000E+00 0.  1.
          5    1    4    4  501    0  0.58510076956E+02 -0.44352753968E+02  0.98867590236E+01  0.74201187955E+02  0.41800000000E+01 0.  1.
         -5    1    4    4    0  501  0.34016837838E+02 -0.75316064045E+01  0.15293546471E+03  0.15690952526E+03  0.41800000000E+01 0.  1.
</event>
<event>
11    1  0.6625361E-009  0.1277324E+03  0.7561462E-02  0.1122087E+00
         22   -1    0    0    0    0  0.00000000000E+00  0.00000000000E+00  0.14844832373E+03  0.14844832373E+03  0.00000000000E+00 0. -1.
         22   -1    0    0    0    0 -0.00000000000E+00 -0.00000000000E+00 -0.69743189252E+03  0.69743189252E+03  0.00000000000E+00 0.  1.
         24    2    1    2    0    0  0.46318074440E+01 -0.96162148520E+01 -0.56440880232E+03  0.57037423131E+03  0.81581507575E+02 0.  0.
         25    2    1    2    0    0 -0.80774351737E+01  0.33924646745E+02 -0.76393838189E+02  0.15066414166E+03  0.12509012132E+03 0.  0.
        -24    2    1    2    0    0  0.34456277297E+01 -0.24308431893E+02  0.91819071722E+02  0.12484184328E+03  0.80944250514E+02 0.  0.
        -13    1    3    3    0    0  0.32585064922E+02 -0.27999313688E+02 -0.20750833394E+03  0.21190907644E+03  0.00000000000E+00 0.  1.
         14    1    3    3    0    0 -0.27953257478E+02  0.18383098836E+02 -0.35690046838E+03  0.35846515487E+03  0.00000000000E+00 0. -1.
         11    1    5    5    0    0 -0.17858955044E+01  0.17724870385E+01  0.97590145065E+02  0.97622577035E+02  0.00000000000E+00 0. -1.
        -12    1    5    5    0    0  0.52315232341E+01 -0.26080918931E+02 -0.57710733430E+01  0.27219266250E+02  0.00000000000E+00 0.  1.
          5    1    4    4  501    0  0.17985705726E+02  0.75807793868E+02 -0.60290379775E+02  0.98603800713E+02  0.41800000000E+01 0. -1.
         -5    1    4    4    0  501 -0.26063140900E+02 -0.41883147124E+02 -0.16103458415E+02  0.52060340946E+02  0.41800000000E+01 0. -1.
</event>
<event>
11    1  0.6625361E-009  0.1350724E+03  0.7561462E-02  0.1113189E+00
         22   -1    0    0    0    0  0.00000000000E+00  0.00000000000E+00  0.21293356115E+03  0.21293356115E+03  0.00000000000E+00 0. -1.
         22   -1    0    0    0    0 -0.00000000000E+00 -0.00000000000E+00 -0.62664897169E+03  0.62664897169E+03  0.00000000000E+00 0. -1.
         24    2    1    2    0    0  0.41949402678E+02  0.12682577041E+02 -0.42021636348E+03  0.43078384342E+03  0.84097131181E+02 0.  0.
         25    2    1    2    0    0 -0.92854841590E+01 -0.53345150355E+02 -0.16016439620E+03  0.21031382528E+03  0.12508935211E+03 0.  0.
        -24    2    1    2    0    0 -0.32663918519E+02  0.40662573314E+02  0.16666534914E+03  0.19848486415E+03  0.94332000141E+02 0.  0.
        -11    1    3    3    0    0  0.43310238264E+02 -0.21507993049E+02 -0.13265673600E+03  0.14119553857E+03  0.00000000000E+00 0.  1.
         12    1    3    3    0    0 -0.13608355862E+01  0.34190570090E+02 -0.28755962747E+03  0.28958830485E+03  0.00000000000E+00 0. -1.
         13    1    5    5    0    0  0.18039003508E+02 -0.16166215010E+02  0.77623159558E+02  0.81314863679E+02  0.00000000000E+00 0. -1.
        -14    1    5    5    0    0 -0.50702922027E+02  0.56828788324E+02  0.89042189580E+02  0.11717000047E+03  0.00000000000E+00 0.  1.
          5    1    4    4  501    0 -0.43955529463E+02  0.99944677947E+00 -0.13317075968E+03  0.14030328257E+03  0.41800000000E+01 0.  1.
         -5    1    4    4    0  501  0.34670045304E+02 -0.54344597134E+02 -0.26993636521E+02  0.70010542718E+02  0.41800000000E+01 0.  1.
</event>
<event>
11    1  0.6625361E-009  0.1298047E+03  0.7561462E-02  0.1119509E+00
         22   -1    0    0    0    0  0.00000000000E+00  0.00000000000E+00  0.19125823203E+04  0.19125823203E+04  0.00000000000E+00 0.  1.
         22   -1    0    0    0    0 -0.00000000000E+00 -0.00000000000E+00 -0.22374344329E+03  0.22374344329E+03  0.00000000000E+00 0. -1.
        -24    2    1    2    0    0  0.10902470379E+02  0.34127586876E+02 -0.17735230463E+03  0.19735437139E+03  0.78812130435E+02 0.  0.
         25    2    1    2    0    0  0.11765157462E+02 -0.25742803815E+02  0.80764501642E+02  0.15156053836E+03  0.12508629495E+03 0.  0.
         24    2    1    2    0    0 -0.22667627841E+02 -0.83847830608E+01  0.17854266800E+04  0.17874108538E+04  0.80653609901E+02 0.  0.
        -13    1    5    5    0    0 -0.37221774505E+02  0.12542240317E+02  0.15684894362E+04  0.15689811598E+04  0.00000000000E+00 0.  1.
         14    1    5    5    0    0  0.14554146665E+02 -0.20927023378E+02  0.21693724385E+03  0.21842969409E+03  0.00000000000E+00 0. -1.
         13    1    3    3    0    0  0.34885501870E+02  0.36653937395E+02 -0.64636721394E+02  0.82087850013E+02  0.00000000000E+00 0. -1.
        -14    1    3    3    0    0 -0.23983031491E+02 -0.25263505190E+01 -0.11271558324E+03  0.11526652138E+03  0.00000000000E+00 0.  1.
          5    1    4    4  501    0 -0.10474848820E+02  0.29702164509E+02 -0.17659860439E+02  0.36349471867E+02  0.41800000000E+01 0.  1.
         -5    1    4    4    0  501  0.22240006282E+02 -0.55444968324E+02  0.98424362081E+02  0.11521106650E+03  0.41800000000E+01 0.  1.
</event>
<event>
11    1  0.6625361E-009  0.1384983E+03  0.7561462E-02  0.1109247E+00
         22   -1    0    0    0    0  0.00000000000E+00  0.00000000000E+00  0.35917864829E+02  0.35917864829E+02  0.00000000000E+00 0. -1.
         22   -1    0    0    0    0 -0.00000000000E+00 -0.00000000000E+00 -0.31646287319E+04  0.31646287319E+04  0.00000000000E+00 0. -1.
         24    2    1    2    0    0  0.74428070696E+02 -0.21115915669E+02 -0.19321232049E+04  0.19355647689E+04  0.85588994977E+02 0.  0.
         25    2    1    2    0    0 -0.26012015572E+02 -0.23233415843E+02 -0.11390100098E+04  0.11463892789E+04  0.12509260475E+03 0.  0.
        -24    2    1    2    0    0 -0.48416055124E+02  0.44349331512E+02 -0.57577652436E+02  0.11859254901E+03  0.80237329354E+02 0.  0.
        -13    1    3    3    0    0 -0.91106326584E+01 -0.56146217466E+00 -0.27021342966E+02  0.28521427785E+02  0.00000000000E+00 0.  1.
         14    1    3    3    0    0  0.83538703354E+02 -0.20554453495E+02 -0.19051018619E+04  0.19070433411E+04  0.00000000000E+00 0. -1.
         13    1    5    5    0    0 -0.43956475551E+02  0.75165368656E+01  0.59846150483E+01  0.44994285044E+02  0.00000000000E+00 0. -1.
        -14    1    5    5    0    0 -0.44595795725E+01  0.36832794647E+02 -0.63562267485E+02  0.73598263969E+02  0.00000000000E+00 0.  1.
          5    1    4    4  501    0  0.40017578496E+02 -0.40454526745E+02 -0.66965380342E+03  0.67208010248E+03  0.41800000000E+01 0.  1.
         -5    1    4    4    0  501 -0.66029594068E+02  0.17221110902E+02 -0.46935620637E+03  0.47430917640E+03  0.41800000000E+01 0.  1.
</event>
<event>
11    1  0.6625361E-009  0.1433818E+03  0.7561462E-02  0.1103840E+00
         22   -1    0    0    0    0  0.00000000000E+00  0.00000000000E+00  0.28323407138E+04  0.28323407138E+04  0.00000000000E+00 0.  1.
         22   -1    0    0    0    0 -0.00000000000E+00 -0.00000000000E+00 -0.36468813694E+03  0.36468813694E+03  0.00000000000E+00 0. -1.
         24    2    1    2    0    0 -0.61484614557E+02  0.16005740852E+01 -0.22693403561E+03  0.24929725562E+03  0.82868241684E+02 0.  0.
         25    2    1    2    0    0  0.11387918396E+03  0.30029039852E+01 -0.68837464691E+02  0.18265057089E+03  0.12508056815E+03 0.  0.
        -24    2    1    2    0    0 -0.52394569404E+02 -0.46034780705E+01  0.27634240772E+04  0.27650810242E+04  0.79962849961E+02 0.  0.
        -13    1    3    3    0    0 -0.52781572432E+01  0.12783631014E+02  0.13815360343E+01  0.13899237662E+02  0.00000000000E+00 0.  1.
         14    1    3    3    0    0 -0.56206457314E+02 -0.11183056929E+02 -0.22831557164E+03  0.23539801796E+03  0.00000000000E+00 0. -1.
         13    1    5    5    0    0  0.25926704526E+01  0.26208398819E+02  0.42998278803E+03  0.43078857937E+03  0.00000000000E+00 0. -1.
        -14    1    5    5    0    0 -0.54987239857E+02 -0.30811876890E+02  0.23334412891E+04  0.23342924449E+04  0.00000000000E+00 0.  1.
          5    1    4    4  501    0  0.91503030703E+02  0.57272661174E+01  0.17404861831E+02  0.93413103044E+02  0.41800000000E+01 0. -1.
         -5    1    4    4    0  501  0.22376153258E+02 -0.27243621322E+01 -0.86242326522E+02  0.89237467846E+02  0.41800000000E+01 0. -1.
</event>
<event>
11    1  0.6625361E-009  0.1807586E+03  0.7561462E-02  0.1069031E+00
         22   -1    0    0    0    0  0.00000000000E+00  0.00000000000E+00  0.92339008324E+03  0.92339008324E+03  0.00000000000E+00 0.  1.
         22   -1    0    0    0    0 -0.00000000000E+00 -0.00000000000E+00 -0.38062363040E+03  0.38062363040E+03  0.00000000000E+00 0.  1.
        -24    2    1    2    0    0  0.82920662995E+02 -0.10160293076E+03 -0.32502498073E+03  0.35932621683E+03  0.79215529461E+02 0.  0.
         25    2    1    2    0    0 -0.12696153160E+03  0.50597826424E+02  0.22138766158E+03  0.28868908436E+03  0.12509804227E+03 0.  0.
         24    2    1    2    0    0  0.44040868606E+02  0.51005104341E+02  0.64640377199E+03  0.65599841245E+03  0.89190593209E+02 0.  0.
        -13    1    5    5    0    0 -0.14248847088E+02  0.31866390597E+02  0.41940049033E+03  0.42085064783E+03  0.00000000000E+00 0.  1.
         14    1    5    5    0    0  0.58289715694E+02  0.19138713744E+02  0.22700328166E+03  0.23514776462E+03  0.00000000000E+00 0. -1.
         11    1    3    3    0    0  0.15712249793E+02 -0.39954078423E+02 -0.20009481515E+03  0.20464881682E+03  0.00000000000E+00 0. -1.
        -12    1    3    3    0    0  0.67208413202E+02 -0.61648852342E+02 -0.12493016558E+03  0.15467740000E+03  0.00000000000E+00 0.  1.
          5    1    4    4  501    0  0.11569426623E+02  0.42357832107E+02  0.74438631080E+02  0.86525255101E+02  0.41800000000E+01 0. -1.
         -5    1    4    4    0  501 -0.13853095823E+03  0.82399943162E+01  0.14694903050E+03  0.20216382925E+03  0.41800000000E+01 0. -1.
</event>
<event>
11    1  0.8093723E-009  0.1722085E+03  0.7561462E-02  0.1076126E+00
         22   -1    0    0    0    0  0.00000000000E+00  0.00000000000E+00  0.33045882636E+03  0.33045882636E+03  0.00000000000E+00 0.  1.
         22   -1    0    0    0    0 -0.00000000000E+00 -0.00000000000E+00 -0.14591930720E+04  0.14591930720E+04  0.00000000000E+00 0.  1.
         24    2    1    2    0    0 -0.84180133877E+02  0.95380753533E+02 -0.11194510865E+04  0.11293277272E+04  0.77631162347E+02 0.  0.
         25    2    1    2    0    0 -0.12612073032E+02 -0.10998956810E+03 -0.29984951818E+03  0.34324026046E+03  0.12508946146E+03 0.  0.
        -24    2    1    2    0    0  0.96792206909E+02  0.14608814564E+02  0.29056635899E+03  0.31708391072E+03  0.80816141210E+02 0.  0.
        -13    1    3    3    0    0  0.46340349908E+01 -0.98432397758E+01 -0.10809187778E+03  0.10863801219E+03  0.00000000000E+00 0.  1.
         14    1    3    3    0    0 -0.88814168868E+02  0.10522399331E+03 -0.10113592087E+04  0.10206897150E+04  0.00000000000E+00 0. -1.
         13    1    5    5    0    0  0.11324811117E+02  0.12934425234E+02  0.34792635588E+01  0.17540124796E+02  0.00000000000E+00 0. -1.
        -14    1    5    5    0    0  0.85467395792E+02  0.16743893307E+01  0.28708709543E+03  0.29954378592E+03  0.00000000000E+00 0.  1.
          5    1    4    4  501    0 -0.42225037684E+02 -0.53149175555E+02 -0.47777030783E+02  0.83113811969E+02  0.41800000000E+01 0. -1.
         -5    1    4    4    0  501  0.29612964652E+02 -0.56840392543E+02 -0.25207248740E+03  0.26012644849E+03  0.41800000000E+01 0. -1.
</event>
<event>
11    1  0.8504303E-009  0.1781792E+03  0.7561462E-02  0.1071125E+00
         22   -1    0    0    0    0  0.00000000000E+00  0.00000000000E+00  0.43828445018E+03  0.43828445018E+03  0.00000000000E+00 0.  1.
         22   -1    0    0    0    0 -0.00000000000E+00 -0.00000000000E+00 -0.82053497493E+03  0.82053497493E+03  0.00000000000E+00 0.  1.
         24    2    1    2    0    0 -0.19585998937E+02  0.48487966695E+02 -0.67191290350E+03  0.67864994963E+03  0.79775371961E+02 0.  0.
         25    2    1    2    0    0 -0.10759368352E+03 -0.22444875832E+02 -0.76839275135E+02  0.18339053907E+03  0.12509053695E+03 0.  0.
        -24    2    1    2    0    0  0.12717968245E+03 -0.26043090863E+02  0.36650165389E+03  0.39677893641E+03  0.79102135643E+02 0.  0.
        -13    1    3    3    0    0 -0.26245873980E+02  0.46670593911E+02 -0.66902926765E+03  0.67116849689E+03  0.00000000000E+00 0.  1.
         14    1    3    3    0    0  0.66598750428E+01  0.18173727846E+01 -0.28836358475E+01  0.74814527416E+01  0.00000000000E+00 0. -1.
         11    1    5    5    0    0  0.42792684333E+01 -0.27174004563E+02  0.47080908763E+02  0.54528438748E+02  0.00000000000E+00 0. -1.
        -12    1    5    5    0    0  0.12290041402E+03  0.11309136994E+01  0.31942074513E+03  0.34225049766E+03  0.00000000000E+00 0.  1.
          5    1    4    4  501    0 -0.11249256648E+03 -0.40742827761E+01 -0.92150670876E+01  0.11302020684E+03  0.41800000000E+01 0.  1.
         -5    1    4    4    0  501  0.48988829659E+01 -0.18370593056E+02 -0.67624208047E+02  0.70370332225E+02  0.41800000000E+01 0.  1.
</event>
<event>
11    1  0.6625361E-009  0.1421734E+03  0.7561462E-02  0.1105155E+00
         22   -1    0    0    0    0  0.00000000000E+00  0.00000000000E+00  0.96712043593E+02  0.96712043593E+02  0.00000000000E+00 0.  1.
         22   -1    0    0    0    0 -0.00000000000E+00 -0.00000000000E+00 -0.11583648251E+04  0.11583648251E+04  0.00000000000E+00 0. -1.
         24    2    1    2    0    0 -0.50038083488E+02 -0.41350527995E+02 -0.84845426092E+03  0.85528893405E+03  0.86202388995E+02 0.  0.
         25    2    1    2    0    0  0.51541229730E+02  0.68557325062E+02 -0.25672573489E+03  0.29817720958E+03  0.12507973527E+03 0.  0.
        -24    2    1    2    0    0 -0.15031462425E+01 -0.27206797067E+02  0.43527214328E+02  0.10161072504E+03  0.87679255248E+02 0.  0.
        -11    1    3    3    0    0 -0.56995258377E+01  0.26361036392E+02 -0.21477790051E+03  0.21646462848E+03  0.00000000000E+00 0.  1.
         12    1    3    3    0    0 -0.44338557650E+02 -0.67711564387E+02 -0.63367636041E+03  0.63882430557E+03  0.00000000000E+00 0. -1.
         13    1    5    5    0    0 -0.13236613427E+02 -0.52831973310E+02  0.61681816290E+01  0.54813062343E+02  0.00000000000E+00 0. -1.
        -14    1    5    5    0    0  0.11733467185E+02  0.25625176243E+02  0.37359032699E+02  0.46797662697E+02  0.00000000000E+00 0.  1.
          5    1    4    4  501    0  0.82434188029E+02  0.67651855254E+02 -0.24029007142E+03  0.26292386673E+03  0.41800000000E+01 0.  1.
         -5    1    4    4    0  501 -0.30892958299E+02  0.90546980740E+00 -0.16435663470E+02  0.35253342845E+02  0.41800000000E+01 0.  1.
</event>
<event>
11    1  0.6625361E-009  0.1716647E+03  0.7561462E-02  0.1076592E+00
         22   -1    0    0    0    0  0.00000000000E+00  0.00000000000E+00  0.93561404899E+03  0.93561404899E+03  0.00000000000E+00 0. -1.
         22   -1    0    0    0    0 -0.00000000000E+00 -0.00000000000E+00 -0.84815376551E+02  0.84815376551E+02  0.00000000000E+00 0.  1.
        -24    2    1    2    0    0  0.29412895164E+01 -0.11415402989E+03  0.18311911249E+02  0.14057457589E+03  0.79913025023E+02 0.  0.
         25    2    1    2    0    0 -0.31943927130E+02  0.13644574301E+03  0.45545867267E+03  0.49267323213E+03  0.12508579409E+03 0.  0.
         24    2    1    2    0    0  0.29002637614E+02 -0.22291713116E+02  0.37702808853E+03  0.38718161752E+03  0.80133338556E+02 0.  0.
        -13    1    5    5    0    0 -0.71834364760E+01 -0.44153901387E+02  0.16355809000E+03  0.16956537845E+03  0.00000000000E+00 0.  1.
         14    1    5    5    0    0  0.36186074090E+02  0.21862188271E+02  0.21346999853E+03  0.21761623907E+03  0.00000000000E+00 0. -1.
         11    1    3    3    0    0 -0.36834638893E+02 -0.37951709276E+02  0.10420952551E+01  0.52898098471E+02  0.00000000000E+00 0. -1.
        -12    1    3    3    0    0  0.39775928409E+02 -0.76202320617E+02  0.17269815994E+02  0.87676477420E+02  0.00000000000E+00 0.  1.
          5    1    4    4  501    0 -0.48529454592E+02  0.49720943758E+02  0.76010022918E+02  0.10306442740E+03  0.41800000000E+01 0.  1.
         -5    1    4    4    0  501  0.16585527462E+02  0.86724799252E+02  0.37944864975E+03  0.38960880473E+03  0.41800000000E+01 0.  1.
</event>
<event>
11    1  0.6625361E-009  0.1308292E+03  0.7561462E-02  0.1118254E+00
         22   -1    0    0    0    0  0.00000000000E+00  0.00000000000E+00  0.92745502459E+03  0.92745502459E+03  0.00000000000E+00 0.  1.
         22   -1    0    0    0    0 -0.00000000000E+00 -0.00000000000E+00 -0.82147026329E+02  0.82147026329E+02  0.00000000000E+00 0. -1.
         24    2    1    2    0    0 -0.21301513797E+02  0.24753854617E+02  0.57701241733E+01  0.10663349861E+03  0.10134545321E+03 0.  0.
         25    2    1    2    0    0  0.15104444380E+02 -0.56492012143E+02  0.13456664126E+03  0.19280818868E+03  0.12508926815E+03 0.  0.
        -24    2    1    2    0    0  0.61970694165E+01  0.31738157526E+02  0.70497123282E+03  0.71016036362E+03  0.79357347731E+02 0.  0.
        -11    1    3    3    0    0  0.36654498620E+02 -0.81585364244E+01  0.12662167167E+02  0.39628833733E+02  0.00000000000E+00 0.  1.
         12    1    3    3    0    0 -0.57956012416E+02  0.32912391041E+02 -0.68920429941E+01  0.67004664881E+02  0.00000000000E+00 0. -1.
         11    1    5    5    0    0  0.38930784391E+02  0.27507188309E+02  0.52723270431E+03  0.52938320325E+03  0.00000000000E+00 0. -1.
        -12    1    5    5    0    0 -0.32733714975E+02  0.42309692164E+01  0.17773852851E+03  0.18077716038E+03  0.00000000000E+00 0.  1.
          5    1    4    4  501    0 -0.27285651497E+02  0.26315543673E+02  0.14359461386E+02  0.40751455774E+02  0.41800000000E+01 0.  1.
         -5    1    4    4    0  501  0.42390095877E+02 -0.82807555815E+02  0.12020717987E+03  0.15205673291E+03  0.41800000000E+01 0.  1.
</event>
<event>
11    1  0.6625361E-009  0.2393980E+03  0.7561462E-02  0.1029704E+00
         22   -1    0    0    0    0  0.00000000000E+00  0.00000000000E+00  0.13321143352E+04  0.13321143352E+04  0.00000000000E+00 0. -1.
         22   -1    0    0    0    0 -0.00000000000E+00 -0.00000000000E+00 -0.90304101410E+02  0.90304101410E+02  0.00000000000E+00 0.  1.
         24    2    1    2    0    0 -0.13455998265E+03 -0.15364406953E+03  0.16531670600E+03  0.27399923382E+03  0.77672889845E+02 0.  0.
         25    2    1    2    0    0  0.17063056297E+03  0.11892195466E+03  0.42542105272E+03  0.48978285470E+03  0.12508777854E+03 0.  0.
        -24    2    1    2    0    0 -0.36070580322E+02  0.34722114870E+02  0.65107247508E+03  0.65863634810E+03  0.86021853073E+02 0.  0.
        -11    1    3    3    0    0 -0.13987704232E+03 -0.14890181746E+03  0.13991104646E+03  0.24761348738E+03  0.00000000000E+00 0.  1.
         12    1    3    3    0    0  0.53170596709E+01 -0.47422520698E+01  0.25405659543E+02  0.26385746437E+02  0.00000000000E+00 0. -1.
         13    1    5    5    0    0 -0.28406409475E+02 -0.12446626296E+02  0.48039870828E+03  0.48139875522E+03  0.00000000000E+00 0. -1.
        -14    1    5    5    0    0 -0.76641708466E+01  0.47168741166E+02  0.17067376679E+03  0.17723759288E+03  0.00000000000E+00 0.  1.
          5    1    4    4  501    0  0.12720355518E+02  0.57509832965E+02  0.19499711026E+03  0.20374134028E+03  0.41800000000E+01 0. -1.
         -5    1    4    4    0  501  0.15791020745E+03  0.61412121697E+02  0.23042394246E+03  0.28604151441E+03  0.41800000000E+01 0. -1.
</event>
<event>
11    1  0.6625361E-009  0.1374721E+03  0.7561462E-02  0.1110415E+00
         22   -1    0    0    0    0  0.00000000000E+00  0.00000000000E+00  0.91312256027E+02  0.91312256027E+02  0.00000000000E+00 0.  1.
         22   -1    0    0    0    0 -0.00000000000E+00 -0.00000000000E+00 -0.19621620712E+04  0.19621620712E+04  0.00000000000E+00 0. -1.
         24    2    1    2    0    0 -0.43543566626E+02 -0.55550123428E+01 -0.14337506072E+04  0.14365966495E+04  0.79007780694E+02 0.  0.
         25    2    1    2    0    0  0.77728716495E+02 -0.38314982049E+02 -0.48335839411E+03  0.50674701959E+03  0.12508962181E+03 0.  0.
        -24    2    1    2    0    0 -0.34185149869E+02  0.43869994391E+02  0.46259186062E+02  0.11013065820E+03  0.83040042751E+02 0.  0.
        -11    1    3    3    0    0 -0.14528225471E+02 -0.24751114603E+02 -0.17287268317E+03  0.17523884158E+03  0.00000000000E+00 0.  1.
         12    1    3    3    0    0 -0.29015341155E+02  0.19196102260E+02 -0.12608779240E+04  0.12613578079E+04  0.00000000000E+00 0. -1.
         13    1    5    5    0    0  0.21575199409E+02  0.68113380016E+01 -0.79534760852E+01  0.23982104510E+02  0.00000000000E+00 0. -1.
        -14    1    5    5    0    0 -0.55760349278E+02  0.37058656390E+02  0.54212662147E+02  0.86148553686E+02  0.00000000000E+00 0.  1.
          5    1    4    4  501    0  0.77138138311E+02 -0.53878669758E+02 -0.48137161550E+03  0.49049903981E+03  0.41800000000E+01 0. -1.
         -5    1    4    4    0  501  0.59057818359E+00  0.15563687710E+02 -0.19867786056E+01  0.16247979780E+02  0.41800000000E+01 0. -1.
</event>
<event>
11    1  0.1007588E-008  0.1705681E+03  0.7561462E-02  0.1077538E+00
         22   -1    0    0    0    0  0.00000000000E+00  0.00000000000E+00  0.42208198607E+03  0.42208198607E+03  0.00000000000E+00 0. -1.
         22   -1    0    0    0    0 -0.00000000000E+00 -0.00000000000E+00 -0.70634798806E+03  0.70634798806E+03  0.00000000000E+00 0. -1.
        -24    2    1    2    0    0 -0.10754183415E+03  0.29000306147E+02 -0.53961631082E+03  0.55672217430E+03  0.79671529454E+02 0.  0.
         25    2    1    2    0    0  0.16756386601E+03  0.29369902144E+02 -0.71675863217E+02  0.22299154593E+03  0.12509020683E+03 0.  0.
         24    2    1    2    0    0 -0.60022031860E+02 -0.58370208291E+02  0.32702617204E+03  0.34871625390E+03  0.87448173250E+02 0.  0.
        -11    1    5    5    0    0 -0.21308381990E+01 -0.18253893019E+02  0.49554842728E+01  0.19034229854E+02  0.00000000000E+00 0.  1.
         12    1    5    5    0    0 -0.57891193661E+02 -0.40116315272E+02  0.32207068777E+03  0.32968202404E+03  0.00000000000E+00 0. -1.
         11    1    3    3    0    0 -0.81319011284E+02  0.34900522365E+02 -0.50600852600E+03  0.51368809256E+03  0.00000000000E+00 0. -1.
        -12    1    3    3    0    0 -0.26222822864E+02 -0.59002162185E+01 -0.33607784823E+02  0.43034081739E+02  0.00000000000E+00 0.  1.
          5    1    4    4  501    0  0.67016315345E+01 -0.15258100912E+02  0.24773984293E+02  0.30148701571E+02  0.41800000000E+01 0.  1.
         -5    1    4    4    0  501  0.16086223447E+03  0.44628003055E+02 -0.96449847511E+02  0.19284284436E+03  0.41800000000E+01 0.  1.
</event>
<event>
11    1  0.6625361E-009  0.1401464E+03  0.7561462E-02  0.1107395E+00
         22   -1    0    0    0    0  0.00000000000E+00  0.00000000000E+00  0.22212982105E+03  0.22212982105E+03  0.00000000000E+00 0.  1.
         22   -1    0    0    0    0 -0.00000000000E+00 -0.00000000000E+00 -0.14432318203E+04  0.14432318203E+04  0.00000000000E+00 0. -1.
        -24    2    1    2    0    0 -0.25144165929E+02  0.39534902521E+02 -0.11653429567E+04  0.11690567667E+04  0.80462907892E+02 0.  0.
         25    2    1    2    0    0 -0.28836432220E+02 -0.29395204010E+01 -0.24732608435E+03  0.27867212209E+03  0.12509108292E+03 0.  0.
         24    2    1    2    0    0  0.53980598149E+02 -0.36595382120E+02  0.19156704179E+03  0.21763275252E+03  0.80080937175E+02 0.  0.
        -13    1    5    5    0    0  0.71282263264E+02 -0.44729673819E+02  0.15686487980E+03  0.17801262677E+03  0.00000000000E+00 0.  1.
         14    1    5    5    0    0 -0.17301665115E+02  0.81342916985E+01  0.34702161995E+02  0.39620125748E+02  0.00000000000E+00 0. -1.
         13    1    3    3    0    0 -0.79769587682E+01 -0.20965709028E+02 -0.56146803922E+03  0.56191596515E+03  0.00000000000E+00 0. -1.
        -14    1    3    3    0    0 -0.17167207161E+02  0.60500611550E+02 -0.60387491746E+03  0.60714080158E+03  0.00000000000E+00 0.  1.
          5    1    4    4  501    0 -0.24774471934E+02 -0.56358203470E+02 -0.19145822991E+03  0.20115602839E+03  0.41800000000E+01 0. -1.
         -5    1    4    4    0  501 -0.40619602857E+01  0.53418683069E+02 -0.55867854442E+02  0.77516093698E+02  0.41800000000E+01 0. -1.
</event>
<event>
11    1  0.6625361E-009  0.1305782E+03  0.7561462E-02  0.1118561E+00
         22   -1    0    0    0    0  0.00000000000E+00  0.00000000000E+00  0.10626685561E+04  0.10626685561E+04  0.00000000000E+00 0.  1.
         22   -1    0    0    0    0 -0.00000000000E+00 -0.00000000000E+00 -0.14186193137E+03  0.14186193137E+03  0.00000000000E+00 0.  1.
         24    2    1    2    0    0 -0.36460847077E+02  0.10289182262E+02 -0.11551592698E+03  0.14421915469E+03  0.77588494981E+02 0.  0.
         25    2    1    2    0    0 -0.93553969648E+01  0.16928010106E+02  0.58900507312E+03  0.60245242742E+03  0.12509144721E+03 0.  0.
        -24    2    1    2    0    0  0.45816244041E+02 -0.27217192368E+02  0.44731747859E+03  0.45785890536E+03  0.81865418742E+02 0.  0.
        -13    1    3    3    0    0  0.43340164456E+01 -0.28812235529E+02 -0.30909297824E+02  0.42477209263E+02  0.00000000000E+00 0.  1.
         14    1    3    3    0    0 -0.40794863522E+02  0.39101417791E+02 -0.84606629152E+02  0.10174194543E+03  0.00000000000E+00 0. -1.
         11    1    5    5    0    0 -0.64754153152E+01 -0.18165364289E+02  0.22052656347E+02  0.29295581838E+02  0.00000000000E+00 0. -1.
        -12    1    5    5    0    0  0.52291659357E+02 -0.90518280787E+01  0.42526482225E+03  0.42856332352E+03  0.00000000000E+00 0.  1.
          5    1    4    4  501    0 -0.43349842898E+02 -0.21404202819E+02  0.47405131824E+03  0.47652856525E+03  0.41800000000E+01 0.  1.
         -5    1    4    4    0  501  0.33994445934E+02  0.38332212925E+02  0.11495375488E+03  0.12592386216E+03  0.41800000000E+01 0.  1.
</event>
<event>
11    1  0.6625361E-009  0.1955780E+03  0.7561462E-02  0.1057695E+00
         22   -1    0    0    0    0  0.00000000000E+00  0.00000000000E+00  0.58114875325E+03  0.58114875325E+03  0.00000000000E+00 0. -1.
         22   -1    0    0    0    0 -0.00000000000E+00 -0.00000000000E+00 -0.18745657675E+03  0.18745657675E+03  0.00000000000E+00 0.  1.
        -24    2    1    2    0    0  0.20006494661E+02 -0.27487529459E+01 -0.67128258087E+02  0.10728371124E+03  0.81214384142E+02 0.  0.
         25    2    1    2    0    0 -0.44685850377E+01  0.15213143427E+03  0.31065999793E+02  0.19945110450E+03  0.12510677519E+03 0.  0.
         24    2    1    2    0    0 -0.15537909624E+02 -0.14938268133E+03  0.42975443480E+03  0.46187051426E+03  0.77967208505E+02 0.  0.
        -13    1    5    5    0    0  0.59376049538E+01 -0.13070039052E+03  0.27521178135E+03  0.30472835744E+03  0.00000000000E+00 0.  1.
         14    1    5    5    0    0 -0.21475514577E+02 -0.18682290804E+02  0.15454265345E+03  0.15714215682E+03  0.00000000000E+00 0. -1.
         13    1    3    3    0    0  0.81903035665E+01  0.30166890687E+02  0.37258449163E+00  0.31261176968E+02  0.00000000000E+00 0. -1.
        -14    1    3    3    0    0  0.11816191095E+02 -0.32915643633E+02 -0.67500842578E+02  0.76022534268E+02  0.00000000000E+00 0.  1.
          5    1    4    4  501    0 -0.27682352382E+02  0.49491115292E+01  0.41188228520E+02  0.50047466539E+02  0.41800000000E+01 0. -1.
         -5    1    4    4    0  501  0.23213767344E+02  0.14718232274E+03 -0.10122228727E+02  0.14940363796E+03  0.41800000000E+01 0. -1.
</event>
<event>
11    1  0.6625361E-009  0.1430765E+03  0.7561462E-02  0.1104171E+00
         22   -1    0    0    0    0  0.00000000000E+00  0.00000000000E+00  0.27756896966E+03  0.27756896966E+03  0.00000000000E+00 0. -1.
         22   -1    0    0    0    0 -0.00000000000E+00 -0.00000000000E+00 -0.13482407028E+04  0.13482407028E+04  0.00000000000E+00 0. -1.
         24    2    1    2    0    0  0.61355308434E+02  0.26515949485E+02 -0.11754348524E+04  0.11801003150E+04  0.80759468271E+02 0.  0.
         25    2    1    2    0    0 -0.12818842203E+03 -0.23484335532E+02 -0.10664267844E+03  0.20976981573E+03  0.12508768592E+03 0.  0.
        -24    2    1    2    0    0  0.66833113598E+02 -0.30316139523E+01  0.21140579772E+03  0.23593954172E+03  0.80617617696E+02 0.  0.
        -11    1    3    3    0    0 -0.17357407185E+02 -0.11519582933E+01 -0.35703344230E+03  0.35745697016E+03  0.00000000000E+00 0.  1.
         12    1    3    3    0    0  0.78712715619E+02  0.27667907778E+02 -0.81840141008E+03  0.82264334480E+03  0.00000000000E+00 0. -1.
         11    1    5    5    0    0  0.82777618910E+02  0.21581054163E+01  0.14057093759E+03  0.16314711186E+03  0.00000000000E+00 0. -1.
        -12    1    5    5    0    0 -0.15944505313E+02 -0.51897193686E+01  0.70834860126E+02  0.72792429866E+02  0.00000000000E+00 0.  1.
          5    1    4    4  501    0 -0.10930596832E+03 -0.70197609687E+02 -0.80011984976E+02  0.15262663351E+03  0.41800000000E+01 0.  1.
         -5    1    4    4    0  501 -0.18882453712E+02  0.46713274155E+02 -0.26630693462E+02  0.57143182224E+02  0.41800000000E+01 0.  1.
</event>
<event>
11    1  0.6625361E-009  0.1506214E+03  0.7561462E-02  0.1096246E+00
         22   -1    0    0    0    0  0.00000000000E+00  0.00000000000E+00  0.54217496647E+03  0.54217496647E+03  0.00000000000E+00 0. -1.
         22   -1    0    0    0    0 -0.00000000000E+00 -0.00000000000E+00 -0.27267699988E+03  0.27267699988E+03  0.00000000000E+00 0. -1.
         24    2    1    2    0    0  0.38509611787E+02 -0.74595242328E+02 -0.19311324147E+03  0.22541085887E+03  0.80435631953E+02 0.  0.
         25    2    1    2    0    0 -0.47180619545E+02  0.69653747252E+02  0.35563269735E+02  0.15488620268E+03  0.12508930514E+03 0.  0.
        -24    2    1    2    0    0  0.86710077581E+01  0.49414950769E+01  0.42704793832E+03  0.43455490479E+03  0.79802374035E+02 0.  0.
        -13    1    3    3    0    0  0.17862711343E+02 -0.24839495690E+02 -0.66335606713E+01  0.31306247457E+02  0.00000000000E+00 0.  1.
         14    1    3    3    0    0  0.20646900445E+02 -0.49755746639E+02 -0.18647968080E+03  0.19410461141E+03  0.00000000000E+00 0. -1.
         11    1    5    5    0    0  0.26605124578E+01  0.16209983372E+02  0.41929070031E+03  0.41961236070E+03  0.00000000000E+00 0. -1.
        -12    1    5    5    0    0  0.60104953003E+01 -0.11268488295E+02  0.77572380125E+01  0.14942544087E+02  0.00000000000E+00 0.  1.
          5    1    4    4  501    0  0.15432115305E+02 -0.29342165385E+02  0.10510704632E+02  0.35029418552E+02  0.41800000000E+01 0.  1.
         -5    1    4    4    0  501 -0.62612734850E+02  0.98995912637E+02  0.25052565104E+02  0.11985678413E+03  0.41800000000E+01 0.  1.
</event>
<event>
11    1  0.6625361E-009  0.1842682E+03  0.7561462E-02  0.1066242E+00
         22   -1    0    0    0    0  0.00000000000E+00  0.00000000000E+00  0.49026994220E+04  0.49026994220E+04  0.00000000000E+00 0.  1.
         22   -1    0    0    0    0 -0.00000000000E+00 -0.00000000000E+00 -0.12053250228E+03  0.12053250228E+03  0.00000000000E+00 0. -1.
        -24    2    1    2    0    0 -0.10727601130E+03  0.16547474947E+02 -0.67764667875E+02  0.15129892757E+03  0.80730129096E+02 0.  0.
         25    2    1    2    0    0  0.18364723837E+02  0.99810141274E+02  0.68290234718E+03  0.70164371142E+03  0.12509578173E+03 0.  0.
         24    2    1    2    0    0  0.88911287461E+02 -0.11635761622E+03  0.41670292404E+04  0.41702892853E+04  0.75734541203E+02 0.  0.
        -11    1    5    5    0    0  0.61150688283E+02 -0.90409614507E+02  0.37343143527E+04  0.37359091250E+04  0.00000000000E+00 0.  1.
         12    1    5    5    0    0  0.27760599177E+02 -0.25948001713E+02  0.43271488764E+03  0.43438016028E+03  0.00000000000E+00 0. -1.
         11    1    3    3    0    0 -0.10217397230E+03  0.34807333298E+02 -0.74527707464E+02  0.13116954771E+03  0.00000000000E+00 0. -1.
        -12    1    3    3    0    0 -0.51020389975E+01 -0.18259858351E+02  0.67630395886E+01  0.20129379857E+02  0.00000000000E+00 0.  1.
          5    1    4    4  501    0  0.68457849338E+02  0.83884518021E+02  0.46060176990E+03  0.47317497010E+03  0.41800000000E+01 0. -1.
         -5    1    4    4    0  501 -0.50093125501E+02  0.15925623253E+02  0.22230057728E+03  0.22846874132E+03  0.41800000000E+01 0. -1.
</event>
<event>
11    1  0.6625361E-009  0.2171948E+03  0.7561462E-02  0.1042989E+00
         22   -1    0    0    0    0  0.00000000000E+00  0.00000000000E+00  0.37210189671E+04  0.37210189671E+04  0.00000000000E+00 0. -1.
         22   -1    0    0    0    0 -0.00000000000E+00 -0.00000000000E+00 -0.47299251748E+03  0.47299251748E+03  0.00000000000E+00 0. -1.
         24    2    1    2    0    0  0.38010584087E+02 -0.12738705108E+03 -0.43441189555E+03  0.46135183514E+03  0.80371360015E+02 0.  0.
         25    2    1    2    0    0 -0.20395223470E+03  0.15832083660E+03  0.92317726489E+03  0.96672879640E+03  0.12508517919E+03 0.  0.
        -24    2    1    2    0    0  0.16594165061E+03 -0.30933785528E+02  0.27592610803E+04  0.27659308531E+04  0.91423433160E+02 0.  0.
        -11    1    3    3    0    0 -0.23570254775E+02 -0.24544166797E+02 -0.72134885730E+02  0.79758477752E+02  0.00000000000E+00 0.  1.
         12    1    3    3    0    0  0.61580838863E+02 -0.10284288428E+03 -0.36227700982E+03  0.38159335739E+03  0.00000000000E+00 0. -1.
         11    1    5    5    0    0  0.95152572605E+02  0.11945696364E+02  0.19722131487E+04  0.19745433436E+04  0.00000000000E+00 0. -1.
        -12    1    5    5    0    0  0.70789078004E+02 -0.42879481892E+02  0.78704793160E+03  0.79138750949E+03  0.00000000000E+00 0.  1.
          5    1    4    4  501    0 -0.85124505136E+02  0.72056669868E+02  0.20236657893E+03  0.23110181678E+03  0.41800000000E+01 0.  1.
         -5    1    4    4    0  501 -0.11882772956E+03  0.86264166736E+02  0.72081068595E+03  0.73562697963E+03  0.41800000000E+01 0.  1.
</event>
<event>
11    1  0.6625361E-009  0.1430128E+03  0.7561462E-02  0.1104240E+00
         22   -1    0    0    0    0  0.00000000000E+00  0.00000000000E+00  0.12993205154E+03  0.12993205154E+03  0.00000000000E+00 0.  1.
         22   -1    0    0    0    0 -0.00000000000E+00 -0.00000000000E+00 -0.28103423395E+04  0.28103423395E+04  0.00000000000E+00 0. -1.
        -24    2    1    2    0    0  0.15257113721E+02 -0.25684364504E+02 -0.26850944806E+04  0.26864197754E+04  0.78907375161E+02 0.  0.
         25    2    1    2    0    0 -0.69333513006E+02  0.48087815679E+02  0.10087059547E+02  0.15121332694E+03  0.12507656627E+03 0.  0.
         24    2    1    2    0    0  0.54076399285E+02 -0.22403451175E+02 -0.54028668995E+01  0.10264128869E+03  0.84141972816E+02 0.  0.
        -13    1    5    5    0    0  0.35567003793E+02 -0.38870037640E+02  0.29081939484E+02  0.60180152784E+02  0.00000000000E+00 0.  1.
         14    1    5    5    0    0  0.18509395492E+02  0.16466586465E+02 -0.34484806383E+02  0.42461135908E+02  0.00000000000E+00 0. -1.
         13    1    3    3    0    0 -0.25375276969E+02 -0.27368379809E+02 -0.78120990746E+03  0.78210092214E+03  0.00000000000E+00 0. -1.
        -14    1    3    3    0    0  0.40632390689E+02  0.16840153054E+01 -0.19038845731E+04  0.19043188533E+04  0.00000000000E+00 0.  1.
          5    1    4    4  501    0 -0.94713730226E+01 -0.39286573378E+02 -0.13144017968E+02  0.42701046393E+02  0.41800000000E+01 0.  1.
         -5    1    4    4    0  501 -0.59862139983E+02  0.87374389057E+02  0.23231077515E+02  0.10851228054E+03  0.41800000000E+01 0.  1.
</event>
<event>
11    1  0.6625361E-009  0.1716501E+03  0.7561462E-02  0.1076605E+00
         22   -1    0    0    0    0  0.00000000000E+00  0.00000000000E+00  0.60661898642E+03  0.60661898642E+03  0.00000000000E+00 0. -1.
         22   -1    0    0    0    0 -0.00000000000E+00 -0.00000000000E+00 -0.78472232106E+03  0.78472232106E+03  0.00000000000E+00 0.  1.
        -24    2    1    2    0    0  0.36113933615E+02 -0.91152695889E+02 -0.68385141202E+03  0.69536930875E+03  0.79200326150E+02 0.  0.
         25    2    1    2    0    0 -0.73495161074E+02 -0.28824937046E+02 -0.20197331826E+02  0.14929102858E+03  0.12508982094E+03 0.  0.
         24    2    1    2    0    0  0.37381227460E+02  0.11997763294E+03  0.52594540921E+03  0.54668097014E+03  0.80308910300E+02 0.  0.
        -11    1    5    5    0    0  0.35537262118E+02  0.63450576483E+02  0.15222038023E+03  0.16870067223E+03  0.00000000000E+00 0.  1.
         12    1    5    5    0    0  0.18439653413E+01  0.56527056453E+02  0.37372502898E+03  0.37798029791E+03  0.00000000000E+00 0. -1.
         13    1    3    3    0    0  0.13123261067E+02 -0.81641584218E+02 -0.31476323943E+03  0.32544348995E+03  0.00000000000E+00 0. -1.
        -14    1    3    3    0    0  0.22990672548E+02 -0.95111116716E+01 -0.36908817260E+03  0.36992581881E+03  0.00000000000E+00 0.  1.
          5    1    4    4  501    0 -0.72671802519E+02 -0.11610944094E+02  0.41846919622E+02  0.84762267466E+02  0.41800000000E+01 0.  1.
         -5    1    4    4    0  501 -0.82335855511E+00 -0.17213992953E+02 -0.62044251449E+02  0.64528761111E+02  0.41800000000E+01 0.  1.
</event>
<event>
11    1  0.6625361E-009  0.2904098E+03  0.7561462E-02  0.1004334E+00
         22   -1    0    0    0    0  0.00000000000E+00  0.00000000000E+00  0.69243780717E+03  0.69243780717E+03  0.00000000000E+00 0.  1.
         22   -1    0    0    0    0 -0.00000000000E+00 -0.00000000000E+00 -0.35915386090E+03  0.35915386090E+03  0.00000000000E+00 0.  1.
        -24    2    1    2    0    0  0.71728603876E+02 -0.45197089129E+00 -0.14064009252E+03  0.17634247515E+03  0.78561033768E+02 0.  0.
         25    2    1    2    0    0  0.22119133509E+02  0.24948826704E+03 -0.47860737848E+02  0.28402825345E+03  0.12509095521E+03 0.  0.
         24    2    1    2    0    0 -0.93847737385E+02 -0.24903629615E+03  0.52178477664E+03  0.59122093946E+03  0.80351549503E+02 0.  0.
        -13    1    5    5    0    0 -0.81920664262E+02 -0.15374378658E+03  0.39874372958E+03  0.43513757482E+03  0.00000000000E+00 0.  1.
         14    1    5    5    0    0 -0.11927073124E+02 -0.95292509570E+02  0.12304104706E+03  0.15608336463E+03  0.00000000000E+00 0. -1.
         13    1    3    3    0    0  0.43722097509E+02 -0.10259833496E+02 -0.15157142888E+02  0.47398575659E+02  0.00000000000E+00 0. -1.
        -14    1    3    3    0    0  0.28006506367E+02  0.98078626048E+01 -0.12548294963E+03  0.12894389949E+03  0.00000000000E+00 0.  1.
          5    1    4    4  501    0 -0.95494119761E+01  0.18091082403E+03  0.20113992839E+02  0.18232378514E+03  0.41800000000E+01 0.  1.
         -5    1    4    4    0  501  0.31668545486E+02  0.68577443006E+02 -0.67974730687E+02  0.10170446831E+03  0.41800000000E+01 0.  1.
</event>
<event>
11    1  0.6625361E-009  0.1390075E+03  0.7561462E-02  0.1108672E+00
         22   -1    0    0    0    0  0.00000000000E+00  0.00000000000E+00  0.54013898859E+03  0.54013898859E+03  0.00000000000E+00 0. -1.
         22   -1    0    0    0    0 -0.00000000000E+00 -0.00000000000E+00 -0.27184724659E+03  0.27184724659E+03  0.00000000000E+00 0. -1.
         24    2    1    2    0    0  0.35101029547E+00 -0.59191239194E+02 -0.15899810947E+03  0.18716427435E+03  0.79033795131E+02 0.  0.
         25    2    1    2    0    0  0.11186648317E+02  0.11471485015E+03 -0.13509947719E+02  0.17062498332E+03  0.12508288571E+03 0.  0.
        -24    2    1    2    0    0 -0.11537658612E+02 -0.55523610958E+02  0.44079979919E+03  0.45419697752E+03  0.93671994102E+02 0.  0.
        -11    1    3    3    0    0  0.19769627722E+02 -0.17984587205E+02 -0.58148888275E+01  0.27351352604E+02  0.00000000000E+00 0.  1.
         12    1    3    3    0    0 -0.19418617426E+02 -0.41206651988E+02 -0.15318322064E+03  0.15981292175E+03  0.00000000000E+00 0. -1.
         11    1    5    5    0    0  0.48782158265E+01  0.19990407828E+02  0.20560147436E+03  0.20662860318E+03  0.00000000000E+00 0. -1.
        -12    1    5    5    0    0 -0.16415874439E+02 -0.75514018786E+02  0.23519832483E+03  0.24756837433E+03  0.00000000000E+00 0.  1.
          5    1    4    4  501    0 -0.86068773769E+01  0.13847964004E+03 -0.91287798580E+01  0.13910965483E+03  0.41800000000E+01 0.  1.
         -5    1    4    4    0  501  0.19793525694E+02 -0.23764789891E+02 -0.43811678610E+01  0.31515328489E+02  0.41800000000E+01 0.  1.
</event>
<event>
11    1  0.6625361E-009  0.1319996E+03  0.7561462E-02  0.1116836E+00
         22   -1    0    0    0    0  0.00000000000E+00  0.00000000000E+00  0.61628900758E+03  0.61628900758E+03  0.00000000000E+00 0.  1.
         22   -1    0    0    0    0 -0.00000000000E+00 -0.00000000000E+00 -0.11728991083E+04  0.11728991083E+04  0.00000000000E+00 0. -1.
         24    2    1    2    0    0  0.33000068364E+02  0.30746762554E+02 -0.94237346242E+03  0.94687133639E+03  0.80394135825E+02 0.  0.
         25    2    1    2    0    0 -0.61440459843E+02 -0.60479930320E+02 -0.19728613432E+03  0.24900040372E+03  0.12508649080E+03 0.  0.
        -24    2    1    2    0    0  0.28440391479E+02  0.29733167765E+02  0.58304949600E+03  0.59331637579E+03  0.10190529853E+03 0.  0.
        -13    1    3    3    0    0  0.46056609493E+02 -0.17359169009E+01 -0.29756266186E+03  0.30111088061E+03  0.00000000000E+00 0.  1.
         14    1    3    3    0    0 -0.13056541129E+02  0.32482679455E+02 -0.64481080056E+03  0.64576045578E+03  0.00000000000E+00 0. -1.
         13    1    5    5    0    0 -0.20718310601E+02  0.26112834145E+02  0.66169587353E+02  0.74091448843E+02  0.00000000000E+00 0. -1.
        -14    1    5    5    0    0  0.49158702079E+02  0.36203336200E+01  0.51687990864E+03  0.51922492695E+03  0.00000000000E+00 0.  1.
          5    1    4    4  501    0 -0.38819990866E+02  0.32204029252E+02 -0.38031579283E+02  0.63308487690E+02  0.41800000000E+01 0.  1.
         -5    1    4    4    0  501 -0.22620468977E+02 -0.92683959571E+02 -0.15925455503E+03  0.18569191603E+03  0.41800000000E+01 0.  1.
</event>
<event>
11    1  0.6625361E-009  0.1321799E+03  0.7561462E-02  0.1116619E+00
         22   -1    0    0    0    0  0.00000000000E+00  0.00000000000E+00  0.41168260262E+03  0.41168260262E+03  0.00000000000E+00 0. -1.
         22   -1    0    0    0    0 -0.00000000000E+00 -0.00000000000E+00 -0.96764099740E+03  0.96764099740E+03  0.00000000000E+00 0. -1.
        -24    2    1    2    0    0  0.30706848948E+02 -0.29554030310E+02 -0.90379107982E+03  0.90821443298E+03  0.78732388700E+02 0.  0.
         25    2    1    2    0    0 -0.26913101795E+02  0.37323179167E+02  0.21701128045E+02  0.13504509236E+03  0.12509557651E+03 0.  0.
         24    2    1    2    0    0 -0.37937471535E+01 -0.77691488561E+01  0.32613155700E+03  0.33606407468E+03  0.80638189608E+02 0.  0.
        -13    1    5    5    0    0  0.65299591901E+01 -0.43440955856E+02  0.17175012739E+03  0.17727905480E+03  0.00000000000E+00 0.  1.
         14    1    5    5    0    0 -0.10323706344E+02  0.35671807000E+02  0.15438142961E+03  0.15878501988E+03  0.00000000000E+00 0. -1.
         11    1    3    3    0    0  0.47336315108E+02  0.26341761392E+01 -0.66530570214E+03  0.66699276077E+03  0.00000000000E+00 0. -1.
        -12    1    3    3    0    0 -0.16629466159E+02 -0.32188206450E+02 -0.23848537767E+03  0.24122167221E+03  0.00000000000E+00 0.  1.
          5    1    4    4  501    0  0.82526755265E+01  0.77447908093E+02  0.23610909409E+02  0.81493757825E+02  0.41800000000E+01 0.  1.
         -5    1    4    4    0  501 -0.35165777321E+02 -0.40124728927E+02 -0.19097813645E+01  0.53551334539E+02  0.41800000000E+01 0.  1.
</event>
<event>
11    1  0.6625361E-009  0.1405421E+03  0.7561462E-02  0.1106955E+00
         22   -1    0    0    0    0  0.00000000000E+00  0.00000000000E+00  0.89228449368E+03  0.89228449368E+03  0.00000000000E+00 0.  1.
         22   -1    0    0    0    0 -0.00000000000E+00 -0.00000000000E+00 -0.32288698482E+03  0.32288698482E+03  0.00000000000E+00 0. -1.
         24    2    1    2    0    0 -0.39040046808E+02 -0.52273883210E+02 -0.28545405990E+03  0.30318576301E+03  0.78618715690E+02 0.  0.
         25    2    1    2    0    0 -0.20074039163E+02  0.61456917007E+02  0.17470892705E+03  0.22438263341E+03  0.12507772500E+03 0.  0.
        -24    2    1    2    0    0  0.59114085971E+02 -0.91830337979E+01  0.68014264171E+03  0.68760308207E+03  0.81395221769E+02 0.  0.
        -11    1    3    3    0    0 -0.33819567167E+02  0.10868449474E+02 -0.68408381294E+02  0.77081729020E+02  0.00000000000E+00 0.  1.
         12    1    3    3    0    0 -0.52204796415E+01 -0.63142332684E+02 -0.21704567861E+03  0.22610403399E+03  0.00000000000E+00 0. -1.
         11    1    5    5    0    0  0.96185284562E+01  0.28573936084E+02  0.10949879546E+03  0.11357364184E+03  0.00000000000E+00 0. -1.
        -12    1    5    5    0    0  0.49495557515E+02 -0.37756969882E+02  0.57064384625E+03  0.57402944023E+03  0.00000000000E+00 0.  1.
          5    1    4    4  501    0 -0.43221911745E+01 -0.38662321044E+02  0.42950939377E+02  0.58100877777E+02  0.41800000000E+01 0. -1.
         -5    1    4    4    0  501 -0.15751847988E+02  0.10011923805E+03  0.13175798767E+03  0.16628175564E+03  0.41800000000E+01 0. -1.
</event>
<event>
11    1  0.6625361E-009  0.1331539E+03  0.7561462E-02  0.1115453E+00
         22   -1    0    0    0    0  0.00000000000E+00  0.00000000000E+00  0.71210989364E+02  0.71210989364E+02  0.00000000000E+00 0.  1.
         22   -1    0    0    0    0 -0.00000000000E+00 -0.00000000000E+00 -0.30590134075E+04  0.30590134075E+04  0.00000000000E+00 0.  1.
        -24    2    1    2    0    0  0.29444643746E+02  0.46103617744E+02 -0.18702243742E+04  0.18728571334E+04  0.82837804723E+02 0.  0.
         25    2    1    2    0    0 -0.27390130049E+02 -0.62467691097E+01 -0.11539440225E+04  0.11610442617E+04  0.12509088447E+03 0.  0.
         24    2    1    2    0    0 -0.20545136967E+01 -0.39856848634E+02  0.36365978505E+02  0.96323001691E+02  0.79767454845E+02 0.  0.
        -13    1    5    5    0    0  0.20539793739E+02 -0.14214961719E+02  0.52792806170E+02  0.58404012249E+02  0.00000000000E+00 0.  1.
         14    1    5    5    0    0 -0.22594307436E+02 -0.25641886915E+02 -0.16426827665E+02  0.37918989441E+02  0.00000000000E+00 0. -1.
         13    1    3    3    0    0 -0.17890673233E+02 -0.13771020450E+02 -0.36296300046E+03  0.36366448396E+03  0.00000000000E+00 0. -1.
        -14    1    3    3    0    0  0.47335316978E+02  0.59874638194E+02 -0.15072613737E+04  0.15091926495E+04  0.00000000000E+00 0.  1.
          5    1    4    4  501    0  0.46618899354E+02  0.13332295546E+02 -0.57297295036E+03  0.57503612593E+03  0.41800000000E+01 0. -1.
         -5    1    4    4    0  501 -0.74009029403E+02 -0.19579064656E+02 -0.58097107211E+03  0.58600813580E+03  0.41800000000E+01 0. -1.
</event>
<event>
11    1  0.6625361E-009  0.1493208E+03  0.7561462E-02  0.1097575E+00
         22   -1    0    0    0    0  0.00000000000E+00  0.00000000000E+00  0.56910503784E+03  0.56910503784E+03  0.00000000000E+00 0.  1.
         22   -1    0    0    0    0 -0.00000000000E+00 -0.00000000000E+00 -0.15182722509E+03  0.15182722509E+03  0.00000000000E+00 0. -1.
        -24    2    1    2    0    0  0.29105910555E+02 -0.83064777776E+02 -0.49452244907E+02  0.13003390658E+03  0.81953529502E+02 0.  0.
         25    2    1    2    0    0 -0.65557264062E+02  0.42669409928E+02  0.39485896162E+02  0.15272395423E+03  0.12508811608E+03 0.  0.
         24    2    1    2    0    0  0.36451353507E+02  0.40395367849E+02  0.42724416149E+03  0.43817440212E+03  0.80614801528E+02 0.  0.
        -13    1    5    5    0    0  0.24582319987E+02  0.58283357603E+01  0.36587805077E+03  0.36674924402E+03  0.00000000000E+00 0.  1.
         14    1    5    5    0    0  0.11869033520E+02  0.34567032088E+02  0.61366110723E+02  0.71425158098E+02  0.00000000000E+00 0. -1.
         13    1    3    3    0    0  0.27630191900E+02 -0.36060391028E+02  0.17101934154E+02  0.48541275811E+02  0.00000000000E+00 0. -1.
        -14    1    3    3    0    0  0.14757186554E+01 -0.47004386748E+02 -0.66554179061E+02  0.81492630769E+02  0.00000000000E+00 0.  1.
          5    1    4    4  501    0 -0.53494502793E+02 -0.28723921610E+02  0.50855300893E+02  0.79312417253E+02  0.41800000000E+01 0.  1.
         -5    1    4    4    0  501 -0.12062761269E+02  0.71393331538E+02 -0.11369404731E+02  0.73411536978E+02  0.41800000000E+01 0.  1.
</event>
<event>
11    1  0.6625361E-009  0.1622719E+03  0.7561462E-02  0.1084960E+00
         22   -1    0    0    0    0  0.00000000000E+00  0.00000000000E+00  0.72806868947E+03  0.72806868947E+03  0.00000000000E+00 0. -1.
         22   -1    0    0    0    0 -0.00000000000E+00 -0.00000000000E+00 -0.11164929250E+04  0.11164929250E+04  0.00000000000E+00 0. -1.
         24    2    1    2    0    0  0.18067948902E+02  0.10233054667E+03 -0.10503566072E+04  0.10585060676E+04  0.79925598093E+02 0.  0.
         25    2    1    2    0    0 -0.65524351664E+01 -0.90371384482E+02  0.40619227008E+02  0.15970458590E+03  0.12508281903E+03 0.  0.
        -24    2    1    2    0    0 -0.11515513735E+02 -0.11959162183E+02  0.62131314470E+03  0.62635096097E+03  0.77523376606E+02 0.  0.
        -11    1    3    3    0    0  0.27854006768E+02  0.20355970112E+02 -0.13157105456E+03  0.13601894578E+03  0.00000000000E+00 0.  1.
         12    1    3    3    0    0 -0.97860578659E+01  0.81974576553E+02 -0.91878555267E+03  0.92248712182E+03  0.00000000000E+00 0. -1.
         13    1    5    5    0    0 -0.42867549815E+02 -0.22290239040E+01  0.25682711475E+03  0.26038963545E+03  0.00000000000E+00 0. -1.
        -14    1    5    5    0    0  0.31352036079E+02 -0.97301382790E+01  0.36448602994E+03  0.36596132553E+03  0.00000000000E+00 0.  1.
          5    1    4    4  501    0 -0.10751190660E+02 -0.32288858902E+02 -0.44691204200E+02  0.56328808283E+02  0.41800000000E+01 0. -1.
         -5    1    4    4    0  501  0.41987554934E+01 -0.58082525581E+02  0.85310431208E+02  0.10337577762E+03  0.41800000000E+01 0. -1.
</event>
<event>
11    1  0.6698508E-009  0.1516089E+03  0.7561462E-02  0.1095246E+00
         22   -1    0    0    0    0  0.00000000000E+00  0.00000000000E+00  0.49576338778E+03  0.49576338778E+03  0.00000000000E+00 0.  1.
         22   -1    0    0    0    0 -0.00000000000E+00 -0.00000000000E+00 -0.29263981508E+03  0.29263981508E+03  0.00000000000E+00 0.  1.
        -24    2    1    2    0    0  0.76904088461E+02  0.13312362984E+02 -0.21569364667E+03  0.24336448831E+03  0.81308468984E+02 0.  0.
         25    2    1    2    0    0  0.19803618424E+02 -0.24114672022E+02  0.24779822111E+02  0.13127969637E+03  0.12508644365E+03 0.  0.
         24    2    1    2    0    0 -0.96707706885E+02  0.10802309038E+02  0.39403739726E+03  0.41375901819E+03  0.80386468024E+02 0.  0.
        -11    1    5    5    0    0 -0.10253987961E+03  0.29438710458E+02  0.33479314848E+03  0.35137944854E+03  0.00000000000E+00 0.  1.
         12    1    5    5    0    0  0.58321727253E+01 -0.18636401420E+02  0.59244248775E+02  0.62379569649E+02  0.00000000000E+00 0. -1.
         13    1    3    3    0    0  0.51607052499E+02 -0.10767340324E+02 -0.45542483724E+02  0.69665926456E+02  0.00000000000E+00 0. -1.
        -14    1    3    3    0    0  0.25297035963E+02  0.24079703307E+02 -0.17015116294E+03  0.17369856186E+03  0.00000000000E+00 0.  1.
          5    1    4    4  501    0  0.19769525292E+02  0.38884798704E+02  0.47080745427E+02  0.64318976131E+02  0.41800000000E+01 0.  1.
         -5    1    4    4    0  501  0.34093131958E-01 -0.62999470727E+02 -0.22300923316E+02  0.66960720239E+02  0.41800000000E+01 0.  1.
</event>
<event>
11    1  0.6625361E-009  0.3047028E+03  0.7561462E-02  0.9982203E-01
         22   -1    0    0    0    0  0.00000000000E+00  0.00000000000E+00  0.22868057257E+04  0.22868057257E+04  0.00000000000E+00 0.  1.
         22   -1    0    0    0    0 -0.00000000000E+00 -0.00000000000E+00 -0.48172246380E+03  0.48172246380E+03  0.00000000000E+00 0. -1.
        -24    2    1    2    0    0 -0.80955321368E+02  0.27275717814E+03 -0.34375210596E+03  0.45340450896E+03  0.80373478917E+02 0.  0.
         25    2    1    2    0    0  0.43177656338E+02 -0.24643119594E+03  0.15631900385E+03  0.32043234265E+03  0.12509440801E+03 0.  0.
         24    2    1    2    0    0  0.37777665030E+02 -0.26325982200E+02  0.19925163641E+04  0.19946913379E+04  0.80943580511E+02 0.  0.
        -11    1    5    5    0    0  0.58476406721E+02 -0.11250578461E+01  0.10683487108E+04  0.10699484678E+04  0.00000000000E+00 0.  1.
         12    1    5    5    0    0 -0.20698741691E+02 -0.25200924354E+02  0.92416765324E+03  0.92474287009E+03  0.00000000000E+00 0. -1.
         11    1    3    3    0    0 -0.59477925178E+02  0.25212491588E+03 -0.33265861742E+03  0.42162347246E+03  0.00000000000E+00 0. -1.
        -12    1    3    3    0    0 -0.21477396190E+02  0.20632262260E+02 -0.11093488545E+02  0.31781036503E+02  0.00000000000E+00 0.  1.
          5    1    4    4  501    0  0.37462642204E+02 -0.25961715358E+03  0.13688934347E+03  0.29590654056E+03  0.41800000000E+01 0. -1.
         -5    1    4    4    0  501  0.57150141347E+01  0.13185957642E+02  0.19429660384E+02  0.24525802089E+02  0.41800000000E+01 0. -1.
</event>
<event>
11    1  0.6625361E-009  0.1353138E+03  0.7561462E-02  0.1112907E+00
         22   -1    0    0    0    0  0.00000000000E+00  0.00000000000E+00  0.76790119019E+02  0.76790119019E+02  0.00000000000E+00 0.  1.
         22   -1    0    0    0    0 -0.00000000000E+00 -0.00000000000E+00 -0.30148464655E+04  0.30148464655E+04  0.00000000000E+00 0. -1.
        -24    2    1    2    0    0  0.42173879502E+02  0.18188947419E+02 -0.24663647580E+04  0.24680784177E+04  0.79664813626E+02 0.  0.
         25    2    1    2    0    0 -0.90762009811E+02 -0.20590636302E+02 -0.49828317508E+03  0.52210644251E+03  0.12508916024E+03 0.  0.
         24    2    1    2    0    0  0.48588130309E+02  0.24016888828E+01  0.26591586639E+02  0.10145172426E+03  0.84963317731E+02 0.  0.
        -13    1    5    5    0    0  0.33811674478E+01  0.16700972315E+02  0.46878594502E+02  0.49879428545E+02  0.00000000000E+00 0.  1.
         14    1    5    5    0    0  0.45206962861E+02 -0.14299283432E+02 -0.20287007862E+02  0.51572295719E+02  0.00000000000E+00 0. -1.
         11    1    3    3    0    0  0.71944397154E+01  0.26913682284E+02 -0.20405818342E+04  0.20407719932E+04  0.00000000000E+00 0. -1.
        -12    1    3    3    0    0  0.34979439787E+02 -0.87247348646E+01 -0.42578292384E+03  0.42730642452E+03  0.00000000000E+00 0.  1.
          5    1    4    4  501    0 -0.77500172991E+02 -0.26237639190E+02 -0.50029987984E+03  0.50696364040E+03  0.41800000000E+01 0.  1.
         -5    1    4    4    0  501 -0.13261836820E+02  0.56470028882E+01  0.20167047584E+01  0.15142802104E+02  0.41800000000E+01 0.  1.
</event>
<event>
11    1  0.6625361E-009  0.1360168E+03  0.7561462E-02  0.1112090E+00
         22   -1    0    0    0    0  0.00000000000E+00  0.00000000000E+00  0.99649716942E+03  0.99649716942E+03  0.00000000000E+00 0. -1.
         22   -1    0    0    0    0 -0.00000000000E+00 -0.00000000000E+00 -0.25611109110E+03  0.25611109110E+03  0.00000000000E+00 0. -1.
         24    2    1    2    0    0  0.51405185112E+02 -0.17771130370E+02 -0.21911167424E+03  0.24113251532E+03  0.84715158187E+02 0.  0.
         25    2    1    2    0    0 -0.34082456163E+02  0.16371176880E+02  0.15385199705E+03  0.20186138430E+03  0.12509177520E+03 0.  0.
        -24    2    1    2    0    0 -0.17322728949E+02  0.13999534900E+01  0.80564575551E+03  0.80961436090E+03  0.78155570511E+02 0.  0.
        -11    1    3    3    0    0  0.13267947740E+02  0.33665937877E+02 -0.68403387556E+02  0.77385122857E+02  0.00000000000E+00 0.  1.
         12    1    3    3    0    0  0.38137237372E+02 -0.51437068248E+02 -0.15070828668E+03  0.16374739247E+03  0.00000000000E+00 0. -1.
         11    1    5    5    0    0 -0.16123220279E+02 -0.22262264025E+02  0.72597901667E+03  0.72649920804E+03  0.00000000000E+00 0. -1.
        -12    1    5    5    0    0 -0.11995086701E+01  0.23662217515E+02  0.79666738841E+02  0.83115152869E+02  0.00000000000E+00 0.  1.
          5    1    4    4  501    0 -0.46784232063E+02  0.23394488774E+02  0.17108186940E+03  0.17894844205E+03  0.41800000000E+01 0. -1.
         -5    1    4    4    0  501  0.12701775899E+02 -0.70233118941E+01 -0.17229872353E+02  0.22912942244E+02  0.41800000000E+01 0. -1.
</event>
<event>
11    1  0.6625361E-009  0.2292750E+03  0.7561462E-02  0.1035558E+00
         22   -1    0    0    0    0  0.00000000000E+00  0.00000000000E+00  0.22354326974E+04  0.22354326974E+04  0.00000000000E+00 0. -1.
         22   -1    0    0    0    0 -0.00000000000E+00 -0.00000000000E+00 -0.17999265483E+03  0.17999265483E+03  0.00000000000E+00 0.  1.
        -24    2    1    2    0    0 -0.82069719535E+02 -0.14520473869E+03 -0.19911030913E+01  0.18506719496E+03  0.80162629433E+02 0.  0.
         25    2    1    2    0    0  0.47860080525E+02  0.27860096731E+03  0.20468767571E+03  0.37074723516E+03  0.12508949394E+03 0.  0.
         24    2    1    2    0    0  0.34209639010E+02 -0.13339622862E+03  0.18527434700E+04  0.18596109221E+04  0.80805711089E+02 0.  0.
        -13    1    5    5    0    0  0.53256454053E+02 -0.56201796744E+02  0.74319623641E+03  0.74721853408E+03  0.00000000000E+00 0.  1.
         14    1    5    5    0    0 -0.19046815043E+02 -0.77194431880E+02  0.11095472336E+04  0.11123923881E+04  0.00000000000E+00 0. -1.
         11    1    3    3    0    0 -0.19114779822E+02 -0.60270373951E+02  0.35960458388E+02  0.72739585861E+02  0.00000000000E+00 0. -1.
        -12    1    3    3    0    0 -0.62954939712E+02 -0.84934364738E+02 -0.37951561480E+02  0.11232760910E+03  0.00000000000E+00 0.  1.
          5    1    4    4  501    0  0.88612446505E+02  0.20863920195E+03  0.16552469625E+03  0.28071049096E+03  0.41800000000E+01 0. -1.
         -5    1    4    4    0  501 -0.40752365980E+02  0.69961765366E+02  0.39162979459E+02  0.90036744200E+02  0.41800000000E+01 0. -1.
</event>
<event>
11    1  0.6625361E-009  0.1425630E+03  0.7561462E-02  0.1104730E+00
         22   -1    0    0    0    0  0.00000000000E+00  0.00000000000E+00  0.28423434246E+02  0.28423434246E+02  0.00000000000E+00 0.  1.
         22   -1    0    0    0    0 -0.00000000000E+00 -0.00000000000E+00 -0.16564593367E+04  0.16564593367E+04  0.00000000000E+00 0.  1.
        -24    2    1    2    0    0  0.17819843984E+02 -0.21807400755E+02 -0.91262425986E+03  0.91638433294E+03  0.78000617945E+02 0.  0.
         25    2    1    2    0    0 -0.69251458896E+02  0.57269103982E+02 -0.57033537200E+03  0.59076786328E+03  0.12509483162E+03 0.  0.
         24    2    1    2    0    0  0.51431614912E+02 -0.35461703227E+02 -0.14507627061E+03  0.17773057474E+03  0.81475698814E+02 0.  0.
        -13    1    5    5    0    0  0.47436865879E+02 -0.60702323985E+02 -0.10593587944E+03  0.13098640744E+03  0.00000000000E+00 0.  1.
         14    1    5    5    0    0  0.39947490333E+01  0.25240620758E+02 -0.39140391166E+02  0.46744167302E+02  0.00000000000E+00 0. -1.
         11    1    3    3    0    0  0.26447934324E+02  0.18884559056E+02 -0.20703978074E+03  0.20957478524E+03  0.00000000000E+00 0. -1.
        -12    1    3    3    0    0 -0.86280903400E+01 -0.40691959811E+02 -0.70558447913E+03  0.70680954770E+03  0.00000000000E+00 0.  1.
          5    1    4    4  501    0 -0.36938307241E+02 -0.83670204434E+01 -0.43670736758E+03  0.43836656222E+03  0.41800000000E+01 0. -1.
         -5    1    4    4    0  501 -0.32313151655E+02  0.65636124425E+02 -0.13362800442E+03  0.15240130106E+03  0.41800000000E+01 0. -1.
</event>
<event>
11    1  0.6625361E-009  0.1363322E+03  0.7561462E-02  0.1111725E+00
         22   -1    0    0    0    0  0.00000000000E+00  0.00000000000E+00  0.41781350240E+03  0.41781350240E+03  0.00000000000E+00 0.  1.
         22   -1    0    0    0    0 -0.00000000000E+00 -0.00000000000E+00 -0.32066559628E+03  0.32066559628E+03  0.00000000000E+00 0.  1.
        -24    2    1    2    0    0  0.78830620777E+01  0.54204133830E+02 -0.21208345858E+03  0.23331816091E+03  0.80360064806E+02 0.  0.
         25    2    1    2    0    0  0.62183476966E+01 -0.52712762152E+02 -0.43947326245E+02  0.14281640817E+03  0.12509138986E+03 0.  0.
         24    2    1    2    0    0 -0.14101409774E+02 -0.14913716773E+01  0.35317869095E+03  0.36234452959E+03  0.79732656017E+02 0.  0.
        -13    1    5    5    0    0 -0.28254269608E+01  0.10731924272E+02  0.34228344673E+03  0.34246330481E+03  0.00000000000E+00 0.  1.
         14    1    5    5    0    0 -0.11275982813E+02 -0.12223295949E+02  0.10895244227E+02  0.19881224787E+02  0.00000000000E+00 0. -1.
         11    1    3    3    0    0  0.82456287284E+01  0.11391575732E+01  0.50889878344E+01  0.97563246298E+01  0.00000000000E+00 0. -1.
        -12    1    3    3    0    0 -0.36256665077E+00  0.53064976256E+02 -0.21717244642E+03  0.22356183628E+03  0.00000000000E+00 0.  1.
          5    1    4    4  501    0  0.50301788453E+02 -0.42047706307E+01 -0.56573333576E+02  0.75933948202E+02  0.41800000000E+01 0. -1.
         -5    1    4    4    0  501 -0.44083440757E+02 -0.48507991522E+02  0.12626007331E+02  0.66882459969E+02  0.41800000000E+01 0. -1.
</event>
<event>
11    1  0.6625361E-009  0.1273152E+03  0.7561462E-02  0.1122612E+00
         22   -1    0    0    0    0  0.00000000000E+00  0.00000000000E+00  0.79781371911E+02  0.79781371911E+02  0.00000000000E+00 0. -1.
         22   -1    0    0    0    0 -0.00000000000E+00 -0.00000000000E+00 -0.72172115061E+03  0.72172115061E+03  0.00000000000E+00 0. -1.
        -24    2    1    2    0    0  0.21712247545E+02  0.16591899859E+02 -0.33840297640E+03  0.34901659524E+03  0.80927723832E+02 0.  0.
         25    2    1    2    0    0  0.10717920032E+02 -0.29643850666E+02 -0.34017933509E+03  0.36381710538E+03  0.12508906608E+03 0.  0.
         24    2    1    2    0    0 -0.32430167576E+02  0.13051950808E+02  0.36642532784E+02  0.88668821904E+02  0.72783346859E+02 0.  0.
        -13    1    5    5    0    0 -0.80260092176E+01  0.37974642654E+00 -0.22258920333E+02  0.23664753659E+02  0.00000000000E+00 0.  1.
         14    1    5    5    0    0 -0.24404158359E+02  0.12672204381E+02  0.58901453117E+02  0.65004068245E+02  0.00000000000E+00 0. -1.
         13    1    3    3    0    0  0.18397953286E+02 -0.58223324604E+01 -0.31782049994E+03  0.31840580149E+03  0.00000000000E+00 0. -1.
        -14    1    3    3    0    0  0.33142942588E+01  0.22414232319E+02 -0.20582476455E+02  0.30610793748E+02  0.00000000000E+00 0.  1.
          5    1    4    4  501    0 -0.15202405344E+02  0.93171023733E+01 -0.30391773888E+03  0.30446902294E+03  0.41800000000E+01 0.  1.
         -5    1    4    4    0  501  0.25920325376E+02 -0.38960953040E+02 -0.36261596204E+02  0.59348082434E+02  0.41800000000E+01 0.  1.
</event>
<event>
11    1  0.6625361E-009  0.1533412E+03  0.7561462E-02  0.1093513E+00
         22   -1    0    0    0    0  0.00000000000E+00  0.00000000000E+00  0.13814662110E+04  0.13814662110E+04  0.00000000000E+00 0. -1.
         22   -1    0    0    0    0 -0.00000000000E+00 -0.00000000000E+00 -0.11871633364E+04  0.11871633364E+04  0.00000000000E+00 0. -1.
         24    2    1    2    0    0  0.35943168791E+02  0.34140447323E+02 -0.11430122613E+04  0.11468317739E+04  0.79300736286E+02 0.  0.
         25    2    1    2    0    0 -0.99606654355E+00 -0.11429610155E+03  0.14346293845E+03  0.22202207622E+03  0.12509035391E+03 0.  0.
        -24    2    1    2    0    0 -0.34947102247E+02  0.80155654224E+02  0.11938521974E+04  0.11997756972E+04  0.80823421180E+02 0.  0.
        -13    1    3    3    0    0 -0.65409943171E+01  0.88819572570E+01 -0.81874900938E+03  0.81882331069E+03  0.00000000000E+00 0.  1.
         14    1    3    3    0    0  0.42484163108E+02  0.25258490066E+02 -0.32426325190E+03  0.32800846325E+03  0.00000000000E+00 0. -1.
         13    1    5    5    0    0 -0.96203152491E+01  0.33121802517E+02  0.92634621863E+03  0.92698809110E+03  0.00000000000E+00 0. -1.
        -14    1    5    5    0    0 -0.25326786998E+02  0.47033851707E+02  0.26750597878E+03  0.27278760607E+03  0.00000000000E+00 0.  1.
          5    1    4    4  501    0 -0.97104207613E+01 -0.75410745657E+02  0.32730578157E+01  0.76218489485E+02  0.41800000000E+01 0. -1.
         -5    1    4    4    0  501  0.87143542177E+01 -0.38885355890E+02  0.14018988063E+03  0.14580358673E+03  0.41800000000E+01 0. -1.
</event>
<event>
11    1  0.6625361E-009  0.1976018E+03  0.7561462E-02  0.1056233E+00
         22   -1    0    0    0    0  0.00000000000E+00  0.00000000000E+00  0.50777754490E+03  0.50777754490E+03  0.00000000000E+00 0. -1.
         22   -1    0    0    0    0 -0.00000000000E+00 -0.00000000000E+00 -0.26666587249E+03  0.26666587249E+03  0.00000000000E+00 0.  1.
         24    2    1    2    0    0 -0.19961073652E+02  0.18324976095E+02 -0.11787572873E+03  0.14527664623E+03  0.80475880261E+02 0.  0.
         25    2    1    2    0    0 -0.13128169198E+03 -0.52228073997E+02 -0.41117480202E+02  0.19313386397E+03  0.12508951944E+03 0.  0.
        -24    2    1    2    0    0  0.15124276563E+03  0.33903097902E+02  0.40010488134E+03  0.43603290720E+03  0.77569232848E+02 0.  0.
        -11    1    3    3    0    0  0.12111071825E+02  0.32870238057E+02 -0.99641104185E+02  0.10561950698E+03  0.00000000000E+00 0.  1.
         12    1    3    3    0    0 -0.32072145477E+02 -0.14545261961E+02 -0.18234624549E+02  0.39657139249E+02  0.00000000000E+00 0. -1.
         11    1    5    5    0    0  0.13654401588E+03  0.38801233373E+02  0.39498146133E+03  0.41971437762E+03  0.00000000000E+00 0. -1.
        -12    1    5    5    0    0  0.14698749745E+02 -0.48981354708E+01  0.51234200160E+01  0.16318529585E+02  0.00000000000E+00 0.  1.
          5    1    4    4  501    0 -0.40787241291E+01 -0.10684586106E+02 -0.57026184174E+02  0.58311700818E+02  0.41800000000E+01 0. -1.
         -5    1    4    4    0  501 -0.12720296785E+03 -0.41543487891E+02  0.15908703972E+02  0.13482216315E+03  0.41800000000E+01 0. -1.
</event>
<event>
11    1  0.6625361E-009  0.1256005E+03  0.7561462E-02  0.1124796E+00
         22   -1    0    0    0    0  0.00000000000E+00  0.00000000000E+00  0.23414517854E+03  0.23414517854E+03  0.00000000000E+00 0.  1.
         22   -1    0    0    0    0 -0.00000000000E+00 -0.00000000000E+00 -0.30644540470E+03  0.30644540470E+03  0.00000000000E+00 0. -1.
        -24    2    1    2    0    0 -0.50578143889E+01 -0.74700227926E+01 -0.23151787694E+03  0.24962738868E+03  0.92908143382E+02 0.  0.
         25    2    1    2    0    0  0.32881537554E+02  0.13921789880E+02  0.27883019432E+02  0.13304142071E+03  0.12509014792E+03 0.  0.
         24    2    1    2    0    0 -0.27823723165E+02 -0.64517670876E+01  0.13133463135E+03  0.15792177386E+03  0.82913909554E+02 0.  0.
        -13    1    5    5    0    0  0.12503179962E+02 -0.85741492277E+01  0.11222748949E+03  0.11324687608E+03  0.00000000000E+00 0.  1.
         14    1    5    5    0    0 -0.40326903127E+02  0.21223821401E+01  0.19107141861E+02  0.44674897782E+02  0.00000000000E+00 0. -1.
         13    1    3    3    0    0 -0.42619691041E+02  0.41660226553E+01 -0.60342053324E+02  0.73992953776E+02  0.00000000000E+00 0. -1.
        -14    1    3    3    0    0  0.37561876652E+02 -0.11636045448E+02 -0.17117582362E+03  0.17563443490E+03  0.00000000000E+00 0.  1.
          5    1    4    4  501    0  0.69187528194E+02  0.11839915643E+02 -0.19683435498E+02  0.73020597731E+02  0.41800000000E+01 0. -1.
         -5    1    4    4    0  501 -0.36305990640E+02  0.20818742367E+01  0.47566454930E+02  0.60020822981E+02  0.41800000000E+01 0. -1.
</event>
<event>
11    1  0.6625361E-009  0.1695910E+03  0.7561462E-02  0.1078388E+00
         22   -1    0    0    0    0  0.00000000000E+00  0.00000000000E+00  0.21775685063E+03  0.21775685063E+03  0.00000000000E+00 0.  1.
         22   -1    0    0    0    0 -0.00000000000E+00 -0.00000000000E+00 -0.13749632895E+04  0.13749632895E+04  0.00000000000E+00 0.  1.
         24    2    1    2    0    0  0.10139814612E+03 -0.61519789667E+02 -0.11985462297E+04  0.12071640235E+04  0.81643409976E+02 0.  0.
         25    2    1    2    0    0 -0.17204894077E+02  0.10484696523E+03 -0.10353506315E+03  0.19405235473E+03  0.12509161673E+03 0.  0.
        -24    2    1    2    0    0 -0.84193252044E+02 -0.43327175567E+02  0.14487485390E+03  0.19150376196E+03  0.81970846763E+02 0.  0.
        -11    1    3    3    0    0  0.28247793676E+02 -0.63246909462E+02 -0.67140495365E+03  0.67496868164E+03  0.00000000000E+00 0.  1.
         12    1    3    3    0    0  0.73150352445E+02  0.17271197958E+01 -0.52714127600E+03  0.53219534183E+03  0.00000000000E+00 0. -1.
         11    1    5    5    0    0  0.10149434943E+02 -0.11059601709E+02 -0.73315036282E+00  0.15028750084E+02  0.00000000000E+00 0. -1.
        -12    1    5    5    0    0 -0.94342686987E+02 -0.32267573858E+02  0.14560800427E+03  0.17647501188E+03  0.00000000000E+00 0.  1.
          5    1    4    4  501    0 -0.30150850650E+02  0.97872742606E+02 -0.14267459655E+02  0.10348516969E+03  0.41800000000E+01 0.  1.
         -5    1    4    4    0  501  0.12945956572E+02  0.69742226282E+01 -0.89267603491E+02  0.90567185039E+02  0.41800000000E+01 0.  1.
</event>
<event>
11    1  0.6625361E-009  0.1376649E+03  0.7561462E-02  0.1110194E+00
         22   -1    0    0    0    0  0.00000000000E+00  0.00000000000E+00  0.98891778060E+03  0.98891778060E+03  0.00000000000E+00 0. -1.
         22   -1    0    0    0    0 -0.00000000000E+00 -0.00000000000E+00 -0.15300466882E+03  0.15300466882E+03  0.00000000000E+00 0.  1.
        -24    2    1    2    0    0 -0.42284653672E+02 -0.42435372031E+02 -0.10008595551E+03  0.14191418134E+03  0.80831204606E+02 0.  0.
         25    2    1    2    0    0  0.20022402530E+02  0.37034070038E+02  0.11540431726E+03  0.17532715908E+03  0.12509611234E+03 0.  0.
         24    2    1    2    0    0  0.22262251142E+02  0.54013019924E+01  0.82059475003E+03  0.82468110900E+03  0.78729955358E+02 0.  0.
        -13    1    5    5    0    0 -0.44085119496E+01 -0.89723406451E+01  0.12441891785E+02  0.15960530864E+02  0.00000000000E+00 0.  1.
         14    1    5    5    0    0  0.26670763092E+02  0.14373642638E+02  0.80815285825E+03  0.80872057814E+03  0.00000000000E+00 0. -1.
         13    1    3    3    0    0 -0.29713073469E+02  0.12793356643E+02 -0.72333853221E+01  0.33149035768E+02  0.00000000000E+00 0. -1.
        -14    1    3    3    0    0 -0.12571580203E+02 -0.55228728673E+02 -0.92852570189E+02  0.10876514557E+03  0.00000000000E+00 0.  1.
          5    1    4    4  501    0  0.52719169103E+02 -0.83703896205E+01  0.10555887658E+03  0.11836183100E+03  0.41800000000E+01 0.  1.
         -5    1    4    4    0  501 -0.32696766573E+02  0.45404459659E+02  0.98454406789E+01  0.56965328081E+02  0.41800000000E+01 0.  1.
</event>
<event>
11    1  0.6625361E-009  0.2846682E+03  0.7561462E-02  0.1006897E+00
         22   -1    0    0    0    0  0.00000000000E+00  0.00000000000E+00  0.96595882765E+03  0.96595882765E+03  0.00000000000E+00 0.  1.
         22   -1    0    0    0    0 -0.00000000000E+00 -0.00000000000E+00 -0.16205990584E+03  0.16205990584E+03  0.00000000000E+00 0.  1.
         24    2    1    2    0    0 -0.25554438370E+03  0.11203218850E+03  0.20234502985E+03  0.35395168719E+03  0.80524173127E+02 0.  0.
         25    2    1    2    0    0  0.24277135871E+03 -0.13423324745E+02  0.16531233325E+03  0.31952954828E+03  0.12511133617E+03 0.  0.
        -24    2    1    2    0    0  0.12773024988E+02 -0.98608863755E+02  0.43624155871E+03  0.45453749802E+03  0.80067355310E+02 0.  0.
        -11    1    3    3    0    0 -0.19958504030E+03  0.83969873256E+02  0.19413293545E+03  0.29081390021E+03  0.00000000000E+00 0.  1.
         12    1    3    3    0    0 -0.55959343399E+02  0.28062315244E+02  0.82120943997E+01  0.63137786982E+02  0.00000000000E+00 0. -1.
         13    1    5    5    0    0  0.40206765966E+02 -0.27781106788E+02  0.12631941964E+03  0.13544360340E+03  0.00000000000E+00 0. -1.
        -14    1    5    5    0    0 -0.27433740977E+02 -0.70827756966E+02  0.30992213907E+03  0.31909389462E+03  0.00000000000E+00 0.  1.
          5    1    4    4  501    0  0.24529066746E+03 -0.36282640180E+02  0.16123833906E+03  0.29580266379E+03  0.41800000000E+01 0.  1.
         -5    1    4    4    0  501 -0.25193087520E+01  0.22859315435E+02  0.40739941911E+01  0.23726884486E+02  0.41800000000E+01 0.  1.
</event>
<event>
11    1  0.6625361E-009  0.1437517E+03  0.7561462E-02  0.1103440E+00
         22   -1    0    0    0    0  0.00000000000E+00  0.00000000000E+00  0.76012703021E+03  0.76012703021E+03  0.00000000000E+00 0. -1.
         22   -1    0    0    0    0 -0.00000000000E+00 -0.00000000000E+00 -0.48398850829E+03  0.48398850829E+03  0.00000000000E+00 0. -1.
        -24    2    1    2    0    0  0.21789621101E+01  0.63978154234E+02 -0.37437561177E+03  0.38905012814E+03  0.84290873906E+02 0.  0.
         25    2    1    2    0    0  0.57805308798E+02 -0.99159304476E+02 -0.24594944736E+02  0.17154087927E+03  0.12508933034E+03 0.  0.
         24    2    1    2    0    0 -0.59984270908E+02  0.35181150242E+02  0.67510907843E+03  0.68352453109E+03  0.81226170288E+02 0.  0.
        -11    1    5    5    0    0 -0.75501222576E+01 -0.24940505704E+02  0.21189902320E+03  0.21349526740E+03  0.00000000000E+00 0.  1.
         12    1    5    5    0    0 -0.52434148650E+02  0.60121655946E+02  0.46321005523E+03  0.47002926369E+03  0.00000000000E+00 0. -1.
         11    1    3    3    0    0 -0.47914328245E+01  0.24639593499E+02 -0.32297620622E+03  0.32395014614E+03  0.00000000000E+00 0. -1.
        -12    1    3    3    0    0  0.69703949345E+01  0.39338560735E+02 -0.51399405542E+02  0.65099981999E+02  0.00000000000E+00 0.  1.
          5    1    4    4  501    0  0.43008306997E+02  0.70176472950E+01 -0.44502243778E+02  0.62425026597E+02  0.41800000000E+01 0.  1.
         -5    1    4    4    0  501  0.14797001801E+02 -0.10617695177E+03  0.19907299042E+02  0.10911585267E+03  0.41800000000E+01 0.  1.
</event>
<event>
11    1  0.6625361E-009  0.1278647E+03  0.7561462E-02  0.1121921E+00
         22   -1    0    0    0    0  0.00000000000E+00  0.00000000000E+00  0.13069210156E+04  0.13069210156E+04  0.00000000000E+00 0.  1.
         22   -1    0    0    0    0 -0.00000000000E+00 -0.00000000000E+00 -0.23334282612E+03  0.23334282612E+03  0.00000000000E+00 0.  1.
        -24    2    1    2    0    0 -0.63340177824E+01  0.25747744343E+02 -0.20716125256E+03  0.22368837974E+03  0.80110177550E+02 0.  0.
         25    2    1    2    0    0  0.26917113538E+02 -0.72533672017E+01  0.23804635050E+03  0.27034838853E+03  0.12508014972E+03 0.  0.
         24    2    1    2    0    0 -0.20583095756E+02 -0.18494377141E+02  0.10426930916E+04  0.10462270735E+04  0.81341872758E+02 0.  0.
        -13    1    5    5    0    0  0.26021598619E+02 -0.23682426143E+02  0.60672505259E+03  0.60774441202E+03  0.00000000000E+00 0.  1.
         14    1    5    5    0    0 -0.46604694375E+02  0.51880490019E+01  0.43596803897E+03  0.43848266145E+03  0.00000000000E+00 0. -1.
         11    1    3    3    0    0  0.27505703453E+02  0.36918471033E+01 -0.25830511652E+02  0.37913174355E+02  0.00000000000E+00 0. -1.
        -12    1    3    3    0    0 -0.33839721236E+02  0.22055897240E+02 -0.18133074091E+03  0.18577520538E+03  0.00000000000E+00 0.  1.
          5    1    4    4  501    0  0.78502385774E+01  0.10176043631E+02 -0.12517848572E+02  0.18421374612E+02  0.41800000000E+01 0. -1.
         -5    1    4    4    0  501  0.19066874961E+02 -0.17429410833E+02  0.25056419908E+03  0.25192701392E+03  0.41800000000E+01 0. -1.
</event>
<event>
11    1  0.6625361E-009  0.1500924E+03  0.7561462E-02  0.1096784E+00
         22   -1    0    0    0    0  0.00000000000E+00  0.00000000000E+00  0.10862444115E+04  0.10862444115E+04  0.00000000000E+00 0.  1.
         22   -1    0    0    0    0 -0.00000000000E+00 -0.00000000000E+00 -0.88733456583E+03  0.88733456583E+03  0.00000000000E+00 0.  1.
         24    2    1    2    0    0 -0.18755027696E+02  0.15967199708E+02 -0.77181435757E+03  0.77699853958E+03  0.86154659985E+02 0.  0.
         25    2    1    2    0    0  0.57938610067E+02 -0.88329020091E+02 -0.48614162865E+02  0.17079202119E+03  0.12509068448E+03 0.  0.
        -24    2    1    2    0    0 -0.39183582371E+02  0.72361820384E+02  0.10193383661E+04  0.10257884166E+04  0.80122311278E+02 0.  0.
        -11    1    3    3    0    0  0.23212399132E+02  0.15134039828E+02 -0.57924381926E+03  0.57990624828E+03  0.00000000000E+00 0.  1.
         12    1    3    3    0    0 -0.41967426829E+02  0.83315988025E+00 -0.19257053830E+03  0.19709229130E+03  0.00000000000E+00 0. -1.
         13    1    5    5    0    0 -0.16486403068E+02  0.33822262797E+02  0.13025232894E+03  0.13557808134E+03  0.00000000000E+00 0. -1.
        -14    1    5    5    0    0 -0.22697179303E+02  0.38539557587E+02  0.88908603716E+03  0.89021033522E+03  0.00000000000E+00 0.  1.
          5    1    4    4  501    0  0.55053218861E+02 -0.71440391328E+02 -0.88965319306E+02  0.12675522419E+03  0.41800000000E+01 0.  1.
         -5    1    4    4    0  501  0.28853912056E+01 -0.16888628764E+02  0.40351156441E+02  0.44036797000E+02  0.41800000000E+01 0.  1.
</event>
<event>
11    1  0.6625361E-009  0.1369023E+03  0.7561462E-02  0.1111068E+00
         22   -1    0    0    0    0  0.00000000000E+00  0.00000000000E+00  0.38654222697E+03  0.38654222697E+03  0.00000000000E+00 0.  1.
         22   -1    0    0    0    0 -0.00000000000E+00 -0.00000000000E+00 -0.40926506036E+03  0.40926506036E+03  0.00000000000E+00 0. -1.
        -24    2    1    2    0    0 -0.78605088585E+00 -0.28842971693E+02 -0.34336218394E+03  0.35381210337E+03  0.80329821621E+02 0.  0.
         25    2    1    2    0    0  0.51198966822E+02  0.15871956344E+01  0.35003161252E+02  0.13963145273E+03  0.12509143816E+03 0.  0.
         24    2    1    2    0    0 -0.50412915936E+02  0.27255776059E+02  0.28563618930E+03  0.30236373122E+03  0.80941052011E+02 0.  0.
        -13    1    5    5    0    0 -0.67453753136E+02  0.34160668456E+02  0.26029874250E+03  0.27105791895E+03  0.00000000000E+00 0.  1.
         14    1    5    5    0    0  0.17040837200E+02 -0.69048923975E+01  0.25337446799E+02  0.31305812269E+02  0.00000000000E+00 0. -1.
         13    1    3    3    0    0 -0.39008863322E+02 -0.15307110854E+02 -0.22004103703E+03  0.22399566299E+03  0.00000000000E+00 0. -1.
        -14    1    3    3    0    0  0.38222812436E+02 -0.13535860840E+02 -0.12332114691E+03  0.12981644039E+03  0.00000000000E+00 0.  1.
          5    1    4    4  501    0 -0.36586658285E+02  0.11865834682E+02 -0.10561268652E+02  0.40104792640E+02  0.41800000000E+01 0.  1.
         -5    1    4    4    0  501  0.87785625108E+02 -0.10278639047E+02  0.45564429904E+02  0.99526660090E+02  0.41800000000E+01 0.  1.
</event>
<event>
11    1  0.6625361E-009  0.1312111E+03  0.7561462E-02  0.1117790E+00
         22   -1    0    0    0    0  0.00000000000E+00  0.00000000000E+00  0.44672098081E+03  0.44672098081E+03  0.00000000000E+00 0.  1.
         22   -1    0    0    0    0 -0.00000000000E+00 -0.00000000000E+00 -0.12265143059E+04  0.12265143059E+04  0.00000000000E+00 0. -1.
        -24    2    1    2    0    0  0.13557577826E+02 -0.37965986381E+02 -0.11346811941E+04  0.11382064422E+04  0.79920389861E+02 0.  0.
         25    2    1    2    0    0  0.50265064523E+01  0.23527161202E+02 -0.38386269814E+02  0.13304204270E+03  0.12509151184E+03 0.  0.
         24    2    1    2    0    0 -0.18584084279E+02  0.14438825179E+02  0.39327413888E+03  0.40198680179E+03  0.79843551046E+02 0.  0.
        -11    1    5    5    0    0 -0.25397883958E+02 -0.68203296068E+01  0.36507321440E+03  0.36601915425E+03  0.00000000000E+00 0.  1.
         12    1    5    5    0    0  0.68137996796E+01  0.21259154786E+02  0.28200924477E+02  0.35967647541E+02  0.00000000000E+00 0. -1.
         11    1    3    3    0    0 -0.32375584154E+02 -0.45199626495E+01 -0.40982194284E+03  0.41112362294E+03  0.00000000000E+00 0. -1.
        -12    1    3    3    0    0  0.45933161981E+02 -0.33446023731E+02 -0.72485925129E+03  0.72708281926E+03  0.00000000000E+00 0.  1.
          5    1    4    4  501    0  0.59690721429E+02  0.35785705232E+02 -0.11139666031E+02  0.70605690160E+02  0.41800000000E+01 0.  1.
         -5    1    4    4    0  501 -0.54664214977E+02 -0.12258544030E+02 -0.27246603783E+02  0.62436352540E+02  0.41800000000E+01 0.  1.
</event>
<event>
11    1  0.6625361E-009  0.1465480E+03  0.7561462E-02  0.1100459E+00
         22   -1    0    0    0    0  0.00000000000E+00  0.00000000000E+00  0.34878046173E+03  0.34878046173E+03  0.00000000000E+00 0. -1.
         22   -1    0    0    0    0 -0.00000000000E+00 -0.00000000000E+00 -0.52553577522E+03  0.52553577522E+03  0.00000000000E+00 0.  1.
        -24    2    1    2    0    0 -0.86575280149E+01 -0.77677272926E+02 -0.42315363855E+03  0.44041603869E+03  0.93800713178E+02 0.  0.
         25    2    1    2    0    0  0.30931144500E+02  0.60571506739E+02 -0.28450113201E+02  0.14519709755E+03  0.12508854890E+03 0.  0.
         24    2    1    2    0    0 -0.22273616485E+02  0.17105766187E+02  0.27484843827E+03  0.28870310072E+03  0.83780040093E+02 0.  0.
        -11    1    5    5    0    0 -0.44288074174E+02  0.53209282861E+01  0.74713216558E+02  0.87016150916E+02  0.00000000000E+00 0.  1.
         12    1    5    5    0    0  0.22014457689E+02  0.11784837901E+02  0.20013522171E+03  0.20168694980E+03  0.00000000000E+00 0. -1.
         13    1    3    3    0    0  0.39256073105E+02 -0.46142375529E+02 -0.16004079632E+03  0.17112338993E+03  0.00000000000E+00 0. -1.
        -14    1    3    3    0    0 -0.47913601120E+02 -0.31534897397E+02 -0.26311284223E+03  0.26929264876E+03  0.00000000000E+00 0.  1.
          5    1    4    4  501    0  0.67098681504E+02 -0.49005971989E+01 -0.11352343492E+02  0.68356397032E+02  0.41800000000E+01 0. -1.
         -5    1    4    4    0  501 -0.36167537004E+02  0.65472103938E+02 -0.17097769709E+02  0.76840700518E+02  0.41800000000E+01 0. -1.
</event>
<event>
11    1  0.6625361E-009  0.1365537E+03  0.7561462E-02  0.1111469E+00
         22   -1    0    0    0    0  0.00000000000E+00  0.00000000000E+00  0.24974015896E+03  0.24974015896E+03  0.00000000000E+00 0.  1.
         22   -1    0    0    0    0 -0.00000000000E+00 -0.00000000000E+00 -0.36977440505E+03  0.36977440505E+03  0.00000000000E+00 0. -1.
         24    2    1    2    0    0  0.15028111362E+01  0.51176535979E+02 -0.25895618121E+03  0.27565040701E+03  0.79394879046E+02 0.  0.
         25    2    1    2    0    0  0.34224738817E+02 -0.82570858064E+02 -0.24293116607E+02  0.15564719883E+03  0.12508643268E+03 0.  0.
        -24    2    1    2    0    0 -0.35727549953E+02  0.31394322086E+02  0.16321505173E+03  0.18821695818E+03  0.80773813521E+02 0.  0.
        -13    1    3    3    0    0 -0.75095835848E+01  0.27694173185E+02 -0.19079180286E+02  0.34458325473E+02  0.00000000000E+00 0.  1.
         14    1    3    3    0    0  0.90123947210E+01  0.23482362794E+02 -0.23987700093E+03  0.24119208153E+03  0.00000000000E+00 0. -1.
         11    1    5    5    0    0  0.32324871940E+01  0.32123499345E+02  0.16193684617E+02  0.36119296852E+02  0.00000000000E+00 0. -1.
        -12    1    5    5    0    0 -0.38960037147E+02 -0.72917725892E+00  0.14702136711E+03  0.15209766133E+03  0.00000000000E+00 0.  1.
          5    1    4    4  501    0  0.52880605427E+02 -0.10658195669E+03 -0.45236816959E+01  0.11913860843E+03  0.41800000000E+01 0.  1.
         -5    1    4    4    0  501 -0.18655866610E+02  0.24011098628E+02 -0.19769434912E+02  0.36508590401E+02  0.41800000000E+01 0.  1.
</event>
<event>
11    1  0.6625361E-009  0.1514276E+03  0.7561462E-02  0.1095429E+00
         22   -1    0    0    0    0  0.00000000000E+00  0.00000000000E+00  0.10041005138E+04  0.10041005138E+04  0.00000000000E+00 0. -1.
         22   -1    0    0    0    0 -0.00000000000E+00 -0.00000000000E+00 -0.11800366746E+03  0.11800366746E+03  0.00000000000E+00 0. -1.
         24    2    1    2    0    0 -0.47985533296E+02  0.55214471715E+02 -0.58594245462E+02  0.12471996342E+03  0.82283256998E+02 0.  0.
         25    2    1    2    0    0  0.51107905779E+01 -0.12267203915E+03  0.34455195057E+03  0.38657093360E+03  0.12508593323E+03 0.  0.
        -24    2    1    2    0    0  0.42874742718E+02  0.67457567439E+02  0.60013914123E+03  0.61081328424E+03  0.80852411198E+02 0.  0.
        -13    1    3    3    0    0 -0.50848975638E+02 -0.37993386819E+01 -0.25818545174E+02  0.57154619872E+02  0.00000000000E+00 0.  1.
         14    1    3    3    0    0  0.28634423415E+01  0.59013810397E+02 -0.32775700287E+02  0.67565343550E+02  0.00000000000E+00 0. -1.
         13    1    5    5    0    0  0.59602329440E+01 -0.16376856781E+02  0.17793295131E+03  0.17878439802E+03  0.00000000000E+00 0. -1.
        -14    1    5    5    0    0  0.36914509774E+02  0.83834424220E+02  0.42220618992E+03  0.43202888621E+03  0.00000000000E+00 0.  1.
          5    1    4    4  501    0  0.60386712830E+02 -0.47766698950E+02  0.11136995234E+03  0.13545830096E+03  0.41800000000E+01 0. -1.
         -5    1    4    4    0  501 -0.55275922252E+02 -0.74905340204E+02  0.23318199823E+03  0.25111263263E+03  0.41800000000E+01 0. -1.
</event>
<event>
11    1  0.6625361E-009  0.1428045E+03  0.7561462E-02  0.1104467E+00
         22   -1    0    0    0    0  0.00000000000E+00  0.00000000000E+00  0.49792952392E+03  0.49792952392E+03  0.00000000000E+00 0.  1.
         22   -1    0    0    0    0 -0.00000000000E+00 -0.00000000000E+00 -0.17569949892E+04  0.17569949892E+04  0.00000000000E+00 0.  1.
         24    2    1    2    0    0  0.52176558138E+02  0.44327669913E+02 -0.16969894762E+04  0.17001924260E+04  0.78699858865E+02 0.  0.
         25    2    1    2    0    0 -0.70023085251E+02 -0.74887325747E+02  0.69910958513E+02  0.17619796471E+03  0.12508731600E+03 0.  0.
        -24    2    1    2    0    0  0.17846527113E+02  0.30559655833E+02  0.36801305238E+03  0.37853412238E+03  0.81253209105E+02 0.  0.
        -13    1    3    3    0    0  0.32213925641E+01  0.13642684485E+02 -0.11633266589E+04  0.11634111120E+04  0.00000000000E+00 0.  1.
         14    1    3    3    0    0  0.48955165574E+02  0.30684985429E+02 -0.53366281728E+03  0.53678131405E+03  0.00000000000E+00 0. -1.
         11    1    5    5    0    0 -0.21178680479E+02  0.97657823364E+01  0.31852589205E+02  0.39477771600E+02  0.00000000000E+00 0. -1.
        -12    1    5    5    0    0  0.39025207592E+02  0.20793873497E+02  0.33616046317E+03  0.33905635078E+03  0.00000000000E+00 0.  1.
          5    1    4    4  501    0  0.66854542303E+01  0.30331723438E+02  0.10951016904E+02  0.33197980605E+02  0.41800000000E+01 0. -1.
         -5    1    4    4    0  501 -0.76708539481E+02 -0.10521904918E+03  0.58959941609E+02  0.14299998411E+03  0.41800000000E+01 0. -1.
</event>
<event>
11    1  0.6625361E-009  0.1372272E+03  0.7561462E-02  0.1110695E+00
         22   -1    0    0    0    0  0.00000000000E+00  0.00000000000E+00  0.34961768165E+03  0.34961768165E+03  0.00000000000E+00 0. -1.
         22   -1    0    0    0    0 -0.00000000000E+00 -0.00000000000E+00 -0.14842103428E+03  0.14842103428E+03  0.00000000000E+00 0. -1.
        -24    2    1    2    0    0  0.33728851782E+02 -0.48951225216E+02 -0.62951774137E+02  0.11840305401E+03  0.80761992540E+02 0.  0.
         25    2    1    2    0    0  0.22742554876E+02  0.12282802526E+02  0.42448319946E+02  0.13460417872E+03  0.12509330127E+03 0.  0.
         24    2    1    2    0    0 -0.56471406658E+02  0.36668422690E+02  0.22170010157E+03  0.24503148320E+03  0.79723896865E+02 0.  0.
        -11    1    5    5    0    0 -0.44148071012E+02 -0.39910923962E+01  0.44506852724E+02  0.62815928967E+02  0.00000000000E+00 0.  1.
         12    1    5    5    0    0 -0.12323335646E+02  0.40659515086E+02  0.17719324885E+03  0.18221555423E+03  0.00000000000E+00 0. -1.
         11    1    3    3    0    0 -0.19034191958E+01 -0.31895659520E+02 -0.71205678964E+02  0.78046171063E+02  0.00000000000E+00 0. -1.
        -12    1    3    3    0    0  0.35632270978E+02 -0.17055565696E+02  0.82539048272E+01  0.40356882946E+02  0.00000000000E+00 0.  1.
          5    1    4    4  501    0 -0.18825167241E+02  0.51289181894E+02 -0.11522745572E+02  0.55992974260E+02  0.41800000000E+01 0.  1.
         -5    1    4    4    0  501  0.41567722117E+02 -0.39006379368E+02  0.53971065518E+02  0.78611204459E+02  0.41800000000E+01 0.  1.
</event>
<event>
11    1  0.6625361E-009  0.2950141E+03  0.7561462E-02  0.1002324E+00
         22   -1    0    0    0    0  0.00000000000E+00  0.00000000000E+00  0.35935762921E+03  0.35935762921E+03  0.00000000000E+00 0.  1.
         22   -1    0    0    0    0 -0.00000000000E+00 -0.00000000000E+00 -0.22088979317E+04  0.22088979317E+04  0.00000000000E+00 0.  1.
        -24    2    1    2    0    0  0.14554390599E+03  0.23324368496E+03 -0.17122849733E+04  0.17360200142E+04  0.79120254454E+02 0.  0.
         25    2    1    2    0    0 -0.15870003782E+03 -0.18497386158E+03 -0.43800313436E+03  0.51661832199E+03  0.12508682359E+03 0.  0.
         24    2    1    2    0    0  0.13156131830E+02 -0.48269823372E+02  0.30074780512E+03  0.31561722479E+03  0.81620650865E+02 0.  0.
        -13    1    5    5    0    0  0.19145191108E+02 -0.33542152945E+02  0.29671084089E+03  0.29921386576E+03  0.00000000000E+00 0.  1.
         14    1    5    5    0    0 -0.59890592774E+01 -0.14727670427E+02  0.40369642381E+01  0.16403359031E+02  0.00000000000E+00 0. -1.
         13    1    3    3    0    0  0.30557718376E+01 -0.48875590157E+01 -0.88932057742E+02  0.89118667342E+02  0.00000000000E+00 0. -1.
        -14    1    3    3    0    0  0.14248813415E+03  0.23813124397E+03 -0.16233529156E+04  0.16469013468E+04  0.00000000000E+00 0.  1.
          5    1    4    4  501    0 -0.48379279291E+02 -0.92816136806E+02 -0.83181099015E+02  0.13376082218E+03  0.41800000000E+01 0. -1.
         -5    1    4    4    0  501 -0.11032075853E+03 -0.92157724779E+02 -0.35482203534E+03  0.38285749982E+03  0.41800000000E+01 0. -1.
</event>
<event>
11    1  0.6625361E-009  0.1657366E+03  0.7561462E-02  0.1081803E+00
         22   -1    0    0    0    0  0.00000000000E+00  0.00000000000E+00  0.68658516219E+03  0.68658516219E+03  0.00000000000E+00 0.  1.
         22   -1    0    0    0    0 -0.00000000000E+00 -0.00000000000E+00 -0.24824858890E+03  0.24824858890E+03  0.00000000000E+00 0.  1.
         24    2    1    2    0    0 -0.87870440509E+02 -0.64869035503E+02 -0.19907486859E+03  0.24132766173E+03  0.81725338347E+02 0.  0.
         25    2    1    2    0    0  0.10275236650E+03  0.31165199376E+02  0.27905891707E+03  0.32411700756E+03  0.12509451194E+03 0.  0.
        -24    2    1    2    0    0 -0.14881925994E+02  0.33703836127E+02  0.35835252480E+03  0.36938908180E+03  0.81696642732E+02 0.  0.
        -13    1    3    3    0    0 -0.95319508619E+02 -0.59330258677E+02 -0.20240988446E+03  0.23146414332E+03  0.00000000000E+00 0.  1.
         14    1    3    3    0    0  0.74490681099E+01 -0.55387768253E+01  0.33350158691E+01  0.98635184023E+01  0.00000000000E+00 0. -1.
         11    1    5    5    0    0 -0.45291733859E+00 -0.27096724546E+02  0.10403215336E+03  0.10750407689E+03  0.00000000000E+00 0. -1.
        -12    1    5    5    0    0 -0.14429008656E+02  0.60800560672E+02  0.25432037143E+03  0.26188500491E+03  0.00000000000E+00 0.  1.
          5    1    4    4  501    0  0.10731412837E+03  0.12416684789E+02  0.28390087270E+03  0.30378886439E+03  0.41800000000E+01 0.  1.
         -5    1    4    4    0  501 -0.45617618689E+01  0.18748514587E+02 -0.48419556230E+01  0.20328143172E+02  0.41800000000E+01 0.  1.
</event>
<event>
11    1  0.6625361E-009  0.1852774E+03  0.7561462E-02  0.1065452E+00
         22   -1    0    0    0    0  0.00000000000E+00  0.00000000000E+00  0.10740900469E+04  0.10740900469E+04  0.00000000000E+00 0.  1.
         22   -1    0    0    0    0 -0.00000000000E+00 -0.00000000000E+00 -0.99128599379E+03  0.99128599379E+03  0.00000000000E+00 0. -1.
         24    2    1    2    0    0  0.44921484882E+02 -0.61689258214E+02 -0.92530802043E+03  0.93190744102E+03  0.80206244013E+02 0.  0.
         25    2    1    2    0    0 -0.15559861162E+03  0.12748143416E+03  0.19647620271E+03  0.30775538383E+03  0.12509210229E+03 0.  0.
        -24    2    1    2    0    0  0.11067712674E+03 -0.65792175950E+02  0.81163587079E+03  0.82571321579E+03  0.80445579031E+02 0.  0.
        -13    1    3    3    0    0  0.45449542436E+02 -0.33949221396E+02 -0.26440446911E+03  0.27042177025E+03  0.00000000000E+00 0.  1.
         14    1    3    3    0    0 -0.52805755416E+00 -0.27740036818E+02 -0.66090355132E+03  0.66148567077E+03  0.00000000000E+00 0. -1.
         11    1    5    5    0    0  0.39747979663E+01 -0.20323349904E+02  0.36648465891E+02  0.42094508221E+02  0.00000000000E+00 0. -1.
        -12    1    5    5    0    0  0.10670232877E+03 -0.45468826046E+02  0.77498740490E+03  0.78361870757E+03  0.00000000000E+00 0.  1.
          5    1    4    4  501    0 -0.92430278320E+02  0.84906124275E+01  0.39792172339E+02  0.10107589341E+03  0.41800000000E+01 0. -1.
         -5    1    4    4    0  501 -0.63168333301E+02  0.11899082174E+03  0.15668403037E+03  0.20667949042E+03  0.41800000000E+01 0. -1.
</event>
<event>
11    1  0.6625361E-009  0.1625434E+03  0.7561462E-02  0.1084709E+00
         22   -1    0    0    0    0  0.00000000000E+00  0.00000000000E+00  0.52886754917E+03  0.52886754917E+03  0.00000000000E+00 0.  1.
         22   -1    0    0    0    0 -0.00000000000E+00 -0.00000000000E+00 -0.41288173678E+03  0.41288173678E+03  0.00000000000E+00 0. -1.
        -24    2    1    2    0    0  0.38679668523E+01 -0.59605882610E+02 -0.23980729341E+03  0.26639488563E+03  0.99452876823E+02 0.  0.
         25    2    1    2    0    0 -0.18891124564E+02 -0.45848449337E+02 -0.12265193736E+03  0.18206426346E+03  0.12507974815E+03 0.  0.
         24    2    1    2    0    0  0.15023157712E+02  0.10545433195E+03  0.47844504316E+03  0.49329013685E+03  0.55490435150E+02 0.  0.
        -11    1    5    5    0    0 -0.20839418875E+02  0.32261572438E+02  0.16655653363E+03  0.17092738028E+03  0.00000000000E+00 0.  1.
         12    1    5    5    0    0  0.35862576587E+02  0.73192759509E+02  0.31188850953E+03  0.32236275656E+03  0.00000000000E+00 0. -1.
         11    1    3    3    0    0 -0.27422955063E+02 -0.70177305493E+02 -0.20501742400E+03  0.21842393828E+03  0.00000000000E+00 0. -1.
        -12    1    3    3    0    0  0.31290921915E+02  0.10571422883E+02 -0.34789869410E+02  0.47970947349E+02  0.00000000000E+00 0.  1.
          5    1    4    4  501    0  0.23200384249E+02 -0.39503666454E+02  0.60890398210E+01  0.46404162513E+02  0.41800000000E+01 0. -1.
         -5    1    4    4    0  501 -0.42091508813E+02 -0.63447828837E+01 -0.12874097718E+03  0.13566010095E+03  0.41800000000E+01 0. -1.
</event>
<event>
11    1  0.6625361E-009  0.1443450E+03  0.7561462E-02  0.1102801E+00
         22   -1    0    0    0    0  0.00000000000E+00  0.00000000000E+00  0.23863123111E+03  0.23863123111E+03  0.00000000000E+00 0. -1.
         22   -1    0    0    0    0 -0.00000000000E+00 -0.00000000000E+00 -0.53245331018E+03  0.53245331018E+03  0.00000000000E+00 0.  1.
        -24    2    1    2    0    0 -0.27906030528E+01 -0.74241480749E+02 -0.44435153661E+03  0.45773262701E+03  0.80940007537E+02 0.  0.
         25    2    1    2    0    0 -0.33575669344E+02  0.48939121412E+02  0.12675055076E+01  0.13845923915E+03  0.12508793371E+03 0.  0.
         24    2    1    2    0    0  0.36366272397E+02  0.25302359337E+02  0.14926195203E+03  0.17489267513E+03  0.79659289060E+02 0.  0.
        -13    1    5    5    0    0  0.79604932540E+01  0.33526725908E+02  0.15295338780E+02  0.37700904384E+02  0.00000000000E+00 0.  1.
         14    1    5    5    0    0  0.28405779143E+02 -0.82243665716E+01  0.13396661325E+03  0.13719177074E+03  0.00000000000E+00 0. -1.
         13    1    3    3    0    0  0.84020237519E+01  0.16428532035E+02 -0.80330035270E+02  0.82422116173E+02  0.00000000000E+00 0. -1.
        -14    1    3    3    0    0 -0.11192626805E+02 -0.90670012784E+02 -0.36402150134E+03  0.37531051084E+03  0.00000000000E+00 0.  1.
          5    1    4    4  501    0 -0.10453386952E+02  0.82192161826E+02 -0.28829502984E+02  0.87826177229E+02  0.41800000000E+01 0. -1.
         -5    1    4    4    0  501 -0.23122282393E+02 -0.33253040414E+02  0.30097008491E+02  0.50633061925E+02  0.41800000000E+01 0. -1.
</event>
<event>
11    1  0.6625361E-009  0.1436756E+03  0.7561462E-02  0.1103522E+00
         22   -1    0    0    0    0  0.00000000000E+00  0.00000000000E+00  0.65541902555E+03  0.65541902555E+03  0.00000000000E+00 0.  1.
         22   -1    0    0    0    0 -0.00000000000E+00 -0.00000000000E+00 -0.35273666214E+03  0.35273666214E+03  0.00000000000E+00 0. -1.
         24    2    1    2    0    0  0.56192613484E+02  0.39892780326E+02 -0.30747479837E+03  0.32513613829E+03  0.80148069591E+02 0.  0.
         25    2    1    2    0    0 -0.89162333100E+02 -0.87272842370E+02  0.23088788128E+03  0.29072423083E+03  0.12507955071E+03 0.  0.
        -24    2    1    2    0    0  0.32969719616E+02  0.47380062044E+02  0.37926928049E+03  0.39229531857E+03  0.81966805240E+02 0.  0.
        -13    1    3    3    0    0  0.13503162492E+02  0.30186149236E+02 -0.31365943070E+02  0.45578080123E+02  0.00000000000E+00 0.  1.
         14    1    3    3    0    0  0.42689450992E+02  0.97066310898E+01 -0.27610885530E+03  0.27955805817E+03  0.00000000000E+00 0. -1.
         11    1    5    5    0    0 -0.13933433746E+02 -0.12489145785E+02  0.34607125557E+02  0.39341739638E+02  0.00000000000E+00 0. -1.
        -12    1    5    5    0    0  0.46903153362E+02  0.59869207829E+02  0.34466215493E+03  0.35295357894E+03  0.00000000000E+00 0.  1.
          5    1    4    4  501    0 -0.80370899206E+02  0.21541741361E+01  0.71359320522E+02  0.10758135029E+03  0.41800000000E+01 0. -1.
         -5    1    4    4    0  501 -0.87914338934E+01 -0.89427016507E+02  0.15952856076E+03  0.18314288053E+03  0.41800000000E+01 0. -1.
</event>
<event>
11    1  0.6625361E-009  0.1709501E+03  0.7561462E-02  0.1077208E+00
         22   -1    0    0    0    0  0.00000000000E+00  0.00000000000E+00  0.82676078628E+03  0.82676078628E+03  0.00000000000E+00 0. -1.
         22   -1    0    0    0    0 -0.00000000000E+00 -0.00000000000E+00 -0.62728622211E+03  0.62728622211E+03  0.00000000000E+00 0. -1.
         24    2    1    2    0    0  0.75047523417E+02  0.73547980596E+02 -0.33300683013E+03  0.35795645704E+03  0.78726361520E+02 0.  0.
         25    2    1    2    0    0 -0.67395702796E+02 -0.13993525082E+03 -0.24254956519E+03  0.31401928839E+03  0.12511501400E+03 0.  0.
        -24    2    1    2    0    0 -0.76518206212E+01  0.66387270228E+02  0.77503095950E+03  0.78207126297E+03  0.80601812467E+02 0.  0.
        -13    1    3    3    0    0  0.21576593439E+02 -0.90311462144E+01 -0.23361886722E+02  0.33058867760E+02  0.00000000000E+00 0.  1.
         14    1    3    3    0    0  0.53470929978E+02  0.82579126811E+02 -0.30964494341E+03  0.32489758928E+03  0.00000000000E+00 0. -1.
         11    1    5    5    0    0  0.94969028241E+01  0.57274252708E+02  0.73779365863E+03  0.74007432999E+03  0.00000000000E+00 0. -1.
        -12    1    5    5    0    0 -0.17148723445E+02  0.91130175202E+01  0.37237300866E+02  0.41996932982E+02  0.00000000000E+00 0.  1.
          5    1    4    4  501    0 -0.53942341757E+02 -0.11291563449E+03 -0.25260324375E+03  0.28193188521E+03  0.41800000000E+01 0.  1.
         -5    1    4    4    0  501 -0.13453361039E+02 -0.27019616335E+02  0.10053678558E+02  0.32087403177E+02  0.41800000000E+01 0.  1.
</event>
<event>
11    1  0.6625361E-009  0.1406960E+03  0.7561462E-02  0.1106784E+00
         22   -1    0    0    0    0  0.00000000000E+00  0.00000000000E+00  0.26065159342E+04  0.26065159342E+04  0.00000000000E+00 0.  1.
         22   -1    0    0    0    0 -0.00000000000E+00 -0.00000000000E+00 -0.10201343701E+04  0.10201343701E+04  0.00000000000E+00 0.  1.
        -24    2    1    2    0    0  0.64424417376E+01 -0.47017604588E+01 -0.99210602662E+03  0.99604237450E+03  0.88104665864E+02 0.  0.
         25    2    1    2    0    0 -0.67939240944E+02 -0.13812815965E+02  0.17864991259E+03  0.22884519490E+03  0.12509115722E+03 0.  0.
         24    2    1    2    0    0  0.61496799206E+02  0.18514576424E+02  0.23998376781E+04  0.24017627349E+04  0.71545144648E+02 0.  0.
        -13    1    5    5    0    0  0.31258889641E+02  0.45133626768E+02  0.12135863728E+04  0.12148275790E+04  0.00000000000E+00 0.  1.
         14    1    5    5    0    0  0.30237909566E+02 -0.26619050345E+02  0.11862513052E+04  0.11869351558E+04  0.00000000000E+00 0. -1.
         11    1    3    3    0    0  0.33903396551E+02 -0.15780734758E+01 -0.16399494220E+03  0.16747021132E+03  0.00000000000E+00 0. -1.
        -12    1    3    3    0    0 -0.27460954814E+02 -0.31236869830E+01 -0.82811108442E+03  0.82857216318E+03  0.00000000000E+00 0.  1.
          5    1    4    4  501    0 -0.37759955912E+01 -0.62247524786E+02  0.76368228413E+02  0.98684300654E+02  0.41800000000E+01 0.  1.
         -5    1    4    4    0  501 -0.64163245352E+02  0.48434708821E+02  0.10228168418E+03  0.13016089425E+03  0.41800000000E+01 0.  1.
</event>
<event>
11    1  0.6625361E-009  0.1629870E+03  0.7561462E-02  0.1084301E+00
         22   -1    0    0    0    0  0.00000000000E+00  0.00000000000E+00  0.35811512662E+03  0.35811512662E+03  0.00000000000E+00 0. -1.
         22   -1    0    0    0    0 -0.00000000000E+00 -0.00000000000E+00 -0.46202785341E+03  0.46202785341E+03  0.00000000000E+00 0. -1.
        -24    2    1    2    0    0  0.86729358984E+02 -0.82662622776E+02 -0.36964660118E+03  0.39773193058E+03  0.84835063069E+02 0.  0.
         25    2    1    2    0    0 -0.38176159010E+02  0.71534494928E+01  0.12505671116E+00  0.13097980467E+03  0.12508837930E+03 0.  0.
         24    2    1    2    0    0 -0.48553199974E+02  0.75509173283E+02  0.26560881767E+03  0.29143124479E+03  0.79530358578E+02 0.  0.
        -11    1    5    5    0    0 -0.14133853584E+02  0.65068958069E+02  0.88748367414E+02  0.11095047472E+03  0.00000000000E+00 0.  1.
         12    1    5    5    0    0 -0.34419346390E+02  0.10440215214E+02  0.17686045026E+03  0.18048077007E+03  0.00000000000E+00 0. -1.
         13    1    3    3    0    0  0.13491277469E+02 -0.70969341818E+02 -0.16773207659E+03  0.18262724759E+03  0.00000000000E+00 0. -1.
        -14    1    3    3    0    0  0.73238081515E+02 -0.11693280959E+02 -0.20191452459E+03  0.21510468299E+03  0.00000000000E+00 0.  1.
          5    1    4    4  501    0 -0.25521998316E+02 -0.16743173401E+02 -0.58593358571E+02  0.66199398202E+02  0.41800000000E+01 0.  1.
         -5    1    4    4    0  501 -0.12654160694E+02  0.23896622894E+02  0.58718415282E+02  0.64780406466E+02  0.41800000000E+01 0.  1.
</event>
<event>
11    1  0.6625361E-009  0.1764725E+03  0.7561462E-02  0.1072532E+00
         22   -1    0    0    0    0  0.00000000000E+00  0.00000000000E+00  0.61690562896E+03  0.61690562896E+03  0.00000000000E+00 0.  1.
         22   -1    0    0    0    0 -0.00000000000E+00 -0.00000000000E+00 -0.12709078877E+04  0.12709078877E+04  0.00000000000E+00 0. -1.
        -24    2    1    2    0    0  0.36810331310E+02  0.39838589208E+02 -0.11874185714E+04  0.11912477821E+04  0.78525797761E+02 0.  0.
         25    2    1    2    0    0  0.76331451640E+02 -0.96056526036E+02  0.38259592523E+02  0.17934614852E+03  0.12509155792E+03 0.  0.
         24    2    1    2    0    0 -0.11314178295E+03  0.56217936828E+02  0.49515672016E+03  0.51721958604E+03  0.79839859689E+02 0.  0.
        -13    1    5    5    0    0 -0.11278945810E+03  0.65076844613E+02  0.48990376572E+03  0.50691434901E+03  0.00000000000E+00 0.  1.
         14    1    5    5    0    0 -0.35232484608E+00 -0.88589077848E+01  0.52529544376E+01  0.10305237031E+02  0.00000000000E+00 0. -1.
         13    1    3    3    0    0  0.20124266889E+01  0.37057208041E+02 -0.99476352052E+03  0.99545554812E+03  0.00000000000E+00 0. -1.
        -14    1    3    3    0    0  0.34797904621E+02  0.27813811667E+01 -0.19265505089E+03  0.19579223396E+03  0.00000000000E+00 0.  1.
          5    1    4    4  501    0  0.37467662411E+02  0.20552041497E+02  0.36488419484E+02  0.56347930687E+02  0.41800000000E+01 0. -1.
         -5    1    4    4    0  501  0.38863789230E+02 -0.11660856753E+03  0.17711730386E+01  0.12299821783E+03  0.41800000000E+01 0. -1.
</event>
<event>
11    1  0.6625361E-009  0.1413446E+03  0.7561462E-02  0.1106066E+00
         22   -1    0    0    0    0  0.00000000000E+00  0.00000000000E+00  0.18082918159E+03  0.18082918159E+03  0.00000000000E+00 0. -1.
         22   -1    0    0    0    0 -0.00000000000E+00 -0.00000000000E+00 -0.10822161851E+04  0.10822161851E+04  0.00000000000E+00 0. -1.
        -24    2    1    2    0    0 -0.52227384551E+01 -0.17065132050E+02 -0.98884434628E+03  0.99364445323E+03  0.95904444860E+02 0.  0.
         25    2    1    2    0    0  0.48554756764E+02 -0.39347244053E+02  0.82254884037E+02  0.16221995456E+03  0.12507468844E+03 0.  0.
         24    2    1    2    0    0 -0.43332018309E+02  0.56412376103E+02  0.52024587699E+01  0.10718095886E+03  0.80004202249E+02 0.  0.
        -11    1    5    5    0    0 -0.26701453120E+02  0.59030918238E+02 -0.27512254921E+02  0.70388501033E+02  0.00000000000E+00 0.  1.
         12    1    5    5    0    0 -0.16630565189E+02 -0.26185421356E+01  0.32714713691E+02  0.36792457832E+02  0.00000000000E+00 0. -1.
         13    1    3    3    0    0 -0.35584404934E+02 -0.44258996854E+02 -0.57318348970E+03  0.57598994917E+03  0.00000000000E+00 0. -1.
        -14    1    3    3    0    0  0.30361666479E+02  0.27193864805E+02 -0.41566085658E+03  0.41765450406E+03  0.00000000000E+00 0.  1.
          5    1    4    4  501    0  0.51391487060E+02  0.32703202774E+02  0.62422917467E+02  0.87319398985E+02  0.41800000000E+01 0. -1.
         -5    1    4    4    0  501 -0.28367302958E+01 -0.72050446827E+02  0.19831966569E+02  0.74900555571E+02  0.41800000000E+01 0. -1.
</event>
<event>
11    1  0.6625361E-009  0.1272199E+03  0.7561462E-02  0.1122733E+00
         22   -1    0    0    0    0  0.00000000000E+00  0.00000000000E+00  0.84438544747E+03  0.84438544747E+03  0.00000000000E+00 0.  1.
         22   -1    0    0    0    0 -0.00000000000E+00 -0.00000000000E+00 -0.22953337438E+03  0.22953337438E+03  0.00000000000E+00 0.  1.
         24    2    1    2    0    0 -0.13277767524E+02  0.13976049932E+01 -0.18467546791E+03  0.20179878090E+03  0.80246290340E+02 0.  0.
         25    2    1    2    0    0 -0.40601935893E+01  0.15042257573E+02  0.83439628512E+02  0.15116906622E+03  0.12508860975E+03 0.  0.
        -24    2    1    2    0    0  0.17337961114E+02 -0.16439862567E+02  0.71608791249E+03  0.72095097473E+03  0.80109522294E+02 0.  0.
        -11    1    3    3    0    0 -0.42278727740E+02  0.26346087062E+00 -0.15345044781E+03  0.15916846473E+03  0.00000000000E+00 0.  1.
         12    1    3    3    0    0  0.29000960216E+02  0.11341441226E+01 -0.31225020103E+02  0.42630316170E+02  0.00000000000E+00 0. -1.
         13    1    5    5    0    0 -0.68883319374E+01  0.23963887925E+02  0.99896072940E+02  0.10296087815E+03  0.00000000000E+00 0. -1.
        -14    1    5    5    0    0  0.24226293051E+02 -0.40403750492E+02  0.61619183955E+03  0.61799009657E+03  0.00000000000E+00 0.  1.
          5    1    4    4  501    0 -0.29096224230E+02 -0.41616327990E+02  0.71739719487E+02  0.87991867646E+02  0.41800000000E+01 0. -1.
         -5    1    4    4    0  501  0.25036030640E+02  0.56658585564E+02  0.11699909025E+02  0.63177198573E+02  0.41800000000E+01 0. -1.
</event>
<event>
11    1  0.6625361E-009  0.1367776E+03  0.7561462E-02  0.1111211E+00
         22   -1    0    0    0    0  0.00000000000E+00  0.00000000000E+00  0.71359112882E+03  0.71359112882E+03  0.00000000000E+00 0.  1.
         22   -1    0    0    0    0 -0.00000000000E+00 -0.00000000000E+00 -0.76667653458E+03  0.76667653458E+03  0.00000000000E+00 0. -1.
        -24    2    1    2    0    0 -0.32984323924E+02 -0.44094947163E+02 -0.73248399231E+03  0.73878783073E+03  0.79008416309E+02 0.  0.
         25    2    1    2    0    0  0.49564434248E+02  0.48534716474E+02  0.15619413541E+03  0.21180069973E+03  0.12510266434E+03 0.  0.
         24    2    1    2    0    0 -0.16580110324E+02 -0.44397693111E+01  0.52320445114E+03  0.52967913294E+03  0.80761838545E+02 0.  0.
        -13    1    5    5    0    0 -0.61046786168E+01  0.12419916551E+02  0.49498323012E+03  0.49517665487E+03  0.00000000000E+00 0.  1.
         14    1    5    5    0    0 -0.10475431707E+02 -0.16859685863E+02  0.28221221020E+02  0.34502478066E+02  0.00000000000E+00 0. -1.
         11    1    3    3    0    0 -0.54205714389E+02 -0.49033683375E+02 -0.61201953891E+03  0.61636878375E+03  0.00000000000E+00 0. -1.
        -12    1    3    3    0    0  0.21221390465E+02  0.49387362122E+01 -0.12046445340E+03  0.12241904697E+03  0.00000000000E+00 0.  1.
          5    1    4    4  501    0  0.42647182917E+02 -0.36091378712E+02  0.45162269770E+02  0.71961606700E+02  0.41800000000E+01 0.  1.
         -5    1    4    4    0  501  0.69172513310E+01  0.84626095186E+02  0.11103186564E+03  0.13983909303E+03  0.41800000000E+01 0.  1.
</event>
<event>
11    1  0.6625361E-009  0.1691010E+03  0.7561462E-02  0.1078817E+00
         22   -1    0    0    0    0  0.00000000000E+00  0.00000000000E+00  0.34228496866E+03  0.34228496866E+03  0.00000000000E+00 0. -1.
         22   -1    0    0    0    0 -0.00000000000E+00 -0.00000000000E+00 -0.35669510071E+04  0.35669510071E+04  0.00000000000E+00 0. -1.
         24    2    1    2    0    0  0.74626490060E+02 -0.51371937134E+02 -0.32780311935E+04  0.32802972198E+04  0.81566880580E+02 0.  0.
         25    2    1    2    0    0 -0.15328682873E+03 -0.29550985681E+02 -0.23530921545E+03  0.30884994719E+03  0.12509096846E+03 0.  0.
        -24    2    1    2    0    0  0.78660338669E+02  0.80922922815E+02  0.28867437043E+03  0.32008880881E+03  0.79924871365E+02 0.  0.
        -13    1    3    3    0    0  0.27428359310E+02  0.17476297373E+02 -0.52885812229E+03  0.52985719716E+03  0.00000000000E+00 0.  1.
         14    1    3    3    0    0  0.47198130750E+02 -0.68848234507E+02 -0.27491730712E+04  0.27504400226E+04  0.00000000000E+00 0. -1.
         13    1    5    5    0    0  0.34528042231E+02  0.87072470055E+02  0.19108757722E+03  0.21281039192E+03  0.00000000000E+00 0. -1.
        -14    1    5    5    0    0  0.44132296438E+02 -0.61495472398E+01  0.97586793215E+02  0.10727841689E+03  0.00000000000E+00 0.  1.
          5    1    4    4  501    0 -0.30888363009E+02 -0.60134378686E+02 -0.48160158981E+02  0.83109011439E+02  0.41800000000E+01 0.  1.
         -5    1    4    4    0  501 -0.12239846572E+03  0.30583393005E+02 -0.18714905647E+03  0.22574093575E+03  0.41800000000E+01 0.  1.
</event>
<event>
11    1  0.6625361E-009  0.1969675E+03  0.7561462E-02  0.1056689E+00
         22   -1    0    0    0    0  0.00000000000E+00  0.00000000000E+00  0.67972784430E+03  0.67972784430E+03  0.00000000000E+00 0.  1.
         22   -1    0    0    0    0 -0.00000000000E+00 -0.00000000000E+00 -0.13337127430E+04  0.13337127430E+04  0.00000000000E+00 0. -1.
         24    2    1    2    0    0  0.99025722657E+02 -0.11721188577E+03 -0.12816164255E+04  0.12934412308E+04  0.83095340336E+02 0.  0.
         25    2    1    2    0    0 -0.56307196538E+02  0.10164027783E+03  0.13176084280E+03  0.21566182151E+03  0.12509138701E+03 0.  0.
        -24    2    1    2    0    0 -0.42718526119E+02  0.15571607941E+02  0.49587068402E+03  0.50433753493E+03  0.80007914762E+02 0.  0.
        -13    1    3    3    0    0  0.96563525512E+00  0.72537579161E+00  0.10721800984E+01  0.16149896744E+01  0.00000000000E+00 0.  1.
         14    1    3    3    0    0  0.98060087402E+02 -0.11793726156E+03 -0.12826886056E+04  0.12918262411E+04  0.00000000000E+00 0. -1.
         13    1    5    5    0    0  0.95018520960E+01  0.18246047882E+02  0.35680073400E+02  0.41185811810E+02  0.00000000000E+00 0. -1.
        -14    1    5    5    0    0 -0.52220378215E+02 -0.26744399418E+01  0.46019061062E+03  0.46315172312E+03  0.00000000000E+00 0.  1.
          5    1    4    4  501    0 -0.94220058186E+02  0.87688282348E+02  0.88098714334E+02  0.15603047809E+03  0.41800000000E+01 0. -1.
         -5    1    4    4    0  501  0.37912861648E+02  0.13951995482E+02  0.43662128468E+02  0.59631343424E+02  0.41800000000E+01 0. -1.
</event>
<event>
11    1  0.6625361E-009  0.1531084E+03  0.7561462E-02  0.1093744E+00
         22   -1    0    0    0    0  0.00000000000E+00  0.00000000000E+00  0.10764580113E+04  0.10764580113E+04  0.00000000000E+00 0.  1.
         22   -1    0    0    0    0 -0.00000000000E+00 -0.00000000000E+00 -0.12029635004E+04  0.12029635004E+04  0.00000000000E+00 0.  1.
        -24    2    1    2    0    0  0.98197905210E+01 -0.48699271319E+02 -0.11231862481E+04  0.11271919304E+04  0.80908916536E+02 0.  0.
         25    2    1    2    0    0 -0.51785816866E+02 -0.30925276035E+02 -0.93692357300E+01  0.13918847753E+03  0.12508999230E+03 0.  0.
         24    2    1    2    0    0  0.41966026345E+02  0.79624547354E+02  0.10060499948E+04  0.10130411038E+04  0.77553015340E+02 0.  0.
        -13    1    5    5    0    0 -0.27414558841E+00  0.47119682484E+02  0.75124547210E+03  0.75272179388E+03  0.00000000000E+00 0.  1.
         14    1    5    5    0    0  0.42240171933E+02  0.32504864870E+02  0.25480452265E+03  0.26031930994E+03  0.00000000000E+00 0. -1.
         11    1    3    3    0    0  0.27563684742E+02 -0.56828386023E+02 -0.54032149931E+03  0.54400050072E+03  0.00000000000E+00 0. -1.
        -12    1    3    3    0    0 -0.17743894221E+02  0.81291147038E+01 -0.58286474878E+03  0.58319142969E+03  0.00000000000E+00 0.  1.
          5    1    4    4  501    0  0.30922257703E+01  0.43204442652E+02  0.10460834905E+02  0.44755862096E+02  0.41800000000E+01 0.  1.
         -5    1    4    4    0  501 -0.54878042636E+02 -0.74129718686E+02 -0.19830070635E+02  0.94432615433E+02  0.41800000000E+01 0.  1.
</event>
<event>
11    1  0.6625361E-009  0.1607821E+03  0.7561462E-02  0.1086344E+00
         22   -1    0    0    0    0  0.00000000000E+00  0.00000000000E+00  0.10728381085E+04  0.10728381085E+04  0.00000000000E+00 0. -1.
         22   -1    0    0    0    0 -0.00000000000E+00 -0.00000000000E+00 -0.75482562024E+02  0.75482562024E+02  0.00000000000E+00 0. -1.
         24    2    1    2    0    0 -0.45114667944E+02  0.88924213133E+02  0.23180249937E+02  0.13294667110E+03  0.84821249838E+02 0.  0.
         25    2    1    2    0    0 -0.11879753588E+02 -0.12627349408E+03  0.53924642610E+03  0.56791245828E+03  0.12510686770E+03 0.  0.
        -24    2    1    2    0    0  0.56994421532E+02  0.37349280951E+02  0.43492887042E+03  0.44746154114E+03  0.80096039833E+02 0.  0.
        -13    1    3    3    0    0 -0.53971278000E+02  0.94225536699E+02  0.37862099893E+02  0.11499951836E+03  0.00000000000E+00 0.  1.
         14    1    3    3    0    0  0.88566100560E+01 -0.53013235661E+01 -0.14681849956E+02  0.17947152737E+02  0.00000000000E+00 0. -1.
         11    1    5    5    0    0  0.75555693720E+02  0.16690153185E+02  0.31723395577E+03  0.32653423521E+03  0.00000000000E+00 0. -1.
        -12    1    5    5    0    0 -0.18561272188E+02  0.20659127767E+02  0.11769491465E+03  0.12092730593E+03  0.00000000000E+00 0.  1.
          5    1    4    4  501    0  0.52175982606E+01 -0.20846786304E+02  0.41969407278E+01  0.22291221193E+02  0.41800000000E+01 0. -1.
         -5    1    4    4    0  501 -0.17097351848E+02 -0.10542670778E+03  0.53504948538E+03  0.54562123708E+03  0.41800000000E+01 0. -1.
</event>
<event>
11    1  0.6625361E-009  0.1408011E+03  0.7561462E-02  0.1106667E+00
         22   -1    0    0    0    0  0.00000000000E+00  0.00000000000E+00  0.23326602845E+03  0.23326602845E+03  0.00000000000E+00 0.  1.
         22   -1    0    0    0    0 -0.00000000000E+00 -0.00000000000E+00 -0.19177427205E+04  0.19177427205E+04  0.00000000000E+00 0. -1.
        -24    2    1    2    0    0  0.29784307965E+02  0.58437585830E+02 -0.15862689663E+04  0.15897309020E+04  0.81811069563E+02 0.  0.
         25    2    1    2    0    0 -0.53744682989E+02 -0.34596198976E+02 -0.30580637171E+03  0.33652897399E+03  0.12509526539E+03 0.  0.
         24    2    1    2    0    0  0.23960375024E+02 -0.23841386854E+02  0.20759864590E+03  0.22474887295E+03  0.79198149040E+02 0.  0.
        -11    1    5    5    0    0  0.15451303177E+02  0.79046754073E+01  0.18268304329E+03  0.18350564288E+03  0.00000000000E+00 0.  1.
         12    1    5    5    0    0  0.85090718474E+01 -0.31746062262E+02  0.24915602616E+02  0.41243230069E+02  0.00000000000E+00 0. -1.
         13    1    3    3    0    0  0.36972535783E+02  0.15618518750E+02 -0.12533707207E+04  0.12540131858E+04  0.00000000000E+00 0. -1.
        -14    1    3    3    0    0 -0.71882278189E+01  0.42819067080E+02 -0.33289824557E+03  0.33571771629E+03  0.00000000000E+00 0.  1.
          5    1    4    4  501    0 -0.59706468708E+02  0.12881321945E+02 -0.58767687625E+02  0.84864034605E+02  0.41800000000E+01 0. -1.
         -5    1    4    4    0  501  0.59617857195E+01 -0.47477520921E+02 -0.24703868409E+03  0.25166493939E+03  0.41800000000E+01 0. -1.
</event>
<event>
11    1  0.6625361E-009  0.1870111E+03  0.7561462E-02  0.1064109E+00
         22   -1    0    0    0    0  0.00000000000E+00  0.00000000000E+00  0.15493991332E+03  0.15493991332E+03  0.00000000000E+00 0.  1.
         22   -1    0    0    0    0 -0.00000000000E+00 -0.00000000000E+00 -0.20762419378E+04  0.20762419378E+04  0.00000000000E+00 0. -1.
        -24    2    1    2    0    0 -0.35931516321E+02  0.32251145874E+02 -0.15531192533E+04  0.15560094163E+04  0.81576212206E+02 0.  0.
         25    2    1    2    0    0 -0.10642841650E+03 -0.29162218668E+02 -0.45848464026E+03  0.48788544242E+03  0.12508635711E+03 0.  0.
         24    2    1    2    0    0  0.14235993282E+03 -0.30889272068E+01  0.90301869050E+02  0.18728699242E+03  0.81523604138E+02 0.  0.
        -13    1    5    5    0    0  0.13788595051E+03  0.60326011678E+01  0.10212905879E+03  0.17169528902E+03  0.00000000000E+00 0.  1.
         14    1    5    5    0    0  0.44739823120E+01 -0.91215283746E+01 -0.11827189739E+02  0.15591703394E+02  0.00000000000E+00 0. -1.
         13    1    3    3    0    0 -0.13726685048E+02  0.17173110761E+02 -0.14220638288E+04  0.14222337610E+04  0.00000000000E+00 0. -1.
        -14    1    3    3    0    0 -0.22204831273E+02  0.15078035114E+02 -0.13105542445E+03  0.13377565531E+03  0.00000000000E+00 0.  1.
          5    1    4    4  501    0 -0.18804183936E+02 -0.99213086293E+01 -0.10237366452E+01  0.21692167599E+02  0.41800000000E+01 0. -1.
         -5    1    4    4    0  501 -0.87624232562E+02 -0.19240910038E+02 -0.45746090362E+03  0.46619327482E+03  0.41800000000E+01 0. -1.
</event>
<event>
11    1  0.6625361E-009  0.1370375E+03  0.7561462E-02  0.1110912E+00
         22   -1    0    0    0    0  0.00000000000E+00  0.00000000000E+00  0.64099433182E+03  0.64099433182E+03  0.00000000000E+00 0. -1.
         22   -1    0    0    0    0 -0.00000000000E+00 -0.00000000000E+00 -0.52956288238E+03  0.52956288238E+03  0.00000000000E+00 0.  1.
         24    2    1    2    0    0  0.12933515513E+02  0.98794716470E+01 -0.50444537455E+03  0.51112722535E+03  0.80752862494E+02 0.  0.
         25    2    1    2    0    0  0.39260274893E+02  0.25430033975E+02  0.34965626710E+03  0.37429308734E+03  0.12509098405E+03 0.  0.
        -24    2    1    2    0    0 -0.52193790406E+02 -0.35309505622E+02  0.26622055688E+03  0.28513690152E+03  0.80366129423E+02 0.  0.
        -13    1    3    3    0    0 -0.26276836110E+02  0.25346664896E+02 -0.31144853765E+03  0.31358111732E+03  0.00000000000E+00 0.  1.
         14    1    3    3    0    0  0.39210351623E+02 -0.15467193249E+02 -0.19299683690E+03  0.19754610803E+03  0.00000000000E+00 0. -1.
         11    1    5    5    0    0 -0.16875478959E+01  0.42869198396E+01  0.16641095327E+03  0.16647471540E+03  0.00000000000E+00 0. -1.
        -12    1    5    5    0    0 -0.50506242510E+02 -0.39596425462E+02  0.99809603615E+02  0.11866218612E+03  0.00000000000E+00 0.  1.
          5    1    4    4  501    0  0.66757494458E+02  0.59517057626E+02  0.23767219129E+03  0.25397713701E+03  0.41800000000E+01 0. -1.
         -5    1    4    4    0  501 -0.27497219565E+02 -0.34087023651E+02  0.11198407582E+03  0.12031595032E+03  0.41800000000E+01 0. -1.
</event>
<event>
11    1  0.6625361E-009  0.1369361E+03  0.7561462E-02  0.1111029E+00
         22   -1    0    0    0    0  0.00000000000E+00  0.00000000000E+00  0.23779221080E+04  0.23779221080E+04  0.00000000000E+00 0.  1.
         22   -1    0    0    0    0 -0.00000000000E+00 -0.00000000000E+00 -0.60628904351E+02  0.60628904351E+02  0.00000000000E+00 0.  1.
         24    2    1    2    0    0  0.46941464763E+02  0.26511892503E+02 -0.79330187079E+01  0.97150618174E+02  0.80429647939E+02 0.  0.
         25    2    1    2    0    0 -0.70644144885E+02 -0.67757824637E+02  0.96276035199E+03  0.97577446861E+03  0.12508637106E+03 0.  0.
        -24    2    1    2    0    0  0.23702680122E+02  0.41245932134E+02  0.13624658704E+04  0.13656259256E+04  0.79736294728E+02 0.  0.
        -11    1    3    3    0    0  0.42729929206E+02  0.16200118519E+01 -0.38477284723E+02  0.57523671023E+02  0.00000000000E+00 0.  1.
         12    1    3    3    0    0  0.42115355577E+01  0.24891880651E+02  0.30544266015E+02  0.39626947151E+02  0.00000000000E+00 0. -1.
         11    1    5    5    0    0 -0.70476940948E+01 -0.21580296083E+02  0.29687100870E+03  0.29773776209E+03  0.00000000000E+00 0. -1.
        -12    1    5    5    0    0  0.30750374217E+02  0.62826228217E+02  0.10655948617E+04  0.10678881635E+04  0.00000000000E+00 0.  1.
          5    1    4    4  501    0 -0.10899392177E+02  0.11526260675E+02  0.13272530096E+02  0.21101750878E+02  0.41800000000E+01 0. -1.
         -5    1    4    4    0  501 -0.59744752709E+02 -0.79284085312E+02  0.94948782190E+03  0.95467271774E+03  0.41800000000E+01 0. -1.
</event>
<event>
11    1  0.6625361E-009  0.1885095E+03  0.7561462E-02  0.1062960E+00
         22   -1    0    0    0    0  0.00000000000E+00  0.00000000000E+00  0.80449056580E+03  0.80449056580E+03  0.00000000000E+00 0.  1.
         22   -1    0    0    0    0 -0.00000000000E+00 -0.00000000000E+00 -0.51843275024E+03  0.51843275024E+03  0.00000000000E+00 0.  1.
        -24    2    1    2    0    0  0.44208241572E+02  0.44714515322E+02 -0.46083951349E+03  0.47159633686E+03  0.77950569192E+02 0.  0.
         25    2    1    2    0    0  0.10193241304E+02  0.99127009160E+02  0.11730467448E+03  0.19833717101E+03  0.12508869109E+03 0.  0.
         24    2    1    2    0    0 -0.54401482875E+02 -0.14384152448E+03  0.62959265458E+03  0.65298980818E+03  0.79742544377E+02 0.  0.
        -11    1    5    5    0    0 -0.57234712328E+02 -0.13386982395E+03  0.62485462460E+03  0.64159196063E+03  0.00000000000E+00 0.  1.
         12    1    5    5    0    0  0.28332294528E+01 -0.99717005362E+01  0.47380299760E+01  0.11397847550E+02  0.00000000000E+00 0. -1.
         13    1    3    3    0    0  0.22122107620E+02  0.93760843140E+01 -0.28602320175E+02  0.37354937050E+02  0.00000000000E+00 0. -1.
        -14    1    3    3    0    0  0.22086133952E+02  0.35338431008E+02 -0.43223719332E+03  0.43424139981E+03  0.00000000000E+00 0.  1.
          5    1    4    4  501    0  0.11025816136E+02  0.21295383823E+02 -0.25743773704E+02  0.35429878325E+02  0.41800000000E+01 0.  1.
         -5    1    4    4    0  501 -0.83257483235E+00  0.77831625337E+02  0.14304844818E+03  0.16290729269E+03  0.41800000000E+01 0.  1.
</event>
<event>
11    1  0.6625361E-009  0.1526159E+03  0.7561462E-02  0.1094235E+00
         22   -1    0    0    0    0  0.00000000000E+00  0.00000000000E+00  0.39237865910E+03  0.39237865910E+03  0.00000000000E+00 0.  1.
         22   -1    0    0    0    0 -0.00000000000E+00 -0.00000000000E+00 -0.12410022360E+04  0.12410022360E+04  0.00000000000E+00 0. -1.
        -24    2    1    2    0    0 -0.72182445673E+01 -0.87986227010E+02 -0.93019556935E+03  0.93792543650E+03  0.81526977187E+02 0.  0.
         25    2    1    2    0    0  0.34468917131E+02  0.79865252009E+02 -0.28276874056E+03  0.32120616593E+03  0.12509466682E+03 0.  0.
         24    2    1    2    0    0 -0.27250672564E+02  0.81209750011E+01  0.36434073302E+03  0.37424929265E+03  0.80683417884E+02 0.  0.
        -11    1    5    5    0    0 -0.19256793485E+02  0.44358230946E+02  0.19802562897E+03  0.20384461356E+03  0.00000000000E+00 0.  1.
         12    1    5    5    0    0 -0.79938790792E+01 -0.36237255944E+02  0.16631510405E+03  0.17040467909E+03  0.00000000000E+00 0. -1.
         13    1    3    3    0    0 -0.31299375088E+02 -0.71000723793E+02 -0.82618853019E+03  0.82982422300E+03  0.00000000000E+00 0. -1.
        -14    1    3    3    0    0  0.24081130520E+02 -0.16985503217E+02 -0.10400703915E+03  0.10810121350E+03  0.00000000000E+00 0.  1.
          5    1    4    4  501    0 -0.45387550387E+02  0.48253784288E+02 -0.12260429320E+03  0.13941930476E+03  0.41800000000E+01 0.  1.
         -5    1    4    4    0  501  0.79856467518E+02  0.31611467722E+02 -0.16016444736E+03  0.18178686117E+03  0.41800000000E+01 0.  1.
</event>
<event>
11    1  0.6625361E-009  0.3061618E+03  0.7561462E-02  0.9976166E-01
         22   -1    0    0    0    0  0.00000000000E+00  0.00000000000E+00  0.69587908341E+03  0.69587908341E+03  0.00000000000E+00 0. -1.
         22   -1    0    0    0    0 -0.00000000000E+00 -0.00000000000E+00 -0.19248210903E+04  0.19248210903E+04  0.00000000000E+00 0. -1.
        -24    2    1    2    0    0  0.25734761127E+03 -0.10499983169E+03 -0.17187425315E+04  0.17429524659E+04  0.80960800675E+02 0.  0.
         25    2    1    2    0    0 -0.26325248522E+03  0.13924758842E+03 -0.53532262859E+02  0.32741544030E+03  0.12507360045E+03 0.  0.
         24    2    1    2    0    0  0.59048739433E+01 -0.34247756725E+02  0.54333278745E+03  0.55033226748E+03  0.80295145122E+02 0.  0.
        -11    1    5    5    0    0 -0.18887957931E+02 -0.52013755262E+02  0.29624307363E+03  0.30136712556E+03  0.00000000000E+00 0.  1.
         12    1    5    5    0    0  0.24792831875E+02  0.17765998537E+02  0.24708971382E+03  0.24896514192E+03  0.00000000000E+00 0. -1.
         11    1    3    3    0    0  0.20090285120E+03 -0.81424619889E+02 -0.10973684910E+04  0.11185747760E+04  0.00000000000E+00 0. -1.
        -12    1    3    3    0    0  0.56444760070E+02 -0.23575211803E+02 -0.62137404043E+03  0.62437768992E+03  0.00000000000E+00 0.  1.
          5    1    4    4  501    0 -0.18657670048E+03  0.11129959476E+03  0.19039736244E+02  0.21812484707E+03  0.41800000000E+01 0.  1.
         -5    1    4    4    0  501 -0.76675784739E+02  0.27947993655E+02 -0.72571999102E+02  0.10929059323E+03  0.41800000000E+01 0.  1.
</event>
<event>
11    1  0.6625361E-009  0.1335838E+03  0.7561462E-02  0.1114942E+00
         22   -1    0    0    0    0  0.00000000000E+00  0.00000000000E+00  0.13453661068E+04  0.13453661068E+04  0.00000000000E+00 0. -1.
         22   -1    0    0    0    0 -0.00000000000E+00 -0.00000000000E+00 -0.16929148130E+03  0.16929148130E+03  0.00000000000E+00 0.  1.
        -24    2    1    2    0    0 -0.30654779394E+02  0.79202768727E+01 -0.90660801850E+02  0.12514879462E+03  0.80252062390E+02 0.  0.
         25    2    1    2    0    0  0.21357482452E+01 -0.45572580391E+02  0.14923047767E+02  0.13398373408E+03  0.12509005612E+03 0.  0.
         24    2    1    2    0    0  0.28519031149E+02  0.37652303519E+02  0.12518123796E+04  0.12555250594E+04  0.84130315738E+02 0.  0.
        -13    1    5    5    0    0  0.93793441907E+01 -0.18598277967E+02  0.98262692977E+02  0.10044612920E+03  0.00000000000E+00 0.  1.
         14    1    5    5    0    0  0.19139686958E+02  0.56250581486E+02  0.11535496866E+04  0.11550789302E+04  0.00000000000E+00 0. -1.
         11    1    3    3    0    0 -0.16997083916E+02  0.26054516778E+02  0.59232644668E+00  0.31114137571E+02  0.00000000000E+00 0. -1.
        -12    1    3    3    0    0 -0.13657695478E+02 -0.18134239906E+02 -0.91253128296E+02  0.94034657051E+02  0.00000000000E+00 0.  1.
          5    1    4    4  501    0 -0.21300660055E+02 -0.79989588648E+02  0.31918404116E+02  0.88816154680E+02  0.41800000000E+01 0.  1.
         -5    1    4    4    0  501  0.23436408300E+02  0.34417008257E+02 -0.16995356349E+02  0.45167579399E+02  0.41800000000E+01 0.  1.
</event>
<event>
11    1  0.6625361E-009  0.1623534E+03  0.7561462E-02  0.1084884E+00
         22   -1    0    0    0    0  0.00000000000E+00  0.00000000000E+00  0.23426132690E+04  0.23426132690E+04  0.00000000000E+00 0. -1.
         22   -1    0    0    0    0 -0.00000000000E+00 -0.00000000000E+00 -0.54026363762E+03  0.54026363762E+03  0.00000000000E+00 0.  1.
        -24    2    1    2    0    0  0.46642680002E+02 -0.21518707753E+02 -0.40970733143E+03  0.42046696656E+03  0.79333335759E+02 0.  0.
         25    2    1    2    0    0 -0.98622646004E+02  0.11028371423E+03 -0.47217915508E+02  0.19941554647E+03  0.12509238465E+03 0.  0.
         24    2    1    2    0    0  0.51979966002E+02 -0.88765006480E+02  0.22592748783E+04  0.22629943936E+04  0.78990546530E+02 0.  0.
        -13    1    5    5    0    0  0.35702419318E+02  0.26763926099E+01  0.50964715190E+03  0.51090316623E+03  0.00000000000E+00 0.  1.
         14    1    5    5    0    0  0.16277546683E+02 -0.91441399090E+02  0.17496277264E+04  0.17520912273E+04  0.00000000000E+00 0. -1.
         13    1    3    3    0    0 -0.22462274192E+02 -0.12756884551E+01 -0.95915214188E+02  0.98518574165E+02  0.00000000000E+00 0. -1.
        -14    1    3    3    0    0  0.69104954194E+02 -0.20243019298E+02 -0.31379211724E+03  0.32194839240E+03  0.00000000000E+00 0.  1.
          5    1    4    4  501    0 -0.29641154744E+02 -0.22154120607E+02  0.11393051839E+02  0.38944539343E+02  0.41800000000E+01 0.  1.
         -5    1    4    4    0  501 -0.68981491260E+02  0.13243783484E+03 -0.58610967347E+02  0.16047100712E+03  0.41800000000E+01 0.  1.
</event>
<event>
11    1  0.6625361E-009  0.1365034E+03  0.7561462E-02  0.1111527E+00
         22   -1    0    0    0    0  0.00000000000E+00  0.00000000000E+00  0.66298762217E+03  0.66298762217E+03  0.00000000000E+00 0.  1.
         22   -1    0    0    0    0 -0.00000000000E+00 -0.00000000000E+00 -0.21071606171E+03  0.21071606171E+03  0.00000000000E+00 0. -1.
         24    2    1    2    0    0  0.53445790004E+02 -0.21822419049E+02 -0.15991144848E+03  0.18918756390E+03  0.82991520873E+02 0.  0.
         25    2    1    2    0    0 -0.37201550072E+02 -0.30245129711E+02  0.11108856833E+03  0.17403276092E+03  0.12509200079E+03 0.  0.
        -24    2    1    2    0    0 -0.16244239931E+02  0.52067548760E+02  0.50109444062E+03  0.51048335906E+03  0.80763336276E+02 0.  0.
        -13    1    3    3    0    0  0.15496779260E+02  0.31554064542E+02 -0.64567494359E+02  0.73517144153E+02  0.00000000000E+00 0.  1.
         14    1    3    3    0    0  0.37949010743E+02 -0.53376483591E+02 -0.95343954124E+02  0.11567041975E+03  0.00000000000E+00 0. -1.
         13    1    5    5    0    0  0.29157730487E+02  0.41316232319E+02  0.27806565888E+03  0.28262645833E+03  0.00000000000E+00 0. -1.
        -14    1    5    5    0    0 -0.45401970418E+02  0.10751316441E+02  0.22302878174E+03  0.22785690072E+03  0.00000000000E+00 0.  1.
          5    1    4    4  501    0 -0.12873514436E+02  0.42318492800E+02  0.79618307919E+02  0.91176365154E+02  0.41800000000E+01 0. -1.
         -5    1    4    4    0  501 -0.24328035636E+02 -0.72563622511E+02  0.31470260406E+02  0.82856395769E+02  0.41800000000E+01 0. -1.
</event>
<event>
11    1  0.6625361E-009  0.1809601E+03  0.7561462E-02  0.1068869E+00
         22   -1    0    0    0    0  0.00000000000E+00  0.00000000000E+00  0.82460138056E+03  0.82460138056E+03  0.00000000000E+00 0.  1.
         22   -1    0    0    0    0 -0.00000000000E+00 -0.00000000000E+00 -0.89395683336E+03  0.89395683336E+03  0.00000000000E+00 0.  1.
        -24    2    1    2    0    0  0.70476866397E+02  0.10804977790E+03 -0.74994827862E+03  0.76526395432E+03  0.81023181737E+02 0.  0.
         25    2    1    2    0    0 -0.89151550306E+02 -0.11698647800E+03 -0.64878605887E+02  0.20369136329E+03  0.12508838084E+03 0.  0.
         24    2    1    2    0    0  0.18674683909E+02  0.89367001043E+01  0.74547143170E+03  0.74960289631E+03  0.75817136922E+02 0.  0.
        -13    1    5    5    0    0  0.30954554520E+02 -0.12777919495E+02  0.65201052539E+03  0.65286996017E+03  0.00000000000E+00 0.  1.
         14    1    5    5    0    0 -0.12279870611E+02  0.21714619599E+02  0.93460906310E+02  0.96732936143E+02  0.00000000000E+00 0. -1.
         13    1    3    3    0    0  0.27130792824E+02 -0.85151306045E+00 -0.66313667924E+02  0.71654082558E+02  0.00000000000E+00 0. -1.
        -14    1    3    3    0    0  0.43346073573E+02  0.10890129096E+03 -0.68363461069E+03  0.69360987176E+03  0.00000000000E+00 0.  1.
          5    1    4    4  501    0 -0.47945340732E+02 -0.13693794079E+03 -0.36509696796E+02  0.14967025651E+03  0.41800000000E+01 0.  1.
         -5    1    4    4    0  501 -0.41206209574E+02  0.19951462782E+02 -0.28368909090E+02  0.54021106779E+02  0.41800000000E+01 0.  1.
</event>
<event>
11    1  0.6625361E-009  0.1393402E+03  0.7561462E-02  0.1108297E+00
         22   -1    0    0    0    0  0.00000000000E+00  0.00000000000E+00  0.22818375983E+04  0.22818375983E+04  0.00000000000E+00 0.  1.
         22   -1    0    0    0    0 -0.00000000000E+00 -0.00000000000E+00 -0.69404610465E+03  0.69404610465E+03  0.00000000000E+00 0. -1.
        -24    2    1    2    0    0  0.74068257649E+02 -0.34160718134E+01 -0.22951541833E+03  0.25383873739E+03  0.79113848413E+02 0.  0.
         25    2    1    2    0    0 -0.50236639062E+02 -0.13892406467E+02 -0.44137837958E+03  0.46171352193E+03  0.12509110084E+03 0.  0.
         24    2    1    2    0    0 -0.23831618587E+02  0.17308478280E+02  0.22586852916E+04  0.22603314436E+04  0.81064537748E+02 0.  0.
        -11    1    5    5    0    0  0.22873558930E+02  0.21617143188E+02  0.14098875258E+04  0.14102387515E+04  0.00000000000E+00 0.  1.
         12    1    5    5    0    0 -0.46705177517E+02 -0.43086649084E+01  0.84879776572E+03  0.85009269218E+03  0.00000000000E+00 0. -1.
         13    1    3    3    0    0  0.27827159807E+02  0.37381675627E+02 -0.10567928426E+03  0.11549827538E+03  0.00000000000E+00 0. -1.
        -14    1    3    3    0    0  0.46241097842E+02 -0.40797747440E+02 -0.12383613407E+03  0.13834046201E+03  0.00000000000E+00 0.  1.
          5    1    4    4  501    0 -0.18178704114E+02 -0.33102059189E+02 -0.29451488984E+02  0.48073633201E+02  0.41800000000E+01 0. -1.
         -5    1    4    4    0  501 -0.32057934949E+02  0.19209652723E+02 -0.41192689059E+03  0.41363988873E+03  0.41800000000E+01 0. -1.
</event>
<event>
11    1  0.6625361E-009  0.1415637E+03  0.7561462E-02  0.1105825E+00
         22   -1    0    0    0    0  0.00000000000E+00  0.00000000000E+00  0.17769303685E+03  0.17769303685E+03  0.00000000000E+00 0. -1.
         22   -1    0    0    0    0 -0.00000000000E+00 -0.00000000000E+00 -0.34171826106E+03  0.34171826106E+03  0.00000000000E+00 0. -1.
         24    2    1    2    0    0  0.26881447536E+02 -0.54571035601E+02 -0.18209042390E+03  0.20847626969E+03  0.81270058440E+02 0.  0.
         25    2    1    2    0    0 -0.40967811919E+02  0.73513020377E+02 -0.88949798565E+02  0.17504568111E+03  0.12508556284E+03 0.  0.
        -24    2    1    2    0    0  0.14086364382E+02 -0.18941984776E+02  0.10701499826E+03  0.13588934711E+03  0.80352226828E+02 0.  0.
        -13    1    3    3    0    0  0.35701834209E+02 -0.62704220559E+02 -0.88810425614E+02  0.11442784600E+03  0.00000000000E+00 0.  1.
         14    1    3    3    0    0 -0.88203866723E+01  0.81331849582E+01 -0.93279998285E+02  0.94048423690E+02  0.00000000000E+00 0. -1.
         11    1    5    5    0    0  0.45200960362E+02 -0.41648522137E+01  0.80517714727E+02  0.92431462157E+02  0.00000000000E+00 0. -1.
        -12    1    5    5    0    0 -0.31114595980E+02 -0.14777132563E+02  0.26497283531E+02  0.43457884950E+02  0.00000000000E+00 0.  1.
          5    1    4    4  501    0 -0.60611087119E+02  0.99089256801E+02 -0.80688783476E+02  0.14149394642E+03  0.41800000000E+01 0. -1.
         -5    1    4    4    0  501  0.19643275201E+02 -0.25576236424E+02 -0.82610150894E+01  0.33551734688E+02  0.41800000000E+01 0. -1.
</event>
<event>
11    1  0.6625361E-009  0.1571498E+03  0.7561462E-02  0.1089789E+00
         22   -1    0    0    0    0  0.00000000000E+00  0.00000000000E+00  0.37938868140E+03  0.37938868140E+03  0.00000000000E+00 0.  1.
         22   -1    0    0    0    0 -0.00000000000E+00 -0.00000000000E+00 -0.38240582830E+03  0.38240582830E+03  0.00000000000E+00 0.  1.
         24    2    1    2    0    0 -0.90106727954E+02  0.36649320519E+01 -0.23954229178E+03  0.26810326525E+03  0.79788452401E+02 0.  0.
         25    2    1    2    0    0  0.11611068906E+03  0.12663474995E+02 -0.62836231047E+02  0.18231217821E+03  0.12508909897E+03 0.  0.
        -24    2    1    2    0    0 -0.26003961106E+02 -0.16328407047E+02  0.29936137592E+03  0.31137906624E+03  0.79980414033E+02 0.  0.
        -11    1    3    3    0    0 -0.47398523119E+02  0.62163131246E+01 -0.21176265137E+03  0.21709141636E+03  0.00000000000E+00 0.  1.
         12    1    3    3    0    0 -0.42708204835E+02 -0.25513810727E+01 -0.27779640409E+02  0.51011848887E+02  0.00000000000E+00 0. -1.
         11    1    5    5    0    0 -0.12546884500E+02  0.24731962524E+02  0.21313848359E+03  0.21493512386E+03  0.00000000000E+00 0. -1.
        -12    1    5    5    0    0 -0.13457076607E+02 -0.41060369571E+02  0.86222892333E+02  0.96443942383E+02  0.00000000000E+00 0.  1.
          5    1    4    4  501    0  0.62651433605E+02  0.64470509892E+02 -0.92013204540E+01  0.90464277351E+02  0.41800000000E+01 0. -1.
         -5    1    4    4    0  501  0.53459255456E+02 -0.51807034897E+02 -0.53634910593E+02  0.91847900863E+02  0.41800000000E+01 0. -1.
</event>
<event>
11    1  0.6625361E-009  0.1968752E+03  0.7561462E-02  0.1056756E+00
         22   -1    0    0    0    0  0.00000000000E+00  0.00000000000E+00  0.66087532153E+03  0.66087532153E+03  0.00000000000E+00 0.  1.
         22   -1    0    0    0    0 -0.00000000000E+00 -0.00000000000E+00 -0.49973394426E+03  0.49973394426E+03  0.00000000000E+00 0. -1.
        -24    2    1    2    0    0  0.10590872913E+03 -0.10638491853E+03 -0.43817478565E+03  0.47015744355E+03  0.80724650234E+02 0.  0.
         25    2    1    2    0    0 -0.15625572241E+03  0.11984424466E+03  0.32348768714E+03  0.39883547403E+03  0.12508780057E+03 0.  0.
         24    2    1    2    0    0  0.50346993276E+02 -0.13459326135E+02  0.27582847578E+03  0.29161634821E+03  0.79011222640E+02 0.  0.
        -11    1    5    5    0    0  0.71357332574E+01  0.18385576011E+02  0.18547714938E+03  0.18652270917E+03  0.00000000000E+00 0.  1.
         12    1    5    5    0    0  0.43211260019E+02 -0.31844902146E+02  0.90351326396E+02  0.10509363904E+03  0.00000000000E+00 0. -1.
         13    1    3    3    0    0  0.38124266622E+02 -0.69934765293E+02 -0.12951930453E+03  0.15205124580E+03  0.00000000000E+00 0. -1.
        -14    1    3    3    0    0  0.67784462510E+02 -0.36450153233E+02 -0.30865548111E+03  0.31810619775E+03  0.00000000000E+00 0.  1.
          5    1    4    4  501    0 -0.13329276404E+03  0.13633320533E+03  0.31633538071E+03  0.36937683916E+03  0.41800000000E+01 0. -1.
         -5    1    4    4    0  501 -0.22962958367E+02 -0.16488960673E+02  0.71523064306E+01  0.29458634869E+02  0.41800000000E+01 0. -1.
</event>
<event>
11    1  0.6625361E-009  0.1376297E+03  0.7561462E-02  0.1110234E+00
         22   -1    0    0    0    0  0.00000000000E+00  0.00000000000E+00  0.46395388735E+03  0.46395388735E+03  0.00000000000E+00 0. -1.
         22   -1    0    0    0    0 -0.00000000000E+00 -0.00000000000E+00 -0.14581797816E+03  0.14581797816E+03  0.00000000000E+00 0.  1.
         24    2    1    2    0    0 -0.30859931085E+02  0.48693718485E+02 -0.86022219608E+02  0.12854152049E+03  0.76155673837E+02 0.  0.
         25    2    1    2    0    0  0.51442497681E+02 -0.32393874179E+02  0.11754292460E+03  0.18209694780E+03  0.12508903079E+03 0.  0.
        -24    2    1    2    0    0 -0.20582566597E+02 -0.16299844306E+02  0.28661520419E+03  0.29913339721E+03  0.81505748783E+02 0.  0.
        -13    1    3    3    0    0 -0.12543403830E+02 -0.20447262186E+02 -0.21838299891E+02  0.32439772698E+02  0.00000000000E+00 0.  1.
         14    1    3    3    0    0 -0.18316527255E+02  0.69140980671E+02 -0.64183919717E+02  0.96101747794E+02  0.00000000000E+00 0. -1.
         13    1    5    5    0    0 -0.24620198246E+02 -0.29551037489E+02  0.28188250562E+03  0.28449457807E+03  0.00000000000E+00 0. -1.
        -14    1    5    5    0    0  0.40376316497E+01  0.13251193183E+02  0.47326985685E+01  0.14638819141E+02  0.00000000000E+00 0.  1.
          5    1    4    4  501    0  0.24025364148E+02 -0.31488692236E+02  0.14052933377E+03  0.14606410206E+03  0.41800000000E+01 0.  1.
         -5    1    4    4    0  501  0.27417133533E+02 -0.90518194292E+00 -0.22986409170E+02  0.36032845739E+02  0.41800000000E+01 0.  1.
</event>
<event>
11    1  0.6625361E-009  0.1257805E+03  0.7561462E-02  0.1124565E+00
         22   -1    0    0    0    0  0.00000000000E+00  0.00000000000E+00  0.14881324731E+03  0.14881324731E+03  0.00000000000E+00 0.  1.
         22   -1    0    0    0    0 -0.00000000000E+00 -0.00000000000E+00 -0.23898483880E+04  0.23898483880E+04  0.00000000000E+00 0. -1.
         24    2    1    2    0    0  0.34115436153E+02  0.12604398779E+00 -0.20301325591E+04  0.20319930444E+04  0.79960277598E+02 0.  0.
         25    2    1    2    0    0 -0.27619205651E+02 -0.12286797088E+02 -0.33120184789E+03  0.35532515058E+03  0.12509001832E+03 0.  0.
        -24    2    1    2    0    0 -0.64962305023E+01  0.12160753101E+02  0.12029926636E+03  0.15134344030E+03  0.90790079353E+02 0.  0.
        -11    1    3    3    0    0  0.64364504821E+01 -0.27504600433E+02 -0.27952573344E+03  0.28094940220E+03  0.00000000000E+00 0.  1.
         12    1    3    3    0    0  0.27678985671E+02  0.27630644421E+02 -0.17506068257E+04  0.17510436422E+04  0.00000000000E+00 0. -1.
         13    1    5    5    0    0  0.32396419111E+02  0.14160348417E+02  0.13811474097E+02  0.37957874746E+02  0.00000000000E+00 0. -1.
        -14    1    5    5    0    0 -0.38892649613E+02 -0.19995953167E+01  0.10648779227E+03  0.11338556556E+03  0.00000000000E+00 0.  1.
          5    1    4    4  501    0 -0.19315538149E+02 -0.22071489257E+02 -0.64846865865E+01  0.30327614680E+02  0.41800000000E+01 0. -1.
         -5    1    4    4    0  501 -0.83036675018E+01  0.97846921689E+01 -0.32471716131E+03  0.32499753590E+03  0.41800000000E+01 0. -1.
</event>
<event>
11    1  0.6625361E-009  0.1341765E+03  0.7561462E-02  0.1114241E+00
         22   -1    0    0    0    0  0.00000000000E+00  0.00000000000E+00  0.64415913903E+03  0.64415913903E+03  0.00000000000E+00 0.  1.
         22   -1    0    0    0    0 -0.00000000000E+00 -0.00000000000E+00 -0.12431210824E+04  0.12431210824E+04  0.00000000000E+00 0.  1.
        -24    2    1    2    0    0  0.31829696930E+02  0.19616599539E+02 -0.11567572959E+04  0.11604168173E+04  0.84153476511E+02 0.  0.
         25    2    1    2    0    0 -0.70106323983E+02 -0.46692665772E+02 -0.10311422461E+02  0.15114991254E+03  0.12507945046E+03 0.  0.
         24    2    1    2    0    0  0.38276627054E+02  0.27076066233E+02  0.56810677495E+03  0.57571349166E+03  0.80638100127E+02 0.  0.
        -13    1    5    5    0    0  0.55923827755E+02  0.36941143228E+02  0.50548470692E+03  0.50990872860E+03  0.00000000000E+00 0.  1.
         14    1    5    5    0    0 -0.17647200701E+02 -0.98650769942E+01  0.62622068035E+02  0.65804763062E+02  0.00000000000E+00 0. -1.
         11    1    3    3    0    0  0.66804561754E+01 -0.12316169613E+02 -0.32093044191E+02  0.35018281141E+02  0.00000000000E+00 0. -1.
        -12    1    3    3    0    0  0.25149240754E+02  0.31932769152E+02 -0.11246642517E+04  0.11253985361E+04  0.00000000000E+00 0.  1.
          5    1    4    4  501    0  0.19322465838E+01 -0.44127845355E+02  0.42697556278E+02  0.61575596016E+02  0.41800000000E+01 0. -1.
         -5    1    4    4    0  501 -0.72038570567E+02 -0.25648204169E+01 -0.53008978739E+02  0.89574316520E+02  0.41800000000E+01 0. -1.
</event>
<event>
11    1  0.6625361E-009  0.2980255E+03  0.7561462E-02  0.1001030E+00
         22   -1    0    0    0    0  0.00000000000E+00  0.00000000000E+00  0.71326388869E+03  0.71326388869E+03  0.00000000000E+00 0.  1.
         22   -1    0    0    0    0 -0.00000000000E+00 -0.00000000000E+00 -0.82983932623E+03  0.82983932623E+03  0.00000000000E+00 0. -1.
        -24    2    1    2    0    0 -0.25986909815E+03 -0.82295087479E+02 -0.71539129772E+03  0.76944797529E+03  0.77207824893E+02 0.  0.
         25    2    1    2    0    0  0.24188829550E+03  0.70873626715E+02  0.15716330166E+03  0.32230542356E+03  0.12508982455E+03 0.  0.
         24    2    1    2    0    0  0.17980802647E+02  0.11421460764E+02  0.44165255852E+03  0.45134981607E+03  0.90586505592E+02 0.  0.
        -13    1    5    5    0    0 -0.45486320077E+01  0.22440643449E+02  0.41147260618E+03  0.41210918234E+03  0.00000000000E+00 0.  1.
         14    1    5    5    0    0  0.22529434654E+02 -0.11019182685E+02  0.30179952340E+02  0.39240633737E+02  0.00000000000E+00 0. -1.
         13    1    3    3    0    0 -0.24880512961E+03 -0.91195447869E+02 -0.70013999452E+03  0.74860978764E+03  0.00000000000E+00 0. -1.
        -14    1    3    3    0    0 -0.11063968539E+02  0.89003603904E+01 -0.15251303200E+02  0.20838187642E+02  0.00000000000E+00 0.  1.
          5    1    4    4  501    0  0.81693484956E+01 -0.23394743384E+02  0.32585924768E+02  0.41150542716E+02  0.41800000000E+01 0.  1.
         -5    1    4    4    0  501  0.23371894701E+03  0.94268370098E+02  0.12457737689E+03  0.28115488085E+03  0.41800000000E+01 0.  1.
</event>
<event>
11    1  0.6625361E-009  0.1398682E+03  0.7561462E-02  0.1107706E+00
         22   -1    0    0    0    0  0.00000000000E+00  0.00000000000E+00  0.19047445481E+04  0.19047445481E+04  0.00000000000E+00 0.  1.
         22   -1    0    0    0    0 -0.00000000000E+00 -0.00000000000E+00 -0.15714478132E+04  0.15714478132E+04  0.00000000000E+00 0. -1.
        -24    2    1    2    0    0 -0.23282929723E+02  0.47459344122E+02 -0.15506181745E+04  0.15535167875E+04  0.78760408243E+02 0.  0.
         25    2    1    2    0    0  0.79877260187E+02 -0.21366369497E+02  0.29816518184E+03  0.33374680304E+03  0.12509018521E+03 0.  0.
         24    2    1    2    0    0 -0.56594330464E+02 -0.26092974626E+02  0.15857497275E+04  0.15889287708E+04  0.78795168929E+02 0.  0.
        -13    1    5    5    0    0  0.13726324629E+02 -0.26820572404E+02  0.48470312528E+03  0.48563862568E+03  0.00000000000E+00 0.  1.
         14    1    5    5    0    0 -0.70320655093E+02  0.72759777803E+00  0.11010466023E+04  0.11032901451E+04  0.00000000000E+00 0. -1.
         13    1    3    3    0    0 -0.20818543268E+02  0.68557881483E+02 -0.13120188995E+04  0.13139738154E+04  0.00000000000E+00 0. -1.
        -14    1    3    3    0    0 -0.24643864550E+01 -0.21098537360E+02 -0.23859927500E+03  0.23954297215E+03  0.00000000000E+00 0.  1.
          5    1    4    4  501    0 -0.25278838627E+02 -0.13273957191E+02  0.17161755589E+02  0.33574035753E+02  0.41800000000E+01 0. -1.
         -5    1    4    4    0  501  0.10515609881E+03 -0.80924123056E+01  0.28100342625E+03  0.30017276729E+03  0.41800000000E+01 0. -1.
</event>
<event>
11    1  0.6625361E-009  0.1570441E+03  0.7561462E-02  0.1089891E+00
         22   -1    0    0    0    0  0.00000000000E+00  0.00000000000E+00  0.29044474859E+03  0.29044474859E+03  0.00000000000E+00 0. -1.
         22   -1    0    0    0    0 -0.00000000000E+00 -0.00000000000E+00 -0.10295103730E+04  0.10295103730E+04  0.00000000000E+00 0.  1.
        -24    2    1    2    0    0 -0.61503869263E+02 -0.23080607984E+02 -0.91576532545E+03  0.92160412803E+03  0.80078693259E+02 0.  0.
         25    2    1    2    0    0  0.14324997440E+03  0.43101742915E+02  0.10249268117E+02  0.19527053499E+03  0.12508884415E+03 0.  0.
         24    2    1    2    0    0 -0.81746105133E+02 -0.20021134931E+02  0.16645043293E+03  0.20308045856E+03  0.80328416393E+02 0.  0.
        -13    1    5    5    0    0 -0.30384335256E+02 -0.19871981826E+02  0.89159591554E+01  0.37384459583E+02  0.00000000000E+00 0.  1.
         14    1    5    5    0    0 -0.51361769877E+02 -0.14915310468E+00  0.15753447377E+03  0.16569599898E+03  0.00000000000E+00 0. -1.
         13    1    3    3    0    0 -0.52071832427E+02  0.19761174890E+02 -0.38194978967E+03  0.38598914699E+03  0.00000000000E+00 0. -1.
        -14    1    3    3    0    0 -0.94320368361E+01 -0.42841782874E+02 -0.53381553578E+03  0.53561498105E+03  0.00000000000E+00 0.  1.
          5    1    4    4  501    0  0.15502356093E+03  0.61295941207E+02 -0.75377865965E+01  0.16692449634E+03  0.41800000000E+01 0. -1.
         -5    1    4    4    0  501 -0.11773586535E+02 -0.18194198292E+02  0.17787054714E+02  0.28346038644E+02  0.41800000000E+01 0. -1.
</event>
<event>
11    1  0.6625361E-009  0.1410392E+03  0.7561462E-02  0.1106403E+00
         22   -1    0    0    0    0  0.00000000000E+00  0.00000000000E+00  0.54931409231E+03  0.54931409231E+03  0.00000000000E+00 0.  1.
         22   -1    0    0    0    0 -0.00000000000E+00 -0.00000000000E+00 -0.30959195133E+03  0.30959195133E+03  0.00000000000E+00 0.  1.
        -24    2    1    2    0    0  0.63544416749E+02  0.38532012601E+01 -0.26800675262E+03  0.28840214427E+03  0.85413332139E+02 0.  0.
         25    2    1    2    0    0 -0.10560553892E+03 -0.75146949646E+01  0.25428827778E+03  0.30252065041E+03  0.12508882930E+03 0.  0.
         24    2    1    2    0    0  0.42061122168E+02  0.36614937045E+01  0.25344061581E+03  0.26798324896E+03  0.76159907085E+02 0.  0.
        -11    1    5    5    0    0  0.84071667200E+01  0.27811983790E+02  0.19005384864E+03  0.19226193663E+03  0.00000000000E+00 0.  1.
         12    1    5    5    0    0  0.33653955448E+02 -0.24150490086E+02  0.63386767178E+02  0.75721312336E+02  0.00000000000E+00 0. -1.
         11    1    3    3    0    0  0.17776590244E+02 -0.14082273404E+02 -0.84028053310E+01  0.24185217021E+02  0.00000000000E+00 0. -1.
        -12    1    3    3    0    0  0.45767826506E+02  0.17935474664E+02 -0.25960394729E+03  0.26421692725E+03  0.00000000000E+00 0.  1.
          5    1    4    4  501    0 -0.64392689639E+02 -0.48171146645E+02  0.22188672800E+03  0.23604675450E+03  0.41800000000E+01 0.  1.
         -5    1    4    4    0  501 -0.41212849278E+02  0.40656451680E+02  0.32401549787E+02  0.66473895910E+02  0.41800000000E+01 0.  1.
</event>
<event>
11    1  0.6625361E-009  0.2416306E+03  0.7561462E-02  0.1028455E+00
         22   -1    0    0    0    0  0.00000000000E+00  0.00000000000E+00  0.44260077353E+03  0.44260077353E+03  0.00000000000E+00 0. -1.
         22   -1    0    0    0    0 -0.00000000000E+00 -0.00000000000E+00 -0.59440574232E+03  0.59440574232E+03  0.00000000000E+00 0. -1.
         24    2    1    2    0    0 -0.77705906566E+01 -0.14048079974E+02 -0.46812724459E+03  0.47527272917E+03  0.80519061944E+02 0.  0.
         25    2    1    2    0    0 -0.12108975991E+03  0.17217115604E+03  0.15053173097E+03  0.28742571810E+03  0.12509238373E+03 0.  0.
        -24    2    1    2    0    0  0.12886035057E+03 -0.15812307606E+03  0.16579054483E+03  0.27430806857E+03  0.78425216565E+02 0.  0.
        -11    1    3    3    0    0 -0.77097472404E+01  0.12729650009E+01 -0.98118662794E+00  0.78754917055E+01  0.00000000000E+00 0.  1.
         12    1    3    3    0    0 -0.60843416196E-01 -0.15321044975E+02 -0.46714605797E+03  0.46739723747E+03  0.00000000000E+00 0. -1.
         11    1    5    5    0    0  0.19792403202E+02 -0.80782806112E+02  0.47463005792E+02  0.95761881282E+02  0.00000000000E+00 0. -1.
        -12    1    5    5    0    0  0.10906794737E+03 -0.77340269950E+02  0.11832753904E+03  0.17854618729E+03  0.00000000000E+00 0.  1.
          5    1    4    4  501    0 -0.38243893848E+02 -0.13155270316E+02  0.36006819474E+02  0.54310404182E+02  0.41800000000E+01 0. -1.
         -5    1    4    4    0  501 -0.82845866065E+02  0.18532642635E+03  0.11452491150E+03  0.23311531392E+03  0.41800000000E+01 0. -1.
</event>
<event>
11    1  0.6625361E-009  0.1310721E+03  0.7561462E-02  0.1117959E+00
         22   -1    0    0    0    0  0.00000000000E+00  0.00000000000E+00  0.47306429210E+02  0.47306429210E+02  0.00000000000E+00 0.  1.
         22   -1    0    0    0    0 -0.00000000000E+00 -0.00000000000E+00 -0.31669520436E+04  0.31669520436E+04  0.00000000000E+00 0.  1.
         24    2    1    2    0    0 -0.10830559039E+01 -0.37690412216E+02 -0.24344104683E+04  0.24360209096E+04  0.80136154997E+02 0.  0.
         25    2    1    2    0    0 -0.20788868095E+02  0.51312431907E+02 -0.67814756340E+03  0.69180686580E+03  0.12508988411E+03 0.  0.
        -24    2    1    2    0    0  0.21871923998E+02 -0.13622019691E+02 -0.70875826061E+01  0.86430697400E+02  0.82195444800E+02 0.  0.
        -11    1    3    3    0    0 -0.91938756762E+01 -0.44017332585E+02 -0.23904517291E+04  0.23908746353E+04  0.00000000000E+00 0.  1.
         12    1    3    3    0    0  0.81108197723E+01  0.63269203695E+01 -0.43958739295E+02  0.45146274256E+02  0.00000000000E+00 0. -1.
         13    1    5    5    0    0  0.34627246921E+02 -0.10761089146E+02 -0.38208503960E+02  0.52675772835E+02  0.00000000000E+00 0. -1.
        -14    1    5    5    0    0 -0.12755322922E+02 -0.28609305455E+01  0.31120921354E+02  0.33754924565E+02  0.00000000000E+00 0.  1.
          5    1    4    4  501    0 -0.44729205734E+02  0.12750493861E+02 -0.59627784951E+03  0.59810368930E+03  0.41800000000E+01 0.  1.
         -5    1    4    4    0  501  0.23940337640E+02  0.38561938046E+02 -0.81869713892E+02  0.93703176493E+02  0.41800000000E+01 0.  1.
</event>
<event>
11    1  0.6625361E-009  0.1509874E+03  0.7561462E-02  0.1095874E+00
         22   -1    0    0    0    0  0.00000000000E+00  0.00000000000E+00  0.16969604381E+04  0.16969604381E+04  0.00000000000E+00 0.  1.
         22   -1    0    0    0    0 -0.00000000000E+00 -0.00000000000E+00 -0.50194059496E+03  0.50194059496E+03  0.00000000000E+00 0.  1.
         24    2    1    2    0    0  0.31818495895E+02  0.77299073289E+02 -0.45851077773E+03  0.47261918106E+03  0.78416794135E+02 0.  0.
         25    2    1    2    0    0  0.47260097628E+01 -0.12943015982E+03  0.20071336647E+03  0.26962855061E+03  0.12505678065E+03 0.  0.
        -24    2    1    2    0    0 -0.36544505658E+02  0.52131086532E+02  0.14528172544E+04  0.14566533014E+04  0.84307263434E+02 0.  0.
        -11    1    3    3    0    0  0.33157593927E+02  0.74831875125E+02 -0.46139256342E+03  0.46859613010E+03  0.00000000000E+00 0.  1.
         12    1    3    3    0    0 -0.13390980316E+01  0.24671981641E+01  0.28817856854E+01  0.40230509636E+01  0.00000000000E+00 0. -1.
         11    1    5    5    0    0 -0.30747506416E+02 -0.36126309627E+01  0.18303073404E+03  0.18563057361E+03  0.00000000000E+00 0. -1.
        -12    1    5    5    0    0 -0.57969992418E+01  0.55743717494E+02  0.12697865204E+04  0.12710227278E+04  0.00000000000E+00 0.  1.
          5    1    4    4  501    0 -0.41389302665E+02 -0.27176625178E+02  0.12423045240E+03  0.13379955543E+03  0.41800000000E+01 0. -1.
         -5    1    4    4    0  501  0.46115312427E+02 -0.10225353464E+03  0.76482914072E+02  0.13582899518E+03  0.41800000000E+01 0. -1.
</event>
<event>
11    1  0.6625361E-009  0.1608237E+03  0.7561462E-02  0.1086305E+00
         22   -1    0    0    0    0  0.00000000000E+00  0.00000000000E+00  0.10432899794E+04  0.10432899794E+04  0.00000000000E+00 0. -1.
         22   -1    0    0    0    0 -0.00000000000E+00 -0.00000000000E+00 -0.20944748541E+03  0.20944748541E+03  0.00000000000E+00 0.  1.
         24    2    1    2    0    0  0.76137742931E+02  0.65473860680E+02 -0.16787849586E+03  0.21130415106E+03  0.79890378343E+02 0.  0.
         25    2    1    2    0    0 -0.81886497012E+02 -0.79371501044E+02  0.40637368829E+03  0.44021952850E+03  0.12509366556E+03 0.  0.
        -24    2    1    2    0    0  0.57487540810E+01  0.13897640364E+02  0.59534730153E+03  0.60121378523E+03  0.82422166479E+02 0.  0.
        -11    1    3    3    0    0  0.92992561441E+02  0.53410986630E+02 -0.13457816961E+03  0.17208031181E+03  0.00000000000E+00 0.  1.
         12    1    3    3    0    0 -0.16854818510E+02  0.12062874050E+02 -0.33300326246E+02  0.39223839249E+02  0.00000000000E+00 0. -1.
         13    1    5    5    0    0  0.37009427361E+02 -0.66211811959E+01  0.43238046747E+03  0.43401198878E+03  0.00000000000E+00 0. -1.
        -14    1    5    5    0    0 -0.31260673280E+02  0.20518821560E+02  0.16296683406E+03  0.16720179645E+03  0.00000000000E+00 0.  1.
          5    1    4    4  501    0 -0.11245485351E+02 -0.32690813248E+01 -0.68035265490E+01  0.14174209220E+02  0.41800000000E+01 0.  1.
         -5    1    4    4    0  501 -0.70641011661E+02 -0.76102419719E+02  0.41317721484E+03  0.42604531928E+03  0.41800000000E+01 0.  1.
</event>
<event>
11    1  0.6625361E-009  0.1578588E+03  0.7561462E-02  0.1089109E+00
         22   -1    0    0    0    0  0.00000000000E+00  0.00000000000E+00  0.11818068527E+04  0.11818068527E+04  0.00000000000E+00 0. -1.
         22   -1    0    0    0    0 -0.00000000000E+00 -0.00000000000E+00 -0.43054015097E+03  0.43054015097E+03  0.00000000000E+00 0.  1.
         24    2    1    2    0    0  0.43840671306E+02 -0.42568962573E+02 -0.28989757609E+03  0.30658014163E+03  0.78845783557E+02 0.  0.
         25    2    1    2    0    0  0.48335795530E+02  0.10077483059E+02 -0.93787232433E+02  0.16395134680E+03  0.12508434897E+03 0.  0.
        -24    2    1    2    0    0 -0.92176466836E+02  0.32491479515E+02  0.11349515102E+04  0.11418155152E+04  0.77945769196E+02 0.  0.
        -13    1    3    3    0    0  0.18051137183E+02 -0.63618469874E+02 -0.18066625406E+03  0.19238879546E+03  0.00000000000E+00 0.  1.
         14    1    3    3    0    0  0.25789534123E+02  0.21049507301E+02 -0.10923132203E+03  0.11419134617E+03  0.00000000000E+00 0. -1.
         13    1    5    5    0    0 -0.45005825949E+00  0.27266723925E+02  0.43592461509E+03  0.43677677002E+03  0.00000000000E+00 0. -1.
        -14    1    5    5    0    0 -0.91726408577E+02  0.52247555893E+01  0.69902689513E+03  0.70503874518E+03  0.00000000000E+00 0.  1.
          5    1    4    4  501    0 -0.31762902617E+02 -0.29559795588E+02 -0.19900005976E+02  0.47918119075E+02  0.41800000000E+01 0. -1.
         -5    1    4    4    0  501  0.80098698146E+02  0.39637278646E+02 -0.73887226457E+02  0.11603322773E+03  0.41800000000E+01 0. -1.
</event>
<event>
11    1  0.6625361E-009  0.1428696E+03  0.7561462E-02  0.1104396E+00
         22   -1    0    0    0    0  0.00000000000E+00  0.00000000000E+00  0.54086872797E+03  0.54086872797E+03  0.00000000000E+00 0.  1.
         22   -1    0    0    0    0 -0.00000000000E+00 -0.00000000000E+00 -0.44275549581E+03  0.44275549581E+03  0.00000000000E+00 0.  1.
         24    2    1    2    0    0 -0.65126311504E+02 -0.29825706933E+02 -0.36679781829E+03  0.38182545891E+03  0.78224243840E+02 0.  0.
         25    2    1    2    0    0  0.93700220066E+02 -0.32623718208E+02  0.41322643564E+02  0.16492086803E+03  0.12508914266E+03 0.  0.
        -24    2    1    2    0    0 -0.28573908561E+02  0.62449425142E+02  0.42358840688E+03  0.43687789683E+03  0.81968038567E+02 0.  0.
        -13    1    3    3    0    0 -0.42234901475E+02 -0.50811024616E+02 -0.31125481720E+03  0.31819036497E+03  0.00000000000E+00 0.  1.
         14    1    3    3    0    0 -0.22891410029E+02  0.20985317683E+02 -0.55543001092E+02  0.63635093948E+02  0.00000000000E+00 0. -1.
         13    1    5    5    0    0 -0.14078764706E+02  0.15173092201E+02  0.15638902873E+02  0.25942429063E+02  0.00000000000E+00 0. -1.
        -14    1    5    5    0    0 -0.14495143855E+02  0.47276332941E+02  0.40794950401E+03  0.41093546777E+03  0.00000000000E+00 0.  1.
          5    1    4    4  501    0  0.57282968706E+02 -0.60529047291E+02  0.71468330070E+02  0.10986491102E+03  0.41800000000E+01 0. -1.
         -5    1    4    4    0  501  0.36417251360E+02  0.27905329083E+02 -0.30145686506E+02  0.55055957014E+02  0.41800000000E+01 0. -1.
</event>
<event>
11    1  0.6625361E-009  0.1592847E+03  0.7561462E-02  0.1087752E+00
         22   -1    0    0    0    0  0.00000000000E+00  0.00000000000E+00  0.14238956768E+04  0.14238956768E+04  0.00000000000E+00 0. -1.
         22   -1    0    0    0    0 -0.00000000000E+00 -0.00000000000E+00 -0.21655397293E+04  0.21655397293E+04  0.00000000000E+00 0.  1.
        -24    2    1    2    0    0 -0.93883868555E+02 -0.30798211962E+02 -0.20482175902E+04  0.20521582508E+04  0.79971739962E+02 0.  0.
         25    2    1    2    0    0  0.99991190334E+02 -0.72263618767E+01 -0.57279278332E+02  0.17023186453E+03  0.12509002169E+03 0.  0.
         24    2    1    2    0    0 -0.61073217783E+01  0.38024573838E+02  0.13638528160E+04  0.13670452907E+04  0.85059716974E+02 0.  0.
        -13    1    5    5    0    0 -0.12314419165E+02  0.61403798068E+02  0.71363221343E+03  0.71637490700E+03  0.00000000000E+00 0.  1.
         14    1    5    5    0    0  0.62070973871E+01 -0.23379224230E+02  0.65022060259E+03  0.65067038369E+03  0.00000000000E+00 0. -1.
         13    1    3    3    0    0 -0.70586180003E+02  0.12925236381E+02 -0.89292046455E+03  0.89579932270E+03  0.00000000000E+00 0. -1.
        -14    1    3    3    0    0 -0.23297688552E+02 -0.43723448343E+02 -0.11552971256E+04  0.11563589281E+04  0.00000000000E+00 0.  1.
          5    1    4    4  501    0  0.65436071448E+02 -0.54489911660E+02  0.40346805361E+01  0.85350928327E+02  0.41800000000E+01 0.  1.
         -5    1    4    4    0  501  0.34555118886E+02  0.47263549784E+02 -0.61313958868E+02  0.84880936208E+02  0.41800000000E+01 0.  1.
</event>
<event>
11    1  0.6625361E-009  0.1455402E+03  0.7561462E-02  0.1101525E+00
         22   -1    0    0    0    0  0.00000000000E+00  0.00000000000E+00  0.57833410964E+03  0.57833410964E+03  0.00000000000E+00 0.  1.
         22   -1    0    0    0    0 -0.00000000000E+00 -0.00000000000E+00 -0.35138571898E+03  0.35138571898E+03  0.00000000000E+00 0.  1.
         24    2    1    2    0    0 -0.62012796441E+02 -0.24633147747E+01 -0.72785732492E+02  0.12459853462E+03  0.79845958780E+02 0.  0.
         25    2    1    2    0    0  0.13334838995E+03  0.18057275475E+02 -0.21284778541E+03  0.28117506620E+03  0.12508948716E+03 0.  0.
        -24    2    1    2    0    0 -0.71335593509E+02 -0.15593960701E+02  0.51258190856E+03  0.52394622780E+03  0.80296314503E+02 0.  0.
        -11    1    3    3    0    0 -0.71428437384E+02 -0.33270643845E+01 -0.83748072077E+02  0.11012188975E+03  0.00000000000E+00 0.  1.
         12    1    3    3    0    0  0.94156409424E+01  0.86374960981E+00  0.10962339584E+02  0.14476644877E+02  0.00000000000E+00 0. -1.
         13    1    5    5    0    0 -0.80673088673E+02  0.11840990276E+01  0.30544283911E+03  0.31591909928E+03  0.00000000000E+00 0. -1.
        -14    1    5    5    0    0  0.93374951633E+01 -0.16778059728E+02  0.20713906946E+03  0.20802712852E+03  0.00000000000E+00 0.  1.
          5    1    4    4  501    0  0.12276927463E+03  0.57743775355E+02 -0.19142034687E+03  0.23466115993E+03  0.41800000000E+01 0. -1.
         -5    1    4    4    0  501  0.10579115321E+02 -0.39686499880E+02 -0.21427438541E+02  0.46513906265E+02  0.41800000000E+01 0. -1.
</event>
<event>
11    1  0.6625361E-009  0.1715874E+03  0.7561462E-02  0.1076658E+00
         22   -1    0    0    0    0  0.00000000000E+00  0.00000000000E+00  0.62351010412E+03  0.62351010412E+03  0.00000000000E+00 0. -1.
         22   -1    0    0    0    0 -0.00000000000E+00 -0.00000000000E+00 -0.50571922857E+03  0.50571922857E+03  0.00000000000E+00 0.  1.
         24    2    1    2    0    0 -0.56704619211E+01 -0.39449070911E+02 -0.41047145639E+03  0.42017017312E+03  0.80422475291E+02 0.  0.
         25    2    1    2    0    0 -0.76207968638E+02  0.12005716755E+03  0.30078006718E+02  0.19176764789E+03  0.12509502918E+03 0.  0.
        -24    2    1    2    0    0  0.81878430559E+02 -0.80608096642E+02  0.49818432521E+03  0.51729151168E+03  0.78747339839E+02 0.  0.
        -11    1    3    3    0    0  0.33164371745E+02 -0.15608607439E+02 -0.27039471029E+03  0.27286774000E+03  0.00000000000E+00 0.  1.
         12    1    3    3    0    0 -0.38834833667E+02 -0.23840463473E+02 -0.14007674611E+03  0.14730243312E+03  0.00000000000E+00 0. -1.
         11    1    5    5    0    0  0.89974397169E+02 -0.89747980640E+02  0.45514581998E+03  0.47255455729E+03  0.00000000000E+00 0. -1.
        -12    1    5    5    0    0 -0.80959666100E+01  0.91398839977E+01  0.43038505238E+02  0.44736954389E+02  0.00000000000E+00 0.  1.
          5    1    4    4  501    0 -0.76169933050E+02  0.76176479647E+01  0.16659359844E+02  0.78453132071E+02  0.41800000000E+01 0.  1.
         -5    1    4    4    0  501 -0.38035587745E-01  0.11243951959E+03  0.13418646874E+02  0.11331451582E+03  0.41800000000E+01 0.  1.
</event>
<event>
11    1  0.6625361E-009  0.1482038E+03  0.7561462E-02  0.1098728E+00
         22   -1    0    0    0    0  0.00000000000E+00  0.00000000000E+00  0.93497734387E+03  0.93497734387E+03  0.00000000000E+00 0. -1.
         22   -1    0    0    0    0 -0.00000000000E+00 -0.00000000000E+00 -0.42216270127E+03  0.42216270127E+03  0.00000000000E+00 0.  1.
        -24    2    1    2    0    0  0.38324916775E+02  0.39430706442E+01 -0.38180050029E+03  0.39222970309E+03  0.81167548432E+02 0.  0.
         25    2    1    2    0    0 -0.11269608938E+03 -0.84706725115E+01  0.20147214111E+03  0.26270018468E+03  0.12509277571E+03 0.  0.
         24    2    1    2    0    0  0.74371172605E+02  0.45276018672E+01  0.69314300177E+03  0.70221015736E+03  0.84263359202E+02 0.  0.
        -13    1    5    5    0    0  0.54296230990E+02  0.37418383159E+02  0.29883409412E+03  0.30602292709E+03  0.00000000000E+00 0.  1.
         14    1    5    5    0    0  0.20074941616E+02 -0.32890781292E+02  0.39430890765E+03  0.39618723027E+03  0.00000000000E+00 0. -1.
         11    1    3    3    0    0  0.33034021762E+02 -0.16110812492E+02 -0.64379160955E+02  0.74131513124E+02  0.00000000000E+00 0. -1.
        -12    1    3    3    0    0  0.52908950131E+01  0.20053883136E+02 -0.31742133933E+03  0.31809818997E+03  0.00000000000E+00 0.  1.
          5    1    4    4  501    0 -0.11863822584E+03 -0.43484968093E+02  0.12263975560E+03  0.17613617781E+03  0.41800000000E+01 0. -1.
         -5    1    4    4    0  501  0.59421364555E+01  0.35014295582E+02  0.78832385511E+02  0.86564006874E+02  0.41800000000E+01 0. -1.
</event>
<event>
11    1  0.6625361E-009  0.2394585E+03  0.7561462E-02  0.1029670E+00
         22   -1    0    0    0    0  0.00000000000E+00  0.00000000000E+00  0.70455357957E+03  0.70455357957E+03  0.00000000000E+00 0.  1.
         22   -1    0    0    0    0 -0.00000000000E+00 -0.00000000000E+00 -0.20514731749E+04  0.20514731749E+04  0.00000000000E+00 0.  1.
         24    2    1    2    0    0  0.16928787971E+02 -0.10540038797E+03 -0.82585655187E+03  0.83674265277E+03  0.81874275849E+02 0.  0.
         25    2    1    2    0    0 -0.12974176587E+03  0.27391803306E+03 -0.11802882221E+04  0.12249864917E+04  0.12509037930E+03 0.  0.
        -24    2    1    2    0    0  0.11281297790E+03 -0.16851764509E+03  0.65922517865E+03  0.69429760999E+03  0.79664109745E+02 0.  0.
        -13    1    3    3    0    0  0.10562197950E+02 -0.75992573333E+02 -0.76516450068E+03  0.76900139424E+03  0.00000000000E+00 0.  1.
         14    1    3    3    0    0  0.63665900209E+01 -0.29407814640E+02 -0.60692051185E+02  0.67741258532E+02  0.00000000000E+00 0. -1.
         11    1    5    5    0    0  0.75389044758E+02 -0.62478267984E+02  0.39857405650E+03  0.41042456134E+03  0.00000000000E+00 0. -1.
        -12    1    5    5    0    0  0.37423933140E+02 -0.10603937711E+03  0.26065112215E+03  0.28387304864E+03  0.00000000000E+00 0.  1.
          5    1    4    4  501    0 -0.94875518612E+02  0.14898889334E+03 -0.45346727300E+03  0.48667144405E+03  0.41800000000E+01 0. -1.
         -5    1    4    4    0  501 -0.34866247257E+02  0.12492913972E+03 -0.72682094911E+03  0.73831504767E+03  0.41800000000E+01 0. -1.
</event>
<event>
11    1  0.6625361E-009  0.1976447E+03  0.7561462E-02  0.1056202E+00
         22   -1    0    0    0    0  0.00000000000E+00  0.00000000000E+00  0.14453710980E+03  0.14453710980E+03  0.00000000000E+00 0. -1.
         22   -1    0    0    0    0 -0.00000000000E+00 -0.00000000000E+00 -0.82271304428E+03  0.82271304428E+03  0.00000000000E+00 0.  1.
        -24    2    1    2    0    0 -0.49573138176E+02 -0.14267337397E+03 -0.57223374020E+03  0.59708135375E+03  0.79003176528E+02 0.  0.
         25    2    1    2    0    0  0.62680588617E+02  0.14818556941E+03 -0.17037470272E+03  0.26563643632E+03  0.12508939924E+03 0.  0.
         24    2    1    2    0    0 -0.13107450441E+02 -0.55121954318E+01  0.64432508440E+02  0.10453236401E+03  0.81075751155E+02 0.  0.
        -13    1    5    5    0    0 -0.42624898592E+02  0.86333837974E+01  0.16553397688E+02  0.46534205385E+02  0.00000000000E+00 0.  1.
         14    1    5    5    0    0  0.29517448151E+02 -0.14145579229E+02  0.47879110752E+02  0.57998158621E+02  0.00000000000E+00 0. -1.
         11    1    3    3    0    0 -0.84152093593E+01  0.59867431945E+01 -0.11226923069E+02  0.15254528647E+02  0.00000000000E+00 0. -1.
        -12    1    3    3    0    0 -0.41157928817E+02 -0.14866011717E+03 -0.56100681713E+03  0.58182682510E+03  0.00000000000E+00 0.  1.
          5    1    4    4  501    0 -0.32143362600E+02  0.37814532748E+02 -0.80175449043E+02  0.94385961220E+02  0.41800000000E+01 0.  1.
         -5    1    4    4    0  501  0.94823951217E+02  0.11037103666E+03 -0.90199253681E+02  0.17125047510E+03  0.41800000000E+01 0.  1.
</event>
<event>
11    1  0.6625361E-009  0.1501531E+03  0.7561462E-02  0.1096723E+00
         22   -1    0    0    0    0  0.00000000000E+00  0.00000000000E+00  0.27282652687E+03  0.27282652687E+03  0.00000000000E+00 0.  1.
         22   -1    0    0    0    0 -0.00000000000E+00 -0.00000000000E+00 -0.25903465916E+03  0.25903465916E+03  0.00000000000E+00 0. -1.
         24    2    1    2    0    0  0.73855206697E+02 -0.38069006978E+02 -0.18462287642E+03  0.21722998687E+03  0.78736394711E+02 0.  0.
         25    2    1    2    0    0 -0.66773060631E+02  0.50494176671E+02  0.77903787096E+02  0.16949419546E+03  0.12510387183E+03 0.  0.
        -24    2    1    2    0    0 -0.70821460658E+01 -0.12425169693E+02  0.12051095703E+03  0.14513700370E+03  0.79607270037E+02 0.  0.
        -13    1    3    3    0    0 -0.57996531652E+01 -0.20509533636E+02 -0.89129581603E+02  0.91642562511E+02  0.00000000000E+00 0.  1.
         14    1    3    3    0    0  0.79654859862E+02 -0.17559473342E+02 -0.95493294814E+02  0.12558742436E+03  0.00000000000E+00 0. -1.
         13    1    5    5    0    0 -0.38712299807E+02 -0.20402354487E+02  0.44447125401E+02  0.62373433298E+02  0.00000000000E+00 0. -1.
        -14    1    5    5    0    0  0.31630153741E+02  0.79771847939E+01  0.76063831632E+02  0.82763570400E+02  0.00000000000E+00 0.  1.
          5    1    4    4  501    0 -0.81004509281E+02  0.76969942623E+02  0.82284702725E+02  0.13883208309E+03  0.41800000000E+01 0. -1.
         -5    1    4    4    0  501  0.14231448650E+02 -0.26475765951E+02 -0.43809156292E+01  0.30662112372E+02  0.41800000000E+01 0. -1.
</event>
<event>
11    1  0.6625361E-009  0.1323778E+03  0.7561462E-02  0.1116381E+00
         22   -1    0    0    0    0  0.00000000000E+00  0.00000000000E+00  0.24415458757E+04  0.24415458757E+04  0.00000000000E+00 0.  1.
         22   -1    0    0    0    0 -0.00000000000E+00 -0.00000000000E+00 -0.23646814745E+03  0.23646814745E+03  0.00000000000E+00 0.  1.
         24    2    1    2    0    0  0.37606766656E+02  0.27974854884E+02 -0.17308579866E+03  0.19622035547E+03  0.79667263049E+02 0.  0.
         25    2    1    2    0    0 -0.79411816899E+01 -0.20831182824E+02  0.28068952444E+02  0.13012458627E+03  0.12509013276E+03 0.  0.
        -24    2    1    2    0    0 -0.29665584966E+02 -0.71436720603E+01  0.23500945745E+04  0.23516690814E+04  0.80447998958E+02 0.  0.
        -11    1    3    3    0    0  0.32218442042E+02  0.17603166684E+02 -0.17927446255E+03  0.18299517045E+03  0.00000000000E+00 0.  1.
         12    1    3    3    0    0  0.53883246134E+01  0.10371688201E+02  0.61886638909E+01  0.13225185028E+02  0.00000000000E+00 0. -1.
         11    1    5    5    0    0  0.63539484584E+01  0.92583824460E+00  0.15429863964E+02  0.16712586258E+02  0.00000000000E+00 0. -1.
        -12    1    5    5    0    0 -0.36019533424E+02 -0.80695103049E+01  0.23346647105E+04  0.23349564951E+04  0.00000000000E+00 0.  1.
          5    1    4    4  501    0 -0.11858334349E+02 -0.70492296822E+02 -0.22832645397E+01  0.71641256980E+02  0.41800000000E+01 0. -1.
         -5    1    4    4    0  501  0.39171526592E+01  0.49661113998E+02  0.30352216984E+02  0.58483329285E+02  0.41800000000E+01 0. -1.
</event>
<event>
11    1  0.6625361E-009  0.1416695E+03  0.7561462E-02  0.1105708E+00
         22   -1    0    0    0    0  0.00000000000E+00  0.00000000000E+00  0.11151027005E+04  0.11151027005E+04  0.00000000000E+00 0.  1.
         22   -1    0    0    0    0 -0.00000000000E+00 -0.00000000000E+00 -0.11761233159E+03  0.11761233159E+03  0.00000000000E+00 0.  1.
         24    2    1    2    0    0 -0.58251396615E+02  0.41298977162E+02 -0.71744202241E+02  0.12487342409E+03  0.73125308661E+02 0.  0.
         25    2    1    2    0    0  0.40795340503E+01 -0.28736118100E+02  0.23364020720E+03  0.26660576738E+03  0.12509389155E+03 0.  0.
        -24    2    1    2    0    0  0.54171862565E+02 -0.12562859062E+02  0.83559436396E+03  0.84123584062E+03  0.79795879182E+02 0.  0.
        -13    1    3    3    0    0 -0.57429512156E+02  0.10545184101E+02 -0.14935986311E+02  0.60269672815E+02  0.00000000000E+00 0.  1.
         14    1    3    3    0    0 -0.82188445945E+00  0.30753793061E+02 -0.56808215931E+02  0.64603751276E+02  0.00000000000E+00 0. -1.
         13    1    5    5    0    0 -0.50738589904E+01 -0.32849891541E+02  0.22562492750E+03  0.22806022741E+03  0.00000000000E+00 0. -1.
        -14    1    5    5    0    0  0.59245721555E+02  0.20287032479E+02  0.60996943646E+03  0.61317561320E+03  0.00000000000E+00 0.  1.
          5    1    4    4  501    0 -0.52584877429E+02  0.16566070642E+02  0.11221570529E+03  0.12509772558E+03  0.41800000000E+01 0.  1.
         -5    1    4    4    0  501  0.56664411479E+02 -0.45302188742E+02  0.12142450191E+03  0.14150804181E+03  0.41800000000E+01 0.  1.
</event>
<event>
11    1  0.6625361E-009  0.1655310E+03  0.7561462E-02  0.1081988E+00
         22   -1    0    0    0    0  0.00000000000E+00  0.00000000000E+00  0.17845646014E+04  0.17845646014E+04  0.00000000000E+00 0. -1.
         22   -1    0    0    0    0 -0.00000000000E+00 -0.00000000000E+00 -0.78769554875E+02  0.78769554875E+02  0.00000000000E+00 0.  1.
        -24    2    1    2    0    0  0.14650756719E+02 -0.27084859378E+02 -0.16835094605E+02  0.88344865787E+02  0.81075030809E+02 0.  0.
         25    2    1    2    0    0  0.93822886777E+02  0.40760501634E+01  0.24451087125E+03  0.29026319264E+03  0.12509119303E+03 0.  0.
         24    2    1    2    0    0 -0.10847364350E+03  0.23008809215E+02  0.14781192699E+04  0.14847260978E+04  0.85317483583E+02 0.  0.
        -13    1    5    5    0    0 -0.24609156627E+02 -0.30935945942E+02  0.35741292229E+03  0.35959232522E+03  0.00000000000E+00 0.  1.
         14    1    5    5    0    0 -0.83864486869E+02  0.53944755156E+02  0.11207063476E+04  0.11251337726E+04  0.00000000000E+00 0. -1.
         11    1    3    3    0    0  0.26134620544E+02 -0.38082081040E+02  0.18377264189E+02  0.49709024597E+02  0.00000000000E+00 0. -1.
        -12    1    3    3    0    0 -0.11483863825E+02  0.10997221662E+02 -0.35212358794E+02  0.38635841190E+02  0.00000000000E+00 0.  1.
          5    1    4    4  501    0  0.26677640438E+02 -0.43060726889E+02  0.17632897751E+03  0.18350831972E+03  0.41800000000E+01 0. -1.
         -5    1    4    4    0  501  0.67145246340E+02  0.47136777053E+02  0.68181893745E+02  0.10675487292E+03  0.41800000000E+01 0. -1.
</event>
<event>
11    1  0.6625361E-009  0.1321924E+03  0.7561462E-02  0.1116604E+00
         22   -1    0    0    0    0  0.00000000000E+00  0.00000000000E+00  0.87932790151E+03  0.87932790151E+03  0.00000000000E+00 0.  1.
         22   -1    0    0    0    0 -0.00000000000E+00 -0.00000000000E+00 -0.22216624993E+03  0.22216624993E+03  0.00000000000E+00 0. -1.
         24    2    1    2    0    0 -0.37862316155E+02  0.19288348584E+02 -0.18262926171E+03  0.20486545262E+03  0.82527638215E+02 0.  0.
         25    2    1    2    0    0  0.20944518285E+02 -0.60365421505E+02  0.17018779906E+03  0.22066653136E+03  0.12508866517E+03 0.  0.
        -24    2    1    2    0    0  0.16917797871E+02  0.41077072921E+02  0.66960311423E+03  0.67596216745E+03  0.81135586749E+02 0.  0.
        -13    1    3    3    0    0  0.14641689746E+02  0.13378338415E+02 -0.63296122467E+01  0.20818813813E+02  0.00000000000E+00 0.  1.
         14    1    3    3    0    0 -0.52504005902E+02  0.59100101688E+01 -0.17629964946E+03  0.18404663881E+03  0.00000000000E+00 0. -1.
         11    1    5    5    0    0  0.15028397636E+02  0.95123635486E+00  0.19589162439E+02  0.24708153941E+02  0.00000000000E+00 0. -1.
        -12    1    5    5    0    0  0.18894002351E+01  0.40125836566E+02  0.65001395179E+03  0.65125401351E+03  0.00000000000E+00 0.  1.
          5    1    4    4  501    0  0.65099136705E+02 -0.33261786758E+02  0.14600660983E+03  0.16333905403E+03  0.41800000000E+01 0. -1.
         -5    1    4    4    0  501 -0.44154618420E+02 -0.27103634747E+02  0.24181189227E+02  0.57327477328E+02  0.41800000000E+01 0. -1.
</event>
<event>
11    1  0.6625361E-009  0.1409006E+03  0.7561462E-02  0.1106557E+00
         22   -1    0    0    0    0  0.00000000000E+00  0.00000000000E+00  0.14888040458E+04  0.14888040458E+04  0.00000000000E+00 0. -1.
         22   -1    0    0    0    0 -0.00000000000E+00 -0.00000000000E+00 -0.41683461608E+03  0.41683461608E+03  0.00000000000E+00 0. -1.
         24    2    1    2    0    0 -0.51154848021E+02 -0.40915692627E+02 -0.34918155791E+03  0.36462635317E+03  0.82059153442E+02 0.  0.
         25    2    1    2    0    0  0.66832112704E+02  0.73022750611E+01  0.27619545800E+02  0.14467131463E+03  0.12508835061E+03 0.  0.
        -24    2    1    2    0    0 -0.15677264683E+02  0.33613417566E+02  0.13935314418E+04  0.13963409941E+04  0.80390633011E+02 0.  0.
        -13    1    3    3    0    0 -0.14560500038E+02  0.25381528277E+02 -0.95025084082E+02  0.99428349800E+02  0.00000000000E+00 0.  1.
         14    1    3    3    0    0 -0.36594347983E+02 -0.66297220904E+02 -0.25415647383E+03  0.26519800337E+03  0.00000000000E+00 0. -1.
         13    1    5    5    0    0 -0.43293179385E+02  0.30144798264E+02  0.11527044798E+04  0.11539110130E+04  0.00000000000E+00 0. -1.
        -14    1    5    5    0    0  0.27615914702E+02  0.34686193020E+01  0.24082696205E+03  0.24242998106E+03  0.00000000000E+00 0.  1.
          5    1    4    4  501    0 -0.68319892877E+01 -0.37386968321E+02  0.42464935186E+02  0.57141968799E+02  0.41800000000E+01 0.  1.
         -5    1    4    4    0  501  0.73664101991E+02  0.44689243382E+02 -0.14845389386E+02  0.87529345835E+02  0.41800000000E+01 0.  1.
</event>
<event>
11    1  0.7446787E-009  0.1880506E+03  0.7561462E-02  0.1063311E+00
         22   -1    0    0    0    0  0.00000000000E+00  0.00000000000E+00  0.70603628618E+03  0.70603628618E+03  0.00000000000E+00 0. -1.
         22   -1    0    0    0    0 -0.00000000000E+00 -0.00000000000E+00 -0.67719710714E+03  0.67719710714E+03  0.00000000000E+00 0. -1.
         24    2    1    2    0    0  0.95888070712E+02 -0.74586198212E+02 -0.41449251188E+03  0.43896540055E+03  0.78287658028E+02 0.  0.
         25    2    1    2    0    0 -0.15745076392E+03 -0.52660188776E+02 -0.19534598154E+03  0.28525819573E+03  0.12509335388E+03 0.  0.
        -24    2    1    2    0    0  0.61562693207E+02  0.12724638699E+03  0.63867767246E+03  0.65900979704E+03  0.80019591986E+02 0.  0.
        -11    1    3    3    0    0  0.36894168393E+02 -0.99841151382E-01 -0.21325824373E+03  0.21642612631E+03  0.00000000000E+00 0.  1.
         12    1    3    3    0    0  0.58993902319E+02 -0.74486357060E+02 -0.20123426816E+03  0.22253927424E+03  0.00000000000E+00 0. -1.
         13    1    5    5    0    0  0.37968378827E+02  0.10482371645E+03  0.59007321548E+03  0.60051312138E+03  0.00000000000E+00 0. -1.
        -14    1    5    5    0    0  0.23594314380E+02  0.22422670542E+02  0.48604456977E+02  0.58496675661E+02  0.00000000000E+00 0.  1.
          5    1    4    4  501    0  0.21524632214E+02 -0.33229507144E+01 -0.20918817133E+02  0.30486408507E+02  0.41800000000E+01 0. -1.
         -5    1    4    4    0  501 -0.17897539613E+03 -0.49337238062E+02 -0.17442716440E+03  0.25477178722E+03  0.41800000000E+01 0. -1.
</event>
<event>
11    1  0.6625361E-009  0.1497123E+03  0.7561462E-02  0.1097173E+00
         22   -1    0    0    0    0  0.00000000000E+00  0.00000000000E+00  0.50618409314E+02  0.50618409314E+02  0.00000000000E+00 0. -1.
         22   -1    0    0    0    0 -0.00000000000E+00 -0.00000000000E+00 -0.15097330170E+04  0.15097330170E+04  0.00000000000E+00 0. -1.
         24    2    1    2    0    0 -0.48183364412E+02  0.73486869639E+02 -0.10834344014E+04  0.10900406982E+04  0.81465729023E+02 0.  0.
         25    2    1    2    0    0  0.29616398728E+00 -0.65317396806E+02 -0.30906670254E+03  0.33975943348E+03  0.12509115068E+03 0.  0.
        -24    2    1    2    0    0  0.47887200425E+02 -0.81694728322E+01 -0.66613503697E+02  0.13055129458E+03  0.10122429249E+03 0.  0.
        -13    1    3    3    0    0 -0.49253678758E+02  0.15296886824E+02 -0.29608935785E+03  0.30054754607E+03  0.00000000000E+00 0.  1.
         14    1    3    3    0    0  0.10703143463E+01  0.58189982815E+02 -0.78734504356E+03  0.78949315215E+03  0.00000000000E+00 0. -1.
         11    1    5    5    0    0 -0.10133406894E+02  0.22083954350E+02  0.12952615444E+02  0.27534654925E+02  0.00000000000E+00 0. -1.
        -12    1    5    5    0    0  0.58020607319E+02 -0.30253427182E+02 -0.79566119141E+02  0.10301663965E+03  0.00000000000E+00 0.  1.
          5    1    4    4  501    0 -0.19583746982E+02 -0.99416888053E+02 -0.22010598593E+03  0.24234553476E+03  0.41800000000E+01 0.  1.
         -5    1    4    4    0  501  0.19879910969E+02  0.34099491247E+02 -0.88960716610E+02  0.97413898717E+02  0.41800000000E+01 0.  1.
</event>
<event>
11    1  0.6625361E-009  0.1923358E+03  0.7561462E-02  0.1060080E+00
         22   -1    0    0    0    0  0.00000000000E+00  0.00000000000E+00  0.47691502168E+03  0.47691502168E+03  0.00000000000E+00 0.  1.
         22   -1    0    0    0    0 -0.00000000000E+00 -0.00000000000E+00 -0.38995770385E+03  0.38995770385E+03  0.00000000000E+00 0.  1.
         24    2    1    2    0    0 -0.47553381659E+01  0.94200554457E+02 -0.25685785522E+03  0.28470625123E+03  0.78646894433E+02 0.  0.
         25    2    1    2    0    0  0.11083281839E+03  0.21274156543E+02 -0.27504287220E+02  0.17070679906E+03  0.12509125494E+03 0.  0.
        -24    2    1    2    0    0 -0.10607748022E+03 -0.11547471100E+03  0.37131946028E+03  0.41145967524E+03  0.82668507150E+02 0.  0.
        -11    1    3    3    0    0 -0.22160675167E+02  0.44989319360E+02 -0.20530453945E+03  0.21134116565E+03  0.00000000000E+00 0.  1.
         12    1    3    3    0    0  0.17405337001E+02  0.49211235097E+02 -0.51553315767E+02  0.73365085582E+02  0.00000000000E+00 0. -1.
         13    1    5    5    0    0 -0.38137825051E+02 -0.53879116517E+02  0.68800619387E+02  0.95346620938E+02  0.00000000000E+00 0. -1.
        -14    1    5    5    0    0 -0.67939655171E+02 -0.61595594483E+02  0.30251884089E+03  0.31611305430E+03  0.00000000000E+00 0.  1.
          5    1    4    4  501    0  0.13140757139E+03 -0.87731841080E+01 -0.19722624062E+02  0.13323427816E+03  0.41800000000E+01 0.  1.
         -5    1    4    4    0  501 -0.20574752999E+02  0.30047340651E+02 -0.77816631586E+01  0.37472520901E+02  0.41800000000E+01 0.  1.
</event>
<event>
11    1  0.6625361E-009  0.2028530E+03  0.7561462E-02  0.1052524E+00
         22   -1    0    0    0    0  0.00000000000E+00  0.00000000000E+00  0.33803471758E+03  0.33803471758E+03  0.00000000000E+00 0. -1.
         22   -1    0    0    0    0 -0.00000000000E+00 -0.00000000000E+00 -0.12619263566E+04  0.12619263566E+04  0.00000000000E+00 0.  1.
         24    2    1    2    0    0 -0.21818939415E+02 -0.49308353514E+02 -0.86646477187E+03  0.86953958463E+03  0.49300187634E+02 0.  0.
         25    2    1    2    0    0  0.44961678678E+02 -0.11176785870E+03 -0.34713705060E+03  0.38815626815E+03  0.12509016674E+03 0.  0.
        -24    2    1    2    0    0 -0.23142739263E+02  0.16107621222E+03  0.28971018347E+03  0.34226522138E+03  0.82050952672E+02 0.  0.
        -11    1    3    3    0    0 -0.15701153776E+01 -0.35928881737E+02 -0.73329330826E+03  0.73417465616E+03  0.00000000000E+00 0.  1.
         12    1    3    3    0    0 -0.20248824037E+02 -0.13379471777E+02 -0.13317146361E+03  0.13536492847E+03  0.00000000000E+00 0. -1.
         13    1    5    5    0    0  0.14799783790E+02  0.13379897564E+03  0.22925133567E+03  0.26585216641E+03  0.00000000000E+00 0. -1.
        -14    1    5    5    0    0 -0.37942523053E+02  0.27277236582E+02  0.60458847805E+02  0.76413054965E+02  0.00000000000E+00 0.  1.
          5    1    4    4  501    0  0.41153201872E+02 -0.87938948744E+02 -0.35023736609E+03  0.36347012221E+03  0.41800000000E+01 0.  1.
         -5    1    4    4    0  501  0.38084768060E+01 -0.23828909960E+02  0.31003154896E+01  0.24686145945E+02  0.41800000000E+01 0.  1.
</event>
<event>
11    1  0.6625361E-009  0.1301762E+03  0.7561462E-02  0.1119053E+00
         22   -1    0    0    0    0  0.00000000000E+00  0.00000000000E+00  0.30765149769E+03  0.30765149769E+03  0.00000000000E+00 0. -1.
         22   -1    0    0    0    0 -0.00000000000E+00 -0.00000000000E+00 -0.86508340313E+03  0.86508340313E+03  0.00000000000E+00 0. -1.
         24    2    1    2    0    0  0.32824989513E+02 -0.16215756386E+02 -0.79057047644E+03  0.79560601516E+03  0.81528046971E+02 0.  0.
         25    2    1    2    0    0 -0.17327442660E+02  0.13540553489E+02 -0.34811307596E+01  0.12705889114E+03  0.12509299216E+03 0.  0.
        -24    2    1    2    0    0 -0.15497546853E+02  0.26752028973E+01  0.23661970176E+03  0.25006999452E+03  0.79364905532E+02 0.  0.
        -11    1    3    3    0    0 -0.10965638157E+02  0.17041607675E+02 -0.68235354478E+02  0.71180932932E+02  0.00000000000E+00 0.  1.
         12    1    3    3    0    0  0.43790627671E+02 -0.33257364061E+02 -0.72233512196E+03  0.72442508223E+03  0.00000000000E+00 0. -1.
         13    1    5    5    0    0  0.21986947278E-01 -0.34615887941E+02  0.15723456271E+03  0.16099990028E+03  0.00000000000E+00 0. -1.
        -14    1    5    5    0    0 -0.15519533800E+02  0.37291090838E+02  0.79385139052E+02  0.89070094239E+02  0.00000000000E+00 0.  1.
          5    1    4    4  501    0 -0.33449647335E+01  0.55519969620E+02 -0.40733405963E+02  0.69067637696E+02  0.41800000000E+01 0. -1.
         -5    1    4    4    0  501 -0.13982477927E+02 -0.41979416131E+02  0.37252275203E+02  0.57991253439E+02  0.41800000000E+01 0. -1.
</event>
<event>
11    1  0.6625361E-009  0.1437532E+03  0.7561462E-02  0.1103438E+00
         22   -1    0    0    0    0  0.00000000000E+00  0.00000000000E+00  0.17092532197E+03  0.17092532197E+03  0.00000000000E+00 0.  1.
         22   -1    0    0    0    0 -0.00000000000E+00 -0.00000000000E+00 -0.58511928236E+03  0.58511928236E+03  0.00000000000E+00 0. -1.
        -24    2    1    2    0    0 -0.14479591316E+01  0.76946859946E+01 -0.45894990772E+03  0.46586410006E+03  0.79580381690E+02 0.  0.
         25    2    1    2    0    0  0.46097204586E+02 -0.60825735567E+02 -0.41491905799E+02  0.15229204072E+03  0.12508623042E+03 0.  0.
         24    2    1    2    0    0 -0.44649245454E+02  0.53131049572E+02  0.86247853130E+02  0.13788846356E+03  0.82207497621E+02 0.  0.
        -11    1    5    5    0    0 -0.55028095452E+02  0.63780182651E+02  0.89242011754E+02  0.12271976063E+03  0.00000000000E+00 0.  1.
         12    1    5    5    0    0  0.10378849998E+02 -0.10649133079E+02 -0.29941586231E+01  0.15168702927E+02  0.00000000000E+00 0. -1.
         13    1    3    3    0    0  0.14166296822E+01  0.21814115910E+02 -0.44586896353E+03  0.44640451961E+03  0.00000000000E+00 0. -1.
        -14    1    3    3    0    0 -0.28645888137E+01 -0.14119429915E+02 -0.13080944189E+02  0.19459580445E+02  0.00000000000E+00 0.  1.
          5    1    4    4  501    0  0.82606978377E+02 -0.29703327389E+02  0.12647083300E+01  0.87893528895E+02  0.41800000000E+01 0.  1.
         -5    1    4    4    0  501 -0.36509773791E+02 -0.31122408178E+02 -0.42756614129E+02  0.64398511822E+02  0.41800000000E+01 0.  1.
</event>
<event>
11    1  0.6625361E-009  0.1467522E+03  0.7561462E-02  0.1100244E+00
         22   -1    0    0    0    0  0.00000000000E+00  0.00000000000E+00  0.18120223629E+03  0.18120223629E+03  0.00000000000E+00 0.  1.
         22   -1    0    0    0    0 -0.00000000000E+00 -0.00000000000E+00 -0.13536998075E+04  0.13536998075E+04  0.00000000000E+00 0.  1.
         24    2    1    2    0    0 -0.37217160301E+02 -0.78980748607E+02 -0.92080663547E+03  0.92839070401E+03  0.80008522661E+02 0.  0.
         25    2    1    2    0    0  0.38320859680E+01  0.49067802521E+02 -0.40674152192E+03  0.42838065649E+03  0.12509591148E+03 0.  0.
        -24    2    1    2    0    0  0.33385074333E+02  0.29912946086E+02  0.15505058616E+03  0.17813068331E+03  0.75369148452E+02 0.  0.
        -13    1    3    3    0    0  0.21928923859E+02 -0.32713613153E+02 -0.43954151108E+03  0.44130238856E+03  0.00000000000E+00 0.  1.
         14    1    3    3    0    0 -0.59146084160E+02 -0.46267135454E+02 -0.48126512439E+03  0.48708831545E+03  0.00000000000E+00 0. -1.
         13    1    5    5    0    0  0.29695334426E+02  0.54664553764E+01  0.11252751038E+02  0.32222964280E+02  0.00000000000E+00 0. -1.
        -14    1    5    5    0    0  0.36897399067E+01  0.24446490709E+02  0.14379783512E+03  0.14590771903E+03  0.00000000000E+00 0.  1.
          5    1    4    4  501    0 -0.34206061673E+02  0.78219802526E+02 -0.23645845555E+03  0.25143282554E+03  0.41800000000E+01 0.  1.
         -5    1    4    4    0  501  0.38038147641E+02 -0.29152000005E+02 -0.17028306638E+03  0.17694783094E+03  0.41800000000E+01 0.  1.
</event>
<event>
11    1  0.6625361E-009  0.1435699E+03  0.7561462E-02  0.1103636E+00
         22   -1    0    0    0    0  0.00000000000E+00  0.00000000000E+00  0.12580124176E+04  0.12580124176E+04  0.00000000000E+00 0. -1.
         22   -1    0    0    0    0 -0.00000000000E+00 -0.00000000000E+00 -0.41809539874E+03  0.41809539874E+03  0.00000000000E+00 0.  1.
         24    2    1    2    0    0 -0.98671470256E+01  0.47492134410E+02 -0.39886811088E+03  0.41039756592E+03  0.83531603721E+02 0.  0.
         25    2    1    2    0    0 -0.10201162849E+02 -0.94636120156E+02  0.83328410196E+03  0.84798003256E+03  0.12509069544E+03 0.  0.
        -24    2    1    2    0    0  0.20068309875E+02  0.47143985746E+02  0.40550102782E+03  0.41773021788E+03  0.86267948394E+02 0.  0.
        -13    1    3    3    0    0 -0.27253137142E+02 -0.14937420321E+02 -0.10703382200E+03  0.11145447080E+03  0.00000000000E+00 0.  1.
         14    1    3    3    0    0  0.17385990116E+02  0.62429554731E+02 -0.29183428888E+03  0.29894309512E+03  0.00000000000E+00 0. -1.
         11    1    5    5    0    0  0.30048092960E+02  0.27310726343E+02  0.38614785588E+03  0.38827687320E+03  0.00000000000E+00 0. -1.
        -12    1    5    5    0    0 -0.99797830853E+01  0.19833259403E+02  0.19353171941E+02  0.29453344686E+02  0.00000000000E+00 0.  1.
          5    1    4    4  501    0  0.39439495932E+02 -0.92241239950E+02  0.66240269589E+03  0.66996919639E+03  0.41800000000E+01 0. -1.
         -5    1    4    4    0  501 -0.49640658781E+02 -0.23948802061E+01  0.17088140607E+03  0.17801083618E+03  0.41800000000E+01 0. -1.
</event>
<event>
11    1  0.6625361E-009  0.1435002E+03  0.7561462E-02  0.1103712E+00
         22   -1    0    0    0    0  0.00000000000E+00  0.00000000000E+00  0.17959222524E+04  0.17959222524E+04  0.00000000000E+00 0.  1.
         22   -1    0    0    0    0 -0.00000000000E+00 -0.00000000000E+00 -0.29172923331E+03  0.29172923331E+03  0.00000000000E+00 0.  1.
        -24    2    1    2    0    0  0.59837287870E+02  0.39398427355E+02 -0.26787145554E+03  0.28759838910E+03  0.76321554111E+02 0.  0.
         25    2    1    2    0    0  0.15291295323E+00 -0.41012807006E+02  0.34206637698E+03  0.36652341401E+03  0.12509169853E+03 0.  0.
         24    2    1    2    0    0 -0.59990200823E+02  0.16143796514E+01  0.14299980977E+04  0.14335296826E+04  0.80693005878E+02 0.  0.
        -13    1    5    5    0    0 -0.73154646320E+02  0.12130513166E+02  0.83305417832E+03  0.83634802305E+03  0.00000000000E+00 0.  1.
         14    1    5    5    0    0  0.13164445497E+02 -0.10516133515E+02  0.59694391934E+03  0.59718165957E+03  0.00000000000E+00 0. -1.
         13    1    3    3    0    0  0.74219656817E+01  0.27619044803E+02 -0.22428120723E+02  0.36344432993E+02  0.00000000000E+00 0. -1.
        -14    1    3    3    0    0  0.52415322188E+02  0.11779382552E+02 -0.24544333481E+03  0.25125395610E+03  0.00000000000E+00 0.  1.
          5    1    4    4  501    0  0.56925773762E+02 -0.47619317051E+02  0.19359898150E+03  0.20737931698E+03  0.41800000000E+01 0.  1.
         -5    1    4    4    0  501 -0.56772860808E+02  0.66065100445E+01  0.14846739548E+03  0.15914409703E+03  0.41800000000E+01 0.  1.
</event>
<event>
11    1  0.6625361E-009  0.1352059E+03  0.7561462E-02  0.1113033E+00
         22   -1    0    0    0    0  0.00000000000E+00  0.00000000000E+00  0.53334910411E+03  0.53334910411E+03  0.00000000000E+00 0. -1.
         22   -1    0    0    0    0 -0.00000000000E+00 -0.00000000000E+00 -0.37496184961E+03  0.37496184961E+03  0.00000000000E+00 0. -1.
         24    2    1    2    0    0 -0.49752415486E+02  0.10907801219E+02 -0.27600256008E+03  0.29150422664E+03  0.78759240769E+02 0.  0.
         25    2    1    2    0    0  0.51141180976E+02 -0.18156249252E+02 -0.34456295955E+02  0.14064149131E+03  0.12509085885E+03 0.  0.
        -24    2    1    2    0    0 -0.13887654903E+01  0.72484480326E+01  0.46884611053E+03  0.47616523577E+03  0.82838322820E+02 0.  0.
        -11    1    3    3    0    0 -0.10095465094E+02  0.28088479241E+02 -0.21313095535E+03  0.21521079250E+03  0.00000000000E+00 0.  1.
         12    1    3    3    0    0 -0.39656950392E+02 -0.17180678021E+02 -0.62871604730E+02  0.76293434140E+02  0.00000000000E+00 0. -1.
         11    1    5    5    0    0 -0.12378344503E+02  0.85265213837E+01  0.46373415529E+03  0.46397768455E+03  0.00000000000E+00 0. -1.
        -12    1    5    5    0    0  0.10989579013E+02 -0.12780733512E+01  0.51119552447E+01  0.12187551222E+02  0.00000000000E+00 0.  1.
          5    1    4    4  501    0  0.51778064998E+01  0.30769383710E+02  0.32843136682E+02  0.45494051052E+02  0.41800000000E+01 0.  1.
         -5    1    4    4    0  501  0.45963374477E+02 -0.48925632962E+02 -0.67299432637E+02  0.95147440256E+02  0.41800000000E+01 0.  1.
</event>
<event>
11    1  0.6625361E-009  0.1453042E+03  0.7561462E-02  0.1101776E+00
         22   -1    0    0    0    0  0.00000000000E+00  0.00000000000E+00  0.11986196720E+04  0.11986196720E+04  0.00000000000E+00 0. -1.
         22   -1    0    0    0    0 -0.00000000000E+00 -0.00000000000E+00 -0.92325842905E+03  0.92325842905E+03  0.00000000000E+00 0. -1.
         24    2    1    2    0    0  0.73847267535E+02  0.63891826251E+00 -0.90757282517E+03  0.91454605192E+03  0.85159972789E+02 0.  0.
         25    2    1    2    0    0 -0.88559625662E+02  0.16965083345E+01  0.61051107094E+03  0.62945753220E+03  0.12508929475E+03 0.  0.
        -24    2    1    2    0    0  0.14712358128E+02 -0.23354265970E+01  0.57242299720E+03  0.57787451694E+03  0.77775072572E+02 0.  0.
        -13    1    3    3    0    0  0.67021915037E+02  0.38015238103E+01 -0.32191242269E+03  0.32883734058E+03  0.00000000000E+00 0.  1.
         14    1    3    3    0    0  0.68253524974E+01 -0.31626055478E+01 -0.58566040248E+03  0.58570871134E+03  0.00000000000E+00 0. -1.
         13    1    5    5    0    0  0.17151663212E+00  0.31063317898E+02  0.42048610736E+03  0.42163197889E+03  0.00000000000E+00 0. -1.
        -14    1    5    5    0    0  0.14540841495E+02 -0.33398744495E+02  0.15193688984E+03  0.15624253806E+03  0.00000000000E+00 0.  1.
          5    1    4    4  501    0 -0.10837247540E+03 -0.31274197503E+02  0.41031824448E+03  0.42555987006E+03  0.41800000000E+01 0.  1.
         -5    1    4    4    0  501  0.19812849738E+02  0.32970705837E+02  0.20019282647E+03  0.20389766214E+03  0.41800000000E+01 0.  1.
</event>
<event>
11    1  0.6625361E-009  0.1575223E+03  0.7561462E-02  0.1089431E+00
         22   -1    0    0    0    0  0.00000000000E+00  0.00000000000E+00  0.42438094024E+03  0.42438094024E+03  0.00000000000E+00 0. -1.
         22   -1    0    0    0    0 -0.00000000000E+00 -0.00000000000E+00 -0.66615239277E+03  0.66615239277E+03  0.00000000000E+00 0.  1.
         24    2    1    2    0    0 -0.44128629308E+02 -0.71364054598E+02 -0.22383154498E+03  0.25128862195E+03  0.77493527349E+02 0.  0.
         25    2    1    2    0    0 -0.33684273089E+01  0.12080226027E+03 -0.40363314399E+03  0.43951384628E+03  0.12509266067E+03 0.  0.
        -24    2    1    2    0    0  0.47497056616E+02 -0.49438205675E+02  0.38569323644E+03  0.39973086478E+03  0.79532289382E+02 0.  0.
        -13    1    3    3    0    0 -0.61414764238E+02 -0.70858539503E+02 -0.20656014291E+03  0.22684752263E+03  0.00000000000E+00 0.  1.
         14    1    3    3    0    0  0.17286134930E+02 -0.50551509503E+00 -0.17271402073E+02  0.24441099318E+02  0.00000000000E+00 0. -1.
         11    1    5    5    0    0  0.49302569609E+02 -0.14918157443E+01  0.27023978107E+03  0.27470440141E+03  0.00000000000E+00 0. -1.
        -12    1    5    5    0    0 -0.18055129927E+01 -0.47946389930E+02  0.11545345537E+03  0.12502646337E+03  0.00000000000E+00 0.  1.
          5    1    4    4  501    0 -0.37771067266E+00  0.13669798281E+03 -0.24989737330E+03  0.28487304322E+03  0.41800000000E+01 0. -1.
         -5    1    4    4    0  501 -0.29907166362E+01 -0.15895722540E+02 -0.15373577069E+03  0.15464080306E+03  0.41800000000E+01 0. -1.
</event>
<event>
11    1  0.6625361E-009  0.1381937E+03  0.7561462E-02  0.1109592E+00
         22   -1    0    0    0    0  0.00000000000E+00  0.00000000000E+00  0.20974721248E+04  0.20974721248E+04  0.00000000000E+00 0. -1.
         22   -1    0    0    0    0 -0.00000000000E+00 -0.00000000000E+00 -0.28291072890E+02  0.28291072890E+02  0.00000000000E+00 0. -1.
         24    2    1    2    0    0 -0.59681149473E+02  0.28879305865E+02  0.11090438272E+03  0.15160873358E+03  0.79306822405E+02 0.  0.
         25    2    1    2    0    0  0.27931915826E+02  0.13287431786E+02  0.66349378027E+03  0.67589032842E+03  0.12508793638E+03 0.  0.
        -24    2    1    2    0    0  0.31749233647E+02 -0.42166737650E+02  0.12947828889E+04  0.12982641357E+04  0.78999930390E+02 0.  0.
        -11    1    3    3    0    0  0.10282532324E+02  0.86237462965E+01  0.63039777858E+02  0.64452409292E+02  0.00000000000E+00 0.  1.
         12    1    3    3    0    0 -0.69963681797E+02  0.20255559568E+02  0.47864604867E+02  0.87156324286E+02  0.00000000000E+00 0. -1.
         11    1    5    5    0    0 -0.98030218960E+01  0.92476689942E+01  0.64223019984E+03  0.64237158110E+03  0.00000000000E+00 0. -1.
        -12    1    5    5    0    0  0.41552255543E+02 -0.51414406645E+02  0.65255268905E+03  0.65589255456E+03  0.00000000000E+00 0.  1.
          5    1    4    4  501    0  0.13743559260E+02 -0.49433429823E+02  0.44855312482E+03  0.45149742811E+03  0.41800000000E+01 0.  1.
         -5    1    4    4    0  501  0.14188356566E+02  0.62720861609E+02  0.21494065546E+03  0.22439290031E+03  0.41800000000E+01 0.  1.
</event>
<event>
11    1  0.6625361E-009  0.2546797E+03  0.7561462E-02  0.1021435E+00
         22   -1    0    0    0    0  0.00000000000E+00  0.00000000000E+00  0.73160212909E+03  0.73160212909E+03  0.00000000000E+00 0.  1.
         22   -1    0    0    0    0 -0.00000000000E+00 -0.00000000000E+00 -0.37648103299E+03  0.37648103299E+03  0.00000000000E+00 0.  1.
        -24    2    1    2    0    0 -0.67138218074E+02  0.20052696174E+03 -0.18056695489E+03  0.28932514692E+03  0.79912531758E+02 0.  0.
         25    2    1    2    0    0  0.30660366284E+02 -0.25142525696E+03  0.96364699607E+01  0.28265705711E+03  0.12508969774E+03 0.  0.
         24    2    1    2    0    0  0.36477851790E+02  0.50898295221E+02  0.52605158102E+03  0.53610095806E+03  0.82174821021E+02 0.  0.
        -13    1    5    5    0    0  0.22063566254E+02  0.13397216174E+02  0.44391743252E+03  0.44466726128E+03  0.00000000000E+00 0.  1.
         14    1    5    5    0    0  0.14414285536E+02  0.37501079047E+02  0.82134148502E+02  0.91433696782E+02  0.00000000000E+00 0. -1.
         11    1    3    3    0    0 -0.18151346073E+02  0.20598979424E+02  0.30463544703E+01  0.27623714325E+02  0.00000000000E+00 0. -1.
        -12    1    3    3    0    0 -0.48986872001E+02  0.17992798232E+03 -0.18361330936E+03  0.26170143259E+03  0.00000000000E+00 0.  1.
          5    1    4    4  501    0 -0.27609460908E+02 -0.77210331800E+02 -0.41400197953E+02  0.91951979091E+02  0.41800000000E+01 0.  1.
         -5    1    4    4    0  501  0.58269827192E+02 -0.17421492516E+03  0.51036667914E+02  0.19070507802E+03  0.41800000000E+01 0.  1.
</event>
<event>
11    1  0.6625361E-009  0.1309803E+03  0.7561462E-02  0.1118070E+00
         22   -1    0    0    0    0  0.00000000000E+00  0.00000000000E+00  0.20279986601E+04  0.20279986601E+04  0.00000000000E+00 0.  1.
         22   -1    0    0    0    0 -0.00000000000E+00 -0.00000000000E+00 -0.87454732076E+02  0.87454732076E+02  0.00000000000E+00 0.  1.
        -24    2    1    2    0    0 -0.38080445787E+02 -0.12125422456E+02 -0.24722192897E+02  0.90485445115E+02  0.77325821916E+02 0.  0.
         25    2    1    2    0    0  0.36153286602E+02 -0.40046535797E+01  0.11728688982E+03  0.17529357133E+03  0.12509406158E+03 0.  0.
         24    2    1    2    0    0  0.19271591849E+01  0.16130076036E+02  0.18479792311E+04  0.18496743757E+04  0.77486543121E+02 0.  0.
        -11    1    5    5    0    0  0.25013885070E+02 -0.15527565935E+02  0.12831780868E+04  0.12835157975E+04  0.00000000000E+00 0.  1.
         12    1    5    5    0    0 -0.23086725886E+02  0.31657641971E+02  0.56480114423E+03  0.56615857826E+03  0.00000000000E+00 0. -1.
         13    1    3    3    0    0 -0.55644401665E+01  0.28200617892E+02 -0.25868242347E+02  0.38670451329E+02  0.00000000000E+00 0. -1.
        -14    1    3    3    0    0 -0.32516005620E+02 -0.40326040349E+02  0.11460494498E+01  0.51814993786E+02  0.00000000000E+00 0.  1.
          5    1    4    4  501    0 -0.46583613007E+02 -0.31323846329E+01  0.50270387702E+02  0.68734482714E+02  0.41800000000E+01 0. -1.
         -5    1    4    4    0  501  0.82736899609E+02 -0.87226894681E+00  0.67016502118E+02  0.10655908861E+03  0.41800000000E+01 0. -1.
</event>
<event>
11    1  0.6625361E-009  0.1427488E+03  0.7561462E-02  0.1104527E+00
         22   -1    0    0    0    0  0.00000000000E+00  0.00000000000E+00  0.43232354793E+03  0.43232354793E+03  0.00000000000E+00 0. -1.
         22   -1    0    0    0    0 -0.00000000000E+00 -0.00000000000E+00 -0.18871562548E+03  0.18871562548E+03  0.00000000000E+00 0.  1.
         24    2    1    2    0    0 -0.36865017883E+02  0.22564372834E+02 -0.12101194124E+03  0.15125097641E+03  0.79779618178E+02 0.  0.
         25    2    1    2    0    0  0.88454795201E+02 -0.53822158699E+02  0.11344674777E+03  0.19809422393E+03  0.12510028542E+03 0.  0.
        -24    2    1    2    0    0 -0.51589777318E+02  0.31257785865E+02  0.25117311592E+03  0.27169397307E+03  0.84208826965E+02 0.  0.
        -11    1    3    3    0    0 -0.61126374770E+02  0.61377302591E+01 -0.81391062120E+02  0.10197357706E+03  0.00000000000E+00 0.  1.
         12    1    3    3    0    0  0.24261356887E+02  0.16426642575E+02 -0.39620879124E+02  0.49277399351E+02  0.00000000000E+00 0. -1.
         13    1    5    5    0    0 -0.29792611142E+02  0.26365941082E+02  0.24542273348E+03  0.24862638765E+03  0.00000000000E+00 0. -1.
        -14    1    5    5    0    0 -0.21797166175E+02  0.48918447832E+01  0.57503824397E+01  0.23067585415E+02  0.00000000000E+00 0.  1.
          5    1    4    4  501    0  0.11279070944E+03 -0.28532546528E+02  0.52651831275E+02  0.12777142906E+03  0.41800000000E+01 0. -1.
         -5    1    4    4    0  501 -0.24335914244E+02 -0.25289612171E+02  0.60794916497E+02  0.70322794866E+02  0.41800000000E+01 0. -1.
</event>
<event>
11    1  0.6625361E-009  0.1322559E+03  0.7561462E-02  0.1116528E+00
         22   -1    0    0    0    0  0.00000000000E+00  0.00000000000E+00  0.14577174490E+04  0.14577174490E+04  0.00000000000E+00 0.  1.
         22   -1    0    0    0    0 -0.00000000000E+00 -0.00000000000E+00 -0.20030849931E+03  0.20030849931E+03  0.00000000000E+00 0. -1.
         24    2    1    2    0    0  0.21993934634E+02  0.13418166876E+02 -0.16664228723E+03  0.18634764754E+03  0.79322213071E+02 0.  0.
         25    2    1    2    0    0 -0.22605380530E+02 -0.55374844286E+02  0.19467955816E+03  0.23900918392E+03  0.12509149860E+03 0.  0.
        -24    2    1    2    0    0  0.61144589593E+00  0.41956677409E+02  0.12293716787E+04  0.12326691168E+04  0.79735126850E+02 0.  0.
        -11    1    3    3    0    0  0.13981072077E+02 -0.19686326710E+02 -0.10151384730E+02  0.26192984704E+02  0.00000000000E+00 0.  1.
         12    1    3    3    0    0  0.80128625568E+01  0.33104493587E+02 -0.15649090250E+03  0.16015466283E+03  0.00000000000E+00 0. -1.
         13    1    5    5    0    0 -0.46152028057E+01  0.17147702364E+02  0.50613838476E+02  0.53638646875E+02  0.00000000000E+00 0. -1.
        -14    1    5    5    0    0  0.52266487016E+01  0.24808975046E+02  0.11787578403E+04  0.11790304699E+04  0.00000000000E+00 0.  1.
          5    1    4    4  501    0  0.13014278198E+02  0.12515537817E+02  0.14799170144E+03  0.14914766582E+03  0.41800000000E+01 0.  1.
         -5    1    4    4    0  501 -0.35619658728E+02 -0.67890382103E+02  0.46687856726E+02  0.89861518102E+02  0.41800000000E+01 0.  1.
</event>
<event>
11    1  0.6625361E-009  0.1816115E+03  0.7561462E-02  0.1068347E+00
         22   -1    0    0    0    0  0.00000000000E+00  0.00000000000E+00  0.47442929825E+03  0.47442929825E+03  0.00000000000E+00 0. -1.
         22   -1    0    0    0    0 -0.00000000000E+00 -0.00000000000E+00 -0.66245411370E+03  0.66245411370E+03  0.00000000000E+00 0. -1.
        -24    2    1    2    0    0 -0.86948514989E+02  0.99861379373E+02 -0.58881383449E+03  0.60840094025E+03  0.76926153365E+02 0.  0.
         25    2    1    2    0    0  0.14118291559E+03 -0.31802623074E+02  0.12603297624E+03  0.22907552728E+03  0.12508902275E+03 0.  0.
         24    2    1    2    0    0 -0.54234400600E+02 -0.68058756299E+02  0.27475604279E+03  0.29940694440E+03  0.81118868268E+02 0.  0.
        -13    1    5    5    0    0  0.39645558363E+01  0.13090966814E+02  0.73219252735E+02  0.74485905285E+02  0.00000000000E+00 0.  1.
         14    1    5    5    0    0 -0.58198956436E+02 -0.81149723113E+02  0.20153679006E+03  0.22492103912E+03  0.00000000000E+00 0. -1.
         11    1    3    3    0    0 -0.73454484630E+02  0.87211318383E+02 -0.57248008358E+03  0.58372495361E+03  0.00000000000E+00 0. -1.
        -12    1    3    3    0    0 -0.13494030358E+02  0.12650060990E+02 -0.16333750902E+02  0.24675986644E+02  0.00000000000E+00 0.  1.
          5    1    4    4  501    0  0.85676181361E+02  0.22069522731E+02  0.12297481109E+03  0.15155114136E+03  0.41800000000E+01 0. -1.
         -5    1    4    4    0  501  0.55506734228E+02 -0.53872145805E+02  0.30581651546E+01  0.77524385921E+02  0.41800000000E+01 0. -1.
</event>
<event>
11    1  0.6625361E-009  0.1345060E+03  0.7561462E-02  0.1113853E+00
         22   -1    0    0    0    0  0.00000000000E+00  0.00000000000E+00  0.60367932304E+03  0.60367932304E+03  0.00000000000E+00 0. -1.
         22   -1    0    0    0    0 -0.00000000000E+00 -0.00000000000E+00 -0.97448418795E+03  0.97448418795E+03  0.00000000000E+00 0.  1.
         24    2    1    2    0    0 -0.56542776199E+01 -0.44339563886E+02 -0.93427701505E+03  0.93848487838E+03  0.76696533934E+02 0.  0.
         25    2    1    2    0    0 -0.35428857213E+02  0.84617350131E+01  0.10047667791E+03  0.16452929984E+03  0.12509005884E+03 0.  0.
        -24    2    1    2    0    0  0.41083134833E+02  0.35877828873E+02  0.46299547223E+03  0.47514933277E+03  0.91798902779E+02 0.  0.
        -13    1    3    3    0    0 -0.91599285249E+01 -0.46682463257E+02 -0.26767762394E+03  0.27187215199E+03  0.00000000000E+00 0.  1.
         14    1    3    3    0    0  0.35056509050E+01  0.23428993707E+01 -0.66659939111E+03  0.66661272639E+03  0.00000000000E+00 0. -1.
         11    1    5    5    0    0  0.72607273600E+01  0.44774190197E+02  0.40421210867E+03  0.40674915496E+03  0.00000000000E+00 0. -1.
        -12    1    5    5    0    0  0.33822407473E+02 -0.88963613239E+01  0.58783363569E+02  0.68400177810E+02  0.00000000000E+00 0.  1.
          5    1    4    4  501    0 -0.77472644939E+02 -0.91619052790E+01  0.37464613887E+02  0.86643066173E+02  0.41800000000E+01 0. -1.
         -5    1    4    4    0  501  0.42043787726E+02  0.17623640292E+02  0.63012064020E+02  0.77886233671E+02  0.41800000000E+01 0. -1.
</event>
<event>
11    1  0.6625361E-009  0.3813909E+03  0.7561462E-02  0.9706319E-01
         22   -1    0    0    0    0  0.00000000000E+00  0.00000000000E+00  0.40301171381E+03  0.40301171381E+03  0.00000000000E+00 0. -1.
         22   -1    0    0    0    0 -0.00000000000E+00 -0.00000000000E+00 -0.16082048975E+04  0.16082048975E+04  0.00000000000E+00 0.  1.
         24    2    1    2    0    0 -0.20477079601E+03  0.31883192800E+03 -0.10065798407E+04  0.10794301055E+04  0.91550530698E+02 0.  0.
         25    2    1    2    0    0  0.19051460455E+03 -0.27149991184E+03 -0.50172821351E+03  0.61431821206E+03  0.12509056225E+03 0.  0.
        -24    2    1    2    0    0  0.14256191466E+02 -0.47332016168E+02  0.30311487053E+03  0.31746829376E+03  0.80398594860E+02 0.  0.
        -13    1    3    3    0    0 -0.34426480760E+02  0.12554064940E+03 -0.39133636927E+03  0.41241943594E+03  0.00000000000E+00 0.  1.
         14    1    3    3    0    0 -0.17034431525E+03  0.19329127860E+03 -0.61524347142E+03  0.66701066952E+03  0.00000000000E+00 0. -1.
         11    1    5    5    0    0  0.44962095342E+02 -0.15742253435E+02  0.19472946259E+03  0.20047187374E+03  0.00000000000E+00 0. -1.
        -12    1    5    5    0    0 -0.30705903876E+02 -0.31589762733E+02  0.10838540794E+03  0.11699642002E+03  0.00000000000E+00 0.  1.
          5    1    4    4  501    0  0.16076834086E+03 -0.12360299441E+03 -0.30700515969E+03  0.36795896528E+03  0.41800000000E+01 0.  1.
         -5    1    4    4    0  501  0.29746263684E+02 -0.14789691742E+03 -0.19472305382E+03  0.24635924678E+03  0.41800000000E+01 0.  1.
</event>
<event>
11    1  0.6625361E-009  0.1355769E+03  0.7561462E-02  0.1112601E+00
         22   -1    0    0    0    0  0.00000000000E+00  0.00000000000E+00  0.32511357039E+03  0.32511357039E+03  0.00000000000E+00 0. -1.
         22   -1    0    0    0    0 -0.00000000000E+00 -0.00000000000E+00 -0.96460524271E+03  0.96460524271E+03  0.00000000000E+00 0.  1.
         24    2    1    2    0    0  0.47973765757E+02  0.20066056014E+02 -0.91503705783E+03  0.91999609198E+03  0.79974141169E+02 0.  0.
         25    2    1    2    0    0 -0.87886323479E+02  0.10276492061E+02  0.18792373924E+03  0.24247028219E+03  0.12508754468E+03 0.  0.
        -24    2    1    2    0    0  0.39912557722E+02 -0.30342548075E+02  0.87621646272E+02  0.12725243893E+03  0.77472239092E+02 0.  0.
        -11    1    3    3    0    0  0.65698622136E+02  0.15462390182E+02 -0.84190310751E+03  0.84460418949E+03  0.00000000000E+00 0.  1.
         12    1    3    3    0    0 -0.17724856379E+02  0.46036658318E+01 -0.73133950320E+02  0.75391902498E+02  0.00000000000E+00 0. -1.
         11    1    5    5    0    0  0.58254659914E+02 -0.39929037903E+02  0.74961634808E+02  0.10299116546E+03  0.00000000000E+00 0. -1.
        -12    1    5    5    0    0 -0.18342102192E+02  0.95864898278E+01  0.12660011464E+02  0.24261273468E+02  0.00000000000E+00 0.  1.
          5    1    4    4  501    0 -0.10312231984E+03  0.35625623657E+02  0.94538298406E+02  0.14442423680E+03  0.41800000000E+01 0.  1.
         -5    1    4    4    0  501  0.15235996358E+02 -0.25349131595E+02  0.93385440832E+02  0.98046045392E+02  0.41800000000E+01 0.  1.
</event>
<event>
11    1  0.6625361E-009  0.1747651E+03  0.7561462E-02  0.1073958E+00
         22   -1    0    0    0    0  0.00000000000E+00  0.00000000000E+00  0.42216713529E+04  0.42216713529E+04  0.00000000000E+00 0.  1.
         22   -1    0    0    0    0 -0.00000000000E+00 -0.00000000000E+00 -0.63501028122E+03  0.63501028122E+03  0.00000000000E+00 0.  1.
        -24    2    1    2    0    0 -0.21975826432E+02  0.54270403623E+02 -0.58315553851E+03  0.59177997915E+03  0.81883746669E+02 0.  0.
         25    2    1    2    0    0  0.13354121126E+03 -0.10083545672E+03  0.18984413845E+03  0.28229625417E+03  0.12509729725E+03 0.  0.
         24    2    1    2    0    0 -0.11156538482E+03  0.46565053098E+02  0.39799724717E+04  0.39826054008E+04  0.79685402782E+02 0.  0.
        -11    1    5    5    0    0 -0.97024474108E+02  0.67949762854E+02  0.31337224200E+04  0.31359603193E+04  0.00000000000E+00 0.  1.
         12    1    5    5    0    0 -0.14540910715E+02 -0.21384709756E+02  0.84625005178E+03  0.84664508150E+03  0.00000000000E+00 0. -1.
         11    1    3    3    0    0  0.12531130817E+02  0.44729971432E+02 -0.14716972963E+03  0.15432669537E+03  0.00000000000E+00 0. -1.
        -12    1    3    3    0    0 -0.34506957249E+02  0.95404321907E+01 -0.43598580888E+03  0.43745328378E+03  0.00000000000E+00 0.  1.
          5    1    4    4  501    0 -0.14352424296E+02 -0.43900521070E+02  0.21695212384E+02  0.51199633532E+02  0.41800000000E+01 0.  1.
         -5    1    4    4    0  501  0.14789363555E+03 -0.56934935650E+02  0.16814892607E+03  0.23109662064E+03  0.41800000000E+01 0.  1.
</event>
<event>
11    1  0.6625361E-009  0.1380067E+03  0.7561462E-02  0.1109805E+00
         22   -1    0    0    0    0  0.00000000000E+00  0.00000000000E+00  0.14379216789E+03  0.14379216789E+03  0.00000000000E+00 0. -1.
         22   -1    0    0    0    0 -0.00000000000E+00 -0.00000000000E+00 -0.12076285605E+04  0.12076285605E+04  0.00000000000E+00 0.  1.
         24    2    1    2    0    0  0.82611803914E+01 -0.60577313864E+02 -0.10545798345E+04  0.10594476646E+04  0.80949791022E+02 0.  0.
         25    2    1    2    0    0  0.10486835032E+02 -0.50796540026E+01 -0.94347130748E+02  0.15711182689E+03  0.12508784304E+03 0.  0.
        -24    2    1    2    0    0 -0.18748015424E+02  0.65656967866E+02  0.85090572613E+02  0.13486123691E+03  0.79276870278E+02 0.  0.
        -11    1    3    3    0    0  0.20818570555E+01  0.46774871312E+01 -0.61375593955E+03  0.61377729377E+03  0.00000000000E+00 0.  1.
         12    1    3    3    0    0  0.61793233359E+01 -0.65254800995E+02 -0.44082389495E+03  0.44567037085E+03  0.00000000000E+00 0. -1.
         13    1    5    5    0    0 -0.36296395634E+02  0.72076071864E+02  0.83475874897E+02  0.11610602982E+03  0.00000000000E+00 0. -1.
        -14    1    5    5    0    0  0.17548380210E+02 -0.64191039974E+01  0.16146977160E+01  0.18755207086E+02  0.00000000000E+00 0.  1.
          5    1    4    4  501    0  0.58021388385E+02 -0.20728578090E+02 -0.86502863707E+02  0.10628439815E+03  0.41800000000E+01 0.  1.
         -5    1    4    4    0  501 -0.47534553353E+02  0.15648924087E+02 -0.78442670415E+01  0.50827428746E+02  0.41800000000E+01 0.  1.
</event>
<event>
11    1  0.6625361E-009  0.1654688E+03  0.7561462E-02  0.1082044E+00
         22   -1    0    0    0    0  0.00000000000E+00  0.00000000000E+00  0.27563318582E+03  0.27563318582E+03  0.00000000000E+00 0.  1.
         22   -1    0    0    0    0 -0.00000000000E+00 -0.00000000000E+00 -0.11187252665E+04  0.11187252665E+04  0.00000000000E+00 0.  1.
         24    2    1    2    0    0 -0.80860661893E+02  0.83681990545E+02 -0.99211737910E+03  0.10019891821E+04  0.78385616381E+02 0.  0.
         25    2    1    2    0    0  0.43462449737E+02 -0.14894494474E+02 -0.66576594683E+02  0.14896595280E+03  0.12509029391E+03 0.  0.
        -24    2    1    2    0    0  0.37398212156E+02 -0.68787496071E+02  0.21560189313E+03  0.24340331745E+03  0.81428820066E+02 0.  0.
        -11    1    3    3    0    0 -0.17019057179E+02  0.63581504969E+02 -0.33017757341E+03  0.33667415413E+03  0.00000000000E+00 0.  1.
         12    1    3    3    0    0 -0.63841604714E+02  0.20100485576E+02 -0.66193980570E+03  0.66531502792E+03  0.00000000000E+00 0. -1.
         11    1    5    5    0    0  0.28185853853E+02 -0.48254171368E+02  0.46184545458E+02  0.72497721695E+02  0.00000000000E+00 0. -1.
        -12    1    5    5    0    0  0.92123583027E+01 -0.20533324702E+02  0.16941734767E+03  0.17090559575E+03  0.00000000000E+00 0.  1.
          5    1    4    4  501    0  0.68557481814E+02 -0.40209025094E+02 -0.76305646882E+01  0.79953686151E+02  0.41800000000E+01 0.  1.
         -5    1    4    4    0  501 -0.25095032077E+02  0.25314530620E+02 -0.58946029995E+02  0.69012266646E+02  0.41800000000E+01 0.  1.
</event>
<event>
11    1  0.6625361E-009  0.1513478E+03  0.7561462E-02  0.1095509E+00
         22   -1    0    0    0    0  0.00000000000E+00  0.00000000000E+00  0.20228268551E+03  0.20228268551E+03  0.00000000000E+00 0. -1.
         22   -1    0    0    0    0 -0.00000000000E+00 -0.00000000000E+00 -0.66158865101E+03  0.66158865101E+03  0.00000000000E+00 0.  1.
         24    2    1    2    0    0 -0.29420592245E+01  0.29211795752E+02 -0.41033914123E+03  0.41902577444E+03  0.79639212019E+02 0.  0.
         25    2    1    2    0    0  0.62413258963E+02 -0.87598491066E+02 -0.19678381177E+03  0.25678962136E+03  0.12509248791E+03 0.  0.
        -24    2    1    2    0    0 -0.59471199739E+02  0.58386695314E+02  0.14781698750E+03  0.18805594072E+03  0.81051497566E+02 0.  0.
        -11    1    3    3    0    0 -0.21270464775E+02 -0.39631428835E+01 -0.32414935244E+03  0.32487065405E+03  0.00000000000E+00 0.  1.
         12    1    3    3    0    0  0.18328405551E+02  0.33174938636E+02 -0.86189788790E+02  0.94155120388E+02  0.00000000000E+00 0. -1.
         11    1    5    5    0    0 -0.67111833776E+02  0.72371891044E+02  0.13677279082E+03  0.16866678735E+03  0.00000000000E+00 0. -1.
        -12    1    5    5    0    0  0.76406340375E+01 -0.13985195730E+02  0.11044196688E+02  0.19389153375E+02  0.00000000000E+00 0.  1.
          5    1    4    4  501    0 -0.36989917293E+02 -0.13472768974E+02 -0.34494738032E+02  0.52508369209E+02  0.41800000000E+01 0.  1.
         -5    1    4    4    0  501  0.99403176256E+02 -0.74125722092E+02 -0.16228907374E+03  0.20428125215E+03  0.41800000000E+01 0.  1.
</event>
<event>
11    1  0.6625361E-009  0.2196245E+03  0.7561462E-02  0.1041453E+00
         22   -1    0    0    0    0  0.00000000000E+00  0.00000000000E+00  0.72255827444E+03  0.72255827444E+03  0.00000000000E+00 0.  1.
         22   -1    0    0    0    0 -0.00000000000E+00 -0.00000000000E+00 -0.26639643377E+03  0.26639643377E+03  0.00000000000E+00 0. -1.
        -24    2    1    2    0    0  0.50748489955E+02  0.14979673540E+02 -0.16588598383E+03  0.19172670882E+03  0.80256908687E+02 0.  0.
         25    2    1    2    0    0  0.13739006514E+03  0.21521687627E+02  0.57502022390E+02  0.19568193265E+03  0.12508286512E+03 0.  0.
         24    2    1    2    0    0 -0.18813855510E+03 -0.36501361168E+02  0.56454580211E+03  0.60154606674E+03  0.80107692841E+02 0.  0.
        -13    1    5    5    0    0 -0.15611968473E+03 -0.45010350596E+02  0.36863396142E+03  0.40285268416E+03  0.00000000000E+00 0.  1.
         14    1    5    5    0    0 -0.32018870369E+02  0.85089894283E+01  0.19591184069E+03  0.19869338258E+03  0.00000000000E+00 0. -1.
         11    1    3    3    0    0  0.36157561583E+02 -0.45954093398E+01 -0.16313537415E+03  0.16715752255E+03  0.00000000000E+00 0. -1.
        -12    1    3    3    0    0  0.14590928372E+02  0.19575082880E+02 -0.27506096852E+01  0.24569186274E+02  0.00000000000E+00 0.  1.
          5    1    4    4  501    0  0.71316976697E+02 -0.95626314276E+01 -0.33040751014E+02  0.79288830945E+02  0.41800000000E+01 0.  1.
         -5    1    4    4    0  501  0.66073088446E+02  0.31084319055E+02  0.90542773404E+02  0.11639310170E+03  0.41800000000E+01 0.  1.
</event>
<event>
11    1  0.6625361E-009  0.1398088E+03  0.7561462E-02  0.1107772E+00
         22   -1    0    0    0    0  0.00000000000E+00  0.00000000000E+00  0.62686457273E+03  0.62686457273E+03  0.00000000000E+00 0. -1.
         22   -1    0    0    0    0 -0.00000000000E+00 -0.00000000000E+00 -0.79110391738E+03  0.79110391738E+03  0.00000000000E+00 0. -1.
         24    2    1    2    0    0  0.42402756407E+02  0.23146643613E+01 -0.72051377986E+03  0.72630788424E+03  0.81115253354E+02 0.  0.
         25    2    1    2    0    0 -0.79633267371E+02  0.45595123541E+02  0.32769388587E+02  0.15856289354E+03  0.12509190947E+03 0.  0.
        -24    2    1    2    0    0  0.37230510964E+02 -0.47909787902E+02  0.52350504663E+03  0.53309771233E+03  0.80337900943E+02 0.  0.
        -11    1    3    3    0    0 -0.12337928433E+02  0.12812074433E+02 -0.43394071427E+02  0.46897965460E+02  0.00000000000E+00 0.  1.
         12    1    3    3    0    0  0.54740684840E+02 -0.10497410072E+02 -0.67711970843E+03  0.67940991878E+03  0.00000000000E+00 0. -1.
         11    1    5    5    0    0 -0.12595263865E+02 -0.14587322264E+02  0.32904400695E+03  0.32960793248E+03  0.00000000000E+00 0. -1.
        -12    1    5    5    0    0  0.49825774829E+02 -0.33322465638E+02  0.19446103968E+03  0.20348977986E+03  0.00000000000E+00 0.  1.
          5    1    4    4  501    0 -0.92333868546E+02 -0.31931880588E+01  0.49984144716E+02  0.10512671808E+03  0.41800000000E+01 0.  1.
         -5    1    4    4    0  501  0.12700601175E+02  0.48788311600E+02 -0.17214756129E+02  0.53436175458E+02  0.41800000000E+01 0.  1.
</event>
<event>
11    1  0.6625361E-009  0.1482024E+03  0.7561462E-02  0.1098730E+00
         22   -1    0    0    0    0  0.00000000000E+00  0.00000000000E+00  0.10667212877E+04  0.10667212877E+04  0.00000000000E+00 0. -1.
         22   -1    0    0    0    0 -0.00000000000E+00 -0.00000000000E+00 -0.18401884449E+04  0.18401884449E+04  0.00000000000E+00 0.  1.
        -24    2    1    2    0    0  0.96748172316E+01 -0.77608845195E+02 -0.15934281281E+04  0.15973531662E+04  0.80045007689E+02 0.  0.
         25    2    1    2    0    0 -0.32940806626E+02  0.92087278530E+02 -0.21656289831E+03  0.26854943925E+03  0.12511654082E+03 0.  0.
         24    2    1    2    0    0  0.23265989395E+02 -0.14478433335E+02  0.10365238692E+04  0.10410071271E+04  0.92537430638E+02 0.  0.
        -13    1    5    5    0    0  0.92431157118E+01  0.23134349321E+02  0.83473432489E+02  0.87111694037E+02  0.00000000000E+00 0.  1.
         14    1    5    5    0    0  0.14022873683E+02 -0.37612782656E+02  0.95305043669E+03  0.95389543310E+03  0.00000000000E+00 0. -1.
         11    1    3    3    0    0 -0.70714850750E+01 -0.16478966619E+02 -0.60163490300E+02  0.62779039552E+02  0.00000000000E+00 0. -1.
        -12    1    3    3    0    0  0.16746302307E+02 -0.61129878576E+02 -0.15332646378E+04  0.15345741267E+04  0.00000000000E+00 0.  1.
          5    1    4    4  501    0  0.13769224933E+02  0.43060263070E+02 -0.19055720009E+03  0.19589103276E+03  0.41800000000E+01 0. -1.
         -5    1    4    4    0  501 -0.46710031559E+02  0.49027015461E+02 -0.26005698221E+02  0.72658406486E+02  0.41800000000E+01 0. -1.
</event>
<event>
11    1  0.6625361E-009  0.2964996E+03  0.7561462E-02  0.1001684E+00
         22   -1    0    0    0    0  0.00000000000E+00  0.00000000000E+00  0.12597934392E+04  0.12597934392E+04  0.00000000000E+00 0. -1.
         22   -1    0    0    0    0 -0.00000000000E+00 -0.00000000000E+00 -0.56043383774E+03  0.56043383774E+03  0.00000000000E+00 0.  1.
        -24    2    1    2    0    0  0.10065319996E+03  0.13874013436E+03 -0.53661008297E+02  0.20129268299E+03  0.90880959879E+02 0.  0.
         25    2    1    2    0    0 -0.34092154352E+03 -0.24531250175E+03 -0.30003069965E+03  0.53110433412E+03  0.12509064965E+03 0.  0.
         24    2    1    2    0    0  0.24026834356E+03  0.10657236740E+03  0.10530513094E+04  0.10878302598E+04  0.73287567355E+02 0.  0.
        -13    1    5    5    0    0  0.41561932649E+02  0.32506707543E+02  0.33464228208E+03  0.33877652994E+03  0.00000000000E+00 0.  1.
         14    1    5    5    0    0  0.19870641091E+03  0.74065659852E+02  0.71840902729E+03  0.74905372985E+03  0.00000000000E+00 0. -1.
         11    1    3    3    0    0 -0.18768250287E+01 -0.78428750519E+01 -0.16823519867E+02  0.18656472925E+02  0.00000000000E+00 0. -1.
        -12    1    3    3    0    0  0.10253002499E+03  0.14658300941E+03 -0.36837488430E+02  0.18263621006E+03  0.00000000000E+00 0.  1.
          5    1    4    4  501    0 -0.92780032501E+02 -0.98126805726E+02 -0.16289186674E+03  0.21163231578E+03  0.41800000000E+01 0. -1.
         -5    1    4    4    0  501 -0.24814151102E+03 -0.14718569603E+03 -0.13713883292E+03  0.31947201834E+03  0.41800000000E+01 0. -1.
</event>
<event>
11    1  0.6625361E-009  0.1569062E+03  0.7561462E-02  0.1090024E+00
         22   -1    0    0    0    0  0.00000000000E+00  0.00000000000E+00  0.54880627829E+03  0.54880627829E+03  0.00000000000E+00 0. -1.
         22   -1    0    0    0    0 -0.00000000000E+00 -0.00000000000E+00 -0.84127022968E+03  0.84127022968E+03  0.00000000000E+00 0. -1.
        -24    2    1    2    0    0 -0.61973960168E+02 -0.13137779182E+02 -0.75547574960E+03  0.76249080766E+03  0.81457047268E+02 0.  0.
         25    2    1    2    0    0  0.75243670243E+02  0.10440298365E+03  0.35610724691E+02  0.18296716397E+03  0.12508903417E+03 0.  0.
         24    2    1    2    0    0 -0.13269710075E+02 -0.91265204472E+02  0.42740107353E+03  0.44461853634E+03  0.80675538135E+02 0.  0.
        -13    1    5    5    0    0  0.21796700800E+00 -0.14743524030E+02  0.25603820856E+03  0.25646244024E+03  0.00000000000E+00 0.  1.
         14    1    5    5    0    0 -0.13487677083E+02 -0.76521680443E+02  0.17136286497E+03  0.18815609610E+03  0.00000000000E+00 0. -1.
         13    1    3    3    0    0 -0.33650059103E+02  0.18715291730E+02 -0.60129433944E+03  0.60252590920E+03  0.00000000000E+00 0. -1.
        -14    1    3    3    0    0 -0.28323901065E+02 -0.31853070912E+02 -0.15418141017E+03  0.15996489846E+03  0.00000000000E+00 0.  1.
          5    1    4    4  501    0 -0.21336642358E+02 -0.17106978168E+01  0.32806227485E+02  0.39394158907E+02  0.41800000000E+01 0. -1.
         -5    1    4    4    0  501  0.96580312601E+02  0.10611368147E+03  0.28044972052E+01  0.14357300506E+03  0.41800000000E+01 0. -1.
</event>
<event>
11    1  0.6625361E-009  0.1944813E+03  0.7561462E-02  0.1058496E+00
         22   -1    0    0    0    0  0.00000000000E+00  0.00000000000E+00  0.40263794048E+04  0.40263794048E+04  0.00000000000E+00 0.  1.
         22   -1    0    0    0    0 -0.00000000000E+00 -0.00000000000E+00 -0.38749574113E+02  0.38749574113E+02  0.00000000000E+00 0.  1.
         24    2    1    2    0    0 -0.56863152874E+01  0.23957592474E+02  0.29226636752E+02  0.87995312747E+02  0.79263348093E+02 0.  0.
         25    2    1    2    0    0 -0.13572055124E+03  0.35130947257E+02  0.13561822455E+04  0.13691354085E+04  0.12508889741E+03 0.  0.
        -24    2    1    2    0    0  0.14140686653E+03 -0.59088539731E+02  0.26022209484E+04  0.26079982577E+04  0.81324597765E+02 0.  0.
        -13    1    3    3    0    0  0.22313596487E+02 -0.85200915596E+01 -0.13521088903E+02  0.27446464135E+02  0.00000000000E+00 0.  1.
         14    1    3    3    0    0 -0.27999911774E+02  0.32477684034E+02  0.42747725655E+02  0.60548848612E+02  0.00000000000E+00 0. -1.
         11    1    5    5    0    0  0.54617496601E+02  0.11721881519E+01  0.47059491011E+03  0.47375522623E+03  0.00000000000E+00 0. -1.
        -12    1    5    5    0    0  0.86789369930E+02 -0.60260727883E+02  0.21316260383E+04  0.21342430315E+04  0.00000000000E+00 0.  1.
          5    1    4    4  501    0 -0.10708572886E+03 -0.19755483867E+02  0.55774959407E+03  0.56829544653E+03  0.41800000000E+01 0. -1.
         -5    1    4    4    0  501 -0.28634822383E+02  0.54886431124E+02  0.79843265145E+03  0.80083996196E+03  0.41800000000E+01 0. -1.
</event>
<event>
11    1  0.6625361E-009  0.1455657E+03  0.7561462E-02  0.1101498E+00
         22   -1    0    0    0    0  0.00000000000E+00  0.00000000000E+00  0.18612360209E+04  0.18612360209E+04  0.00000000000E+00 0.  1.
         22   -1    0    0    0    0 -0.00000000000E+00 -0.00000000000E+00 -0.19883979129E+03  0.19883979129E+03  0.00000000000E+00 0.  1.
         24    2    1    2    0    0  0.53910837861E+01  0.77732278672E+01 -0.17985366085E+03  0.20032406129E+03  0.87709197661E+02 0.  0.
         25    2    1    2    0    0  0.46224131290E+02 -0.60334086995E+02  0.99989140878E+03  0.10105477134E+04  0.12508788645E+03 0.  0.
        -24    2    1    2    0    0 -0.51615215076E+02  0.52560859128E+02  0.84235848163E+03  0.84920403747E+03  0.78440495489E+02 0.  0.
        -13    1    3    3    0    0  0.27082364747E+02 -0.18346511360E+02 -0.15456577578E+03  0.15798932876E+03  0.00000000000E+00 0.  1.
         14    1    3    3    0    0 -0.21691280961E+02  0.26119739228E+02 -0.25287885070E+02  0.42334732530E+02  0.00000000000E+00 0. -1.
         13    1    5    5    0    0  0.59702200120E+01  0.49549032239E+02  0.37966724471E+03  0.38293337127E+03  0.00000000000E+00 0. -1.
        -14    1    5    5    0    0 -0.57585435088E+02  0.30118268891E+01  0.46269123692E+03  0.46627066620E+03  0.00000000000E+00 0.  1.
          5    1    4    4  501    0  0.67182378236E+02 -0.77367368275E+02  0.52806811452E+03  0.53793362750E+03  0.41800000000E+01 0.  1.
         -5    1    4    4    0  501 -0.20958246946E+02  0.17033281280E+02  0.47182329426E+03  0.47261408590E+03  0.41800000000E+01 0.  1.
</event>
<event>
11    1  0.6625361E-009  0.1410616E+03  0.7561462E-02  0.1106379E+00
         22   -1    0    0    0    0  0.00000000000E+00  0.00000000000E+00  0.21323543109E+03  0.21323543109E+03  0.00000000000E+00 0. -1.
         22   -1    0    0    0    0 -0.00000000000E+00 -0.00000000000E+00 -0.11476952317E+04  0.11476952317E+04  0.00000000000E+00 0. -1.
         24    2    1    2    0    0 -0.43990463127E+02  0.81987857427E+01 -0.10566297934E+04  0.10606263977E+04  0.80370729806E+02 0.  0.
         25    2    1    2    0    0  0.42956772841E+02  0.58193442715E+02  0.41440946471E+01  0.14456248271E+03  0.12509746911E+03 0.  0.
        -24    2    1    2    0    0  0.10336902859E+01 -0.66392228457E+02  0.11802589816E+03  0.15574178239E+03  0.76918096900E+02 0.  0.
        -11    1    3    3    0    0 -0.98759402408E+01 -0.13696329144E+02 -0.43149581506E+02  0.46335839388E+02  0.00000000000E+00 0.  1.
         12    1    3    3    0    0 -0.34114522886E+02  0.21895114887E+02 -0.10134802119E+04  0.10142905583E+04  0.00000000000E+00 0. -1.
         11    1    5    5    0    0  0.25396662364E+02 -0.67782130888E+02  0.64648095796E+02  0.97050419974E+02  0.00000000000E+00 0. -1.
        -12    1    5    5    0    0 -0.24362972078E+02  0.13899024306E+01  0.53377802364E+02  0.58691362418E+02  0.00000000000E+00 0.  1.
          5    1    4    4  501    0  0.50922928030E+02 -0.27145012497E+02  0.92835720574E+01  0.58597384010E+02  0.41800000000E+01 0.  1.
         -5    1    4    4    0  501 -0.79661551898E+01  0.85338455211E+02 -0.51394774103E+01  0.85965098700E+02  0.41800000000E+01 0.  1.
</event>
<event>
11    1  0.6625361E-009  0.1535729E+03  0.7561462E-02  0.1093283E+00
         22   -1    0    0    0    0  0.00000000000E+00  0.00000000000E+00  0.59930618011E+02  0.59930618011E+02  0.00000000000E+00 0. -1.
         22   -1    0    0    0    0 -0.00000000000E+00 -0.00000000000E+00 -0.17503151609E+04  0.17503151609E+04  0.00000000000E+00 0.  1.
         24    2    1    2    0    0  0.12308111304E+02  0.35354096601E+02 -0.14221522620E+04  0.14249229822E+04  0.80542206974E+02 0.  0.
         25    2    1    2    0    0 -0.61337918423E+02 -0.90607981242E+02 -0.14783706677E+03  0.22243142229E+03  0.12509113802E+03 0.  0.
        -24    2    1    2    0    0  0.49029807119E+02  0.55253884641E+02 -0.12039521411E+03  0.16289137442E+03  0.81127544807E+02 0.  0.
        -13    1    3    3    0    0  0.38828304292E+02  0.27911607456E+02 -0.12158504154E+04  0.12167904206E+04  0.00000000000E+00 0.  1.
         14    1    3    3    0    0 -0.26520192988E+02  0.74424891452E+01 -0.20630184660E+03  0.20813256158E+03  0.00000000000E+00 0. -1.
         11    1    5    5    0    0  0.58318320628E+02  0.30567816472E+02 -0.37222823601E+02  0.75637004975E+02  0.00000000000E+00 0. -1.
        -12    1    5    5    0    0 -0.92885135086E+01  0.24686068168E+02 -0.83172390504E+02  0.87254369443E+02  0.00000000000E+00 0.  1.
          5    1    4    4  501    0 -0.23125458105E+02 -0.19545965288E+02  0.19745949025E+02  0.36389647903E+02  0.41800000000E+01 0. -1.
         -5    1    4    4    0  501 -0.38212460318E+02 -0.71062015954E+02 -0.16758301580E+03  0.18604177439E+03  0.41800000000E+01 0. -1.
</event>
<event>
11    1  0.6625361E-009  0.1393796E+03  0.7561462E-02  0.1108253E+00
         22   -1    0    0    0    0  0.00000000000E+00  0.00000000000E+00  0.11564838647E+04  0.11564838647E+04  0.00000000000E+00 0. -1.
         22   -1    0    0    0    0 -0.00000000000E+00 -0.00000000000E+00 -0.62143035335E+02  0.62143035335E+02  0.00000000000E+00 0. -1.
        -24    2    1    2    0    0  0.22273465356E+02 -0.62308199803E+02  0.87041159177E+01  0.10632145209E+03  0.82765152803E+02 0.  0.
         25    2    1    2    0    0 -0.93993013473E+01  0.28954702865E+02  0.36968584516E+03  0.39146075541E+03  0.12508867745E+03 0.  0.
         24    2    1    2    0    0 -0.12874164008E+02  0.33353496938E+02  0.71595086831E+03  0.72084469257E+03  0.75850017184E+02 0.  0.
        -13    1    5    5    0    0 -0.28428332401E+02  0.16855908930E+02  0.12015327047E+03  0.12461581021E+03  0.00000000000E+00 0.  1.
         14    1    5    5    0    0  0.15554168393E+02  0.16497588008E+02  0.59579759784E+03  0.59622888236E+03  0.00000000000E+00 0. -1.
         13    1    3    3    0    0  0.49107231493E+02 -0.61420807147E+02  0.20716326915E+01  0.78665922721E+02  0.00000000000E+00 0. -1.
        -14    1    3    3    0    0 -0.26833766137E+02 -0.88739265622E+00  0.66324832262E+01  0.27655529367E+02  0.00000000000E+00 0.  1.
          5    1    4    4  501    0 -0.53817996725E+02  0.34908342698E+02  0.31060617496E+03  0.31718864653E+03  0.41800000000E+01 0.  1.
         -5    1    4    4    0  501  0.44418695378E+02 -0.59536398330E+01  0.59079670199E+02  0.74272108878E+02  0.41800000000E+01 0.  1.
</event>
<event>
11    1  0.6625361E-009  0.1688344E+03  0.7561462E-02  0.1079051E+00
         22   -1    0    0    0    0  0.00000000000E+00  0.00000000000E+00  0.57282262544E+03  0.57282262544E+03  0.00000000000E+00 0.  1.
         22   -1    0    0    0    0 -0.00000000000E+00 -0.00000000000E+00 -0.23702452743E+03  0.23702452743E+03  0.00000000000E+00 0. -1.
         24    2    1    2    0    0  0.48682592189E+02  0.19518536844E+02 -0.16662234022E+03  0.19204997627E+03  0.79807399791E+02 0.  0.
         25    2    1    2    0    0 -0.15000678803E+03 -0.34588418116E+02  0.17159906357E+03  0.26228372823E+03  0.12509244723E+03 0.  0.
        -24    2    1    2    0    0  0.10132419584E+03  0.15069881272E+02  0.33082137467E+03  0.35551344836E+03  0.80332658650E+02 0.  0.
        -13    1    3    3    0    0  0.14284112563E+02 -0.12223136454E+02  0.18426496865E+00  0.18800927904E+02  0.00000000000E+00 0.  1.
         14    1    3    3    0    0  0.34398479626E+02  0.31741673298E+02 -0.16680660519E+03  0.17324904837E+03  0.00000000000E+00 0. -1.
         13    1    5    5    0    0  0.19306359621E+02  0.11310219877E+02  0.10279782372E+02  0.24623779586E+02  0.00000000000E+00 0. -1.
        -14    1    5    5    0    0  0.82017836223E+02  0.37596613943E+01  0.32054159230E+03  0.33088966878E+03  0.00000000000E+00 0.  1.
          5    1    4    4  501    0  0.33547824275E+01 -0.44179231110E+02  0.34503536110E+02  0.56311858704E+02  0.41800000000E+01 0. -1.
         -5    1    4    4    0  501 -0.15336157046E+03  0.95908129940E+01  0.13709552746E+03  0.20597186953E+03  0.41800000000E+01 0. -1.
</event>
<event>
11    1  0.6625361E-009  0.1610379E+03  0.7561462E-02  0.1086105E+00
         22   -1    0    0    0    0  0.00000000000E+00  0.00000000000E+00  0.65979995468E+03  0.65979995468E+03  0.00000000000E+00 0. -1.
         22   -1    0    0    0    0 -0.00000000000E+00 -0.00000000000E+00 -0.80786076761E+03  0.80786076761E+03  0.00000000000E+00 0.  1.
         24    2    1    2    0    0 -0.31926446279E+02  0.67214862172E+02 -0.74599206548E+03  0.75435427049E+03  0.83720176659E+02 0.  0.
         25    2    1    2    0    0  0.99372504074E+02  0.13898391897E+02  0.81152798477E+02  0.17972751152E+03  0.12509253308E+03 0.  0.
        -24    2    1    2    0    0 -0.67446057795E+02 -0.81113254069E+02  0.51677845407E+03  0.53357894029E+03  0.80735272515E+02 0.  0.
        -11    1    3    3    0    0 -0.33982821928E+02  0.68323318210E+02 -0.74762171828E+03  0.75150591590E+03  0.00000000000E+00 0.  1.
         12    1    3    3    0    0  0.20563756492E+01 -0.11084560373E+01  0.16296527997E+01  0.28483545855E+01  0.00000000000E+00 0. -1.
         13    1    5    5    0    0 -0.83228666373E+02 -0.62671640654E+02  0.35442260046E+03  0.36941863132E+03  0.00000000000E+00 0. -1.
        -14    1    5    5    0    0  0.15782608578E+02 -0.18441613416E+02  0.16235585361E+03  0.16416030897E+03  0.00000000000E+00 0.  1.
          5    1    4    4  501    0  0.51849038902E+02 -0.37147587860E+02 -0.10189927963E+02  0.64726912106E+02  0.41800000000E+01 0.  1.
         -5    1    4    4    0  501  0.47523465172E+02  0.51045979757E+02  0.91342726441E+02  0.11500059941E+03  0.41800000000E+01 0.  1.
</event>
<event>
11    1  0.6625361E-009  0.1355262E+03  0.7561462E-02  0.1112660E+00
         22   -1    0    0    0    0  0.00000000000E+00  0.00000000000E+00  0.11447583344E+04  0.11447583344E+04  0.00000000000E+00 0.  1.
         22   -1    0    0    0    0 -0.00000000000E+00 -0.00000000000E+00 -0.15782061018E+04  0.15782061018E+04  0.00000000000E+00 0. -1.
         24    2    1    2    0    0 -0.56776396953E+01  0.51711605099E+02 -0.14045370142E+04  0.14077485123E+04  0.79531903856E+02 0.  0.
         25    2    1    2    0    0 -0.26331769637E+02 -0.57062134568E+02 -0.14163125240E+03  0.19914037684E+03  0.12509208104E+03 0.  0.
        -24    2    1    2    0    0  0.32009409332E+02  0.53505294684E+01  0.11127204992E+04  0.11160755471E+04  0.80152898232E+02 0.  0.
        -11    1    3    3    0    0  0.81512698589E+01  0.20254484133E+02 -0.84843040873E+02  0.87607242352E+02  0.00000000000E+00 0.  1.
         12    1    3    3    0    0 -0.13828909554E+02  0.31457120966E+02 -0.13196939734E+04  0.13201412699E+04  0.00000000000E+00 0. -1.
         13    1    5    5    0    0  0.31919879575E+02 -0.71083729218E+00  0.15112013660E+03  0.15445607689E+03  0.00000000000E+00 0. -1.
        -14    1    5    5    0    0  0.89529757658E-01  0.60613667606E+01  0.96160036256E+03  0.96161947019E+03  0.00000000000E+00 0.  1.
          5    1    4    4  501    0 -0.22421591432E+02 -0.95989434103E+02 -0.11552358426E+03  0.15192060473E+03  0.41800000000E+01 0.  1.
         -5    1    4    4    0  501 -0.39101782046E+01  0.38927299535E+02 -0.26107668144E+02  0.47219772115E+02  0.41800000000E+01 0.  1.
</event>
<event>
11    1  0.6625361E-009  0.2147482E+03  0.7561462E-02  0.1044558E+00
         22   -1    0    0    0    0  0.00000000000E+00  0.00000000000E+00  0.94989069908E+03  0.94989069908E+03  0.00000000000E+00 0. -1.
         22   -1    0    0    0    0 -0.00000000000E+00 -0.00000000000E+00 -0.82979951159E+03  0.82979951159E+03  0.00000000000E+00 0. -1.
        -24    2    1    2    0    0 -0.44859811123E+02 -0.20145245788E+02 -0.64595236231E+03  0.65273295813E+03  0.79922629271E+02 0.  0.
         25    2    1    2    0    0  0.15432189800E+03 -0.11484424071E+03 -0.92449604271E+02  0.24738614703E+03  0.12509407895E+03 0.  0.
         24    2    1    2    0    0 -0.10946208688E+03  0.13498948649E+03  0.85849315407E+03  0.87957110552E+03  0.80191795973E+02 0.  0.
        -11    1    5    5    0    0 -0.43837206093E+01  0.44742530017E+02  0.33743347751E+03  0.34041513295E+03  0.00000000000E+00 0.  1.
         12    1    5    5    0    0 -0.10507836627E+03  0.90246956476E+02  0.52105967656E+03  0.53915597257E+03  0.00000000000E+00 0. -1.
         13    1    3    3    0    0 -0.58756348218E+02 -0.20868453063E+02 -0.62132778551E+03  0.62444857101E+03  0.00000000000E+00 0. -1.
        -14    1    3    3    0    0  0.13896537095E+02  0.72320727508E+00 -0.24624576795E+02  0.28284387113E+02  0.00000000000E+00 0.  1.
          5    1    4    4  501    0  0.77353467654E+02 -0.80770403229E+02 -0.11466744444E+03  0.16022956098E+03  0.41800000000E+01 0. -1.
         -5    1    4    4    0  501  0.76968430348E+02 -0.34073837476E+02  0.22217840174E+02  0.87156586054E+02  0.41800000000E+01 0. -1.
</event>
<event>
11    1  0.6625361E-009  0.1476275E+03  0.7561462E-02  0.1099328E+00
         22   -1    0    0    0    0  0.00000000000E+00  0.00000000000E+00  0.32032664786E+03  0.32032664786E+03  0.00000000000E+00 0.  1.
         22   -1    0    0    0    0 -0.00000000000E+00 -0.00000000000E+00 -0.19195403000E+04  0.19195403000E+04  0.00000000000E+00 0.  1.
         24    2    1    2    0    0 -0.35829505633E+02  0.19213295985E+02 -0.17095717431E+04  0.17118773613E+04  0.78966138940E+02 0.  0.
         25    2    1    2    0    0  0.38270093878E+02  0.60051672632E+02 -0.17177715960E+03  0.22411638233E+03  0.12509978736E+03 0.  0.
        -24    2    1    2    0    0 -0.24405882448E+01 -0.79264968617E+02  0.28213525052E+03  0.30387320427E+03  0.80310229527E+02 0.  0.
        -11    1    3    3    0    0 -0.19365341607E+02  0.45486245237E+02 -0.66050301023E+03  0.66235054275E+03  0.00000000000E+00 0.  1.
         12    1    3    3    0    0 -0.16464164027E+02 -0.26272949253E+02 -0.10490687328E+04  0.10495268185E+04  0.00000000000E+00 0. -1.
         13    1    5    5    0    0 -0.30614084288E+02 -0.57855375062E+02  0.10887396684E+03  0.12703545661E+03  0.00000000000E+00 0. -1.
        -14    1    5    5    0    0  0.28173496043E+02 -0.21409593555E+02  0.17326128368E+03  0.17683774767E+03  0.00000000000E+00 0.  1.
          5    1    4    4  501    0  0.67002322535E+02 -0.10212632208E+02 -0.79414287240E+02  0.10448784857E+03  0.41800000000E+01 0. -1.
         -5    1    4    4    0  501 -0.28732228657E+02  0.70264304840E+02 -0.92362872358E+02  0.11962853376E+03  0.41800000000E+01 0. -1.
</event>
<event>
11    1  0.6625361E-009  0.1453986E+03  0.7561462E-02  0.1101675E+00
         22   -1    0    0    0    0  0.00000000000E+00  0.00000000000E+00  0.41716240208E+03  0.41716240208E+03  0.00000000000E+00 0. -1.
         22   -1    0    0    0    0 -0.00000000000E+00 -0.00000000000E+00 -0.10580101033E+03  0.10580101033E+03  0.00000000000E+00 0.  1.
        -24    2    1    2    0    0  0.13740350583E+02  0.17030433514E+02 -0.23741761111E+02  0.85539092071E+02  0.79211313282E+02 0.  0.
         25    2    1    2    0    0 -0.18573787570E+02  0.60666718241E+02  0.86828635193E+02  0.16496248570E+03  0.12509186029E+03 0.  0.
         24    2    1    2    0    0  0.48334369874E+01 -0.77697151755E+02  0.24827451768E+03  0.27246183464E+03  0.80839382144E+02 0.  0.
        -11    1    5    5    0    0  0.13431046768E+02 -0.11445233898E+02  0.25646206801E+01  0.17831535983E+02  0.00000000000E+00 0.  1.
         12    1    5    5    0    0 -0.85976097810E+01 -0.66251917857E+02  0.24570989700E+03  0.25463029866E+03  0.00000000000E+00 0. -1.
         11    1    3    3    0    0 -0.32306157823E+02  0.84480063432E+01 -0.84603306912E+00  0.33403179735E+02  0.00000000000E+00 0. -1.
        -12    1    3    3    0    0  0.46046508406E+02  0.85824271705E+01 -0.22895728042E+02  0.52135912336E+02  0.00000000000E+00 0.  1.
          5    1    4    4  501    0  0.36636856123E+02 -0.92728008679E+01  0.61375623072E+02  0.72198916682E+02  0.41800000000E+01 0.  1.
         -5    1    4    4    0  501 -0.55210643693E+02  0.69939519109E+02  0.25453012121E+02  0.92763569015E+02  0.41800000000E+01 0.  1.
</event>
<event>
11    1  0.6625361E-009  0.1612193E+03  0.7561462E-02  0.1085936E+00
         22   -1    0    0    0    0  0.00000000000E+00  0.00000000000E+00  0.53523621245E+03  0.53523621245E+03  0.00000000000E+00 0. -1.
         22   -1    0    0    0    0 -0.00000000000E+00 -0.00000000000E+00 -0.76958777487E+03  0.76958777487E+03  0.00000000000E+00 0. -1.
        -24    2    1    2    0    0 -0.95284595983E+02  0.42172350113E+02 -0.64948632010E+03  0.66237667907E+03  0.77799252119E+02 0.  0.
         25    2    1    2    0    0  0.95588062371E+02  0.24873023966E+02 -0.48990445284E+02  0.16672836805E+03  0.12507014030E+03 0.  0.
         24    2    1    2    0    0 -0.30346638745E+00 -0.67045374079E+02  0.46412520296E+03  0.47571894019E+03  0.80007073162E+02 0.  0.
        -13    1    5    5    0    0  0.30450146742E+02 -0.24073784865E+02  0.91899827596E+02  0.99761399682E+02  0.00000000000E+00 0.  1.
         14    1    5    5    0    0 -0.30753613130E+02 -0.42971589214E+02  0.37222537537E+03  0.37595754051E+03  0.00000000000E+00 0. -1.
         13    1    3    3    0    0 -0.34541319570E+02  0.43043067172E+02 -0.46222166851E+03  0.46550475747E+03  0.00000000000E+00 0. -1.
        -14    1    3    3    0    0 -0.60743276414E+02 -0.87071705906E+00 -0.18726465159E+03  0.19687192160E+03  0.00000000000E+00 0.  1.
          5    1    4    4  501    0  0.36020592110E+02  0.70916037168E+02 -0.44391254501E+02  0.91184556037E+02  0.41800000000E+01 0. -1.
         -5    1    4    4    0  501  0.59567470261E+02 -0.46043013202E+02 -0.45991907836E+01  0.75543812016E+02  0.41800000000E+01 0. -1.
</event>
<event>
11    1  0.6625361E-009  0.1527211E+03  0.7561462E-02  0.1094130E+00
         22   -1    0    0    0    0  0.00000000000E+00  0.00000000000E+00  0.95841835418E+02  0.95841835418E+02  0.00000000000E+00 0. -1.
         22   -1    0    0    0    0 -0.00000000000E+00 -0.00000000000E+00 -0.32126764218E+04  0.32126764218E+04  0.00000000000E+00 0. -1.
        -24    2    1    2    0    0 -0.63889748192E+02  0.37379432879E+02 -0.28513835956E+04  0.28534635071E+04  0.79915298714E+02 0.  0.
         25    2    1    2    0    0  0.96449329081E+02  0.45003626028E+02 -0.28977823670E+03  0.33308567098E+03  0.12508732274E+03 0.  0.
         24    2    1    2    0    0 -0.32559580889E+02 -0.82383058907E+02  0.24327245929E+02  0.12196907916E+03  0.80234323548E+02 0.  0.
        -13    1    5    5    0    0  0.24315974658E+02 -0.11427529668E+02 -0.29511575572E+01  0.27028954638E+02  0.00000000000E+00 0.  1.
         14    1    5    5    0    0 -0.56875555547E+02 -0.70955529239E+02  0.27278403487E+02  0.94940124527E+02  0.00000000000E+00 0. -1.
         13    1    3    3    0    0 -0.75513354200E+02  0.72370978238E+01 -0.21463452983E+04  0.21476854476E+04  0.00000000000E+00 0. -1.
        -14    1    3    3    0    0  0.11623606008E+02  0.30142335055E+02 -0.70503829733E+03  0.70577805950E+03  0.00000000000E+00 0.  1.
          5    1    4    4  501    0  0.64756272678E+02  0.86284017312E+02 -0.22749783686E+03  0.25181549728E+03  0.41800000000E+01 0. -1.
         -5    1    4    4    0  501  0.31693056402E+02 -0.41280391284E+02 -0.62280399844E+02  0.81270173701E+02  0.41800000000E+01 0. -1.
</event>
<event>
11    1  0.6625361E-009  0.1318593E+03  0.7561462E-02  0.1117005E+00
         22   -1    0    0    0    0  0.00000000000E+00  0.00000000000E+00  0.36702545126E+03  0.36702545126E+03  0.00000000000E+00 0. -1.
         22   -1    0    0    0    0 -0.00000000000E+00 -0.00000000000E+00 -0.58383245314E+03  0.58383245314E+03  0.00000000000E+00 0. -1.
        -24    2    1    2    0    0  0.28111509861E+01 -0.40704650025E+02 -0.50368714414E+03  0.51164766074E+03  0.80111287945E+02 0.  0.
         25    2    1    2    0    0 -0.35662805390E+02  0.55370228116E+02  0.26326490150E+01  0.14138947209E+03  0.12508538735E+03 0.  0.
         24    2    1    2    0    0  0.32851654403E+02 -0.14665578091E+02  0.28424749325E+03  0.29782077157E+03  0.81278928300E+02 0.  0.
        -11    1    5    5    0    0 -0.25968200318E+02  0.33710060243E+01  0.64216183002E+02  0.69350048801E+02  0.00000000000E+00 0.  1.
         12    1    5    5    0    0  0.58819854722E+02 -0.18036584115E+02  0.22003131025E+03  0.22847072277E+03  0.00000000000E+00 0. -1.
         11    1    3    3    0    0 -0.80706986524E+01 -0.36485034041E+01 -0.41280259910E+03  0.41289760665E+03  0.00000000000E+00 0. -1.
        -12    1    3    3    0    0  0.10881849638E+02 -0.37056146621E+02 -0.90884545048E+02  0.98750054089E+02  0.00000000000E+00 0.  1.
          5    1    4    4  501    0 -0.31141676541E+02  0.14793042616E+02  0.60907312348E+02  0.70112846362E+02  0.41800000000E+01 0. -1.
         -5    1    4    4    0  501 -0.45211288486E+01  0.40577185500E+02 -0.58274663333E+02  0.71276625732E+02  0.41800000000E+01 0. -1.
</event>
<event>
11    1  0.6625361E-009  0.1453965E+03  0.7561462E-02  0.1101678E+00
         22   -1    0    0    0    0  0.00000000000E+00  0.00000000000E+00  0.41099512357E+03  0.41099512357E+03  0.00000000000E+00 0. -1.
         22   -1    0    0    0    0 -0.00000000000E+00 -0.00000000000E+00 -0.67933629575E+03  0.67933629575E+03  0.00000000000E+00 0.  1.
         24    2    1    2    0    0  0.18047581335E+02 -0.66354929895E+02 -0.42968095852E+03  0.44245666210E+03  0.80084204495E+02 0.  0.
         25    2    1    2    0    0 -0.37888864415E+02  0.89032389460E+02 -0.21178411417E+03  0.26431554431E+03  0.12509142069E+03 0.  0.
        -24    2    1    2    0    0  0.19841283081E+02 -0.22677459565E+02  0.37312390050E+03  0.38355921290E+03  0.83595938833E+02 0.  0.
        -13    1    3    3    0    0 -0.20862872031E+02 -0.58931384316E+02 -0.31453726874E+03  0.32068966450E+03  0.00000000000E+00 0.  1.
         14    1    3    3    0    0  0.38910453366E+02 -0.74235455787E+01 -0.11514368978E+03  0.12176699760E+03  0.00000000000E+00 0. -1.
         11    1    5    5    0    0  0.41088097898E+02  0.75933142451E+01  0.28414197885E+03  0.28719776175E+03  0.00000000000E+00 0. -1.
        -12    1    5    5    0    0 -0.21246814817E+02 -0.30270773810E+02  0.88981921653E+02  0.96361451151E+02  0.00000000000E+00 0.  1.
          5    1    4    4  501    0 -0.34855920916E+02  0.97364562266E+02 -0.22511516422E+03  0.24776824407E+03  0.41800000000E+01 0. -1.
         -5    1    4    4    0  501 -0.30329434990E+01 -0.83321728059E+01  0.13331050049E+02  0.16547300243E+02  0.41800000000E+01 0. -1.
</event>
<event>
11    1  0.6625361E-009  0.1730280E+03  0.7561462E-02  0.1075426E+00
         22   -1    0    0    0    0  0.00000000000E+00  0.00000000000E+00  0.14920962758E+03  0.14920962758E+03  0.00000000000E+00 0. -1.
         22   -1    0    0    0    0 -0.00000000000E+00 -0.00000000000E+00 -0.80758439849E+03  0.80758439849E+03  0.00000000000E+00 0.  1.
         24    2    1    2    0    0  0.99266512257E+02 -0.86504987660E+02 -0.44855220041E+03  0.47432390166E+03  0.80294046124E+02 0.  0.
         25    2    1    2    0    0 -0.10650937165E+03  0.22613898190E+02 -0.30224639019E+03  0.34474758412E+03  0.12506950760E+03 0.  0.
        -24    2    1    2    0    0  0.72428593975E+01  0.63891089470E+02  0.92423819697E+02  0.13772254029E+03  0.79314597213E+02 0.  0.
        -13    1    3    3    0    0  0.96853481071E+02 -0.77998542614E+02 -0.29016233352E+03  0.31568742332E+03  0.00000000000E+00 0.  1.
         14    1    3    3    0    0  0.24130311865E+01 -0.85064450466E+01 -0.15838986689E+03  0.15863647834E+03  0.00000000000E+00 0. -1.
         11    1    5    5    0    0 -0.18331462564E+02  0.32866054950E+02  0.89873931087E+02  0.97434817066E+02  0.00000000000E+00 0. -1.
        -12    1    5    5    0    0  0.25574321962E+02  0.31025034521E+02  0.25498886103E+01  0.40287723226E+02  0.00000000000E+00 0.  1.
          5    1    4    4  501    0 -0.10910840771E+03  0.55714547462E+02 -0.17836781867E+03  0.21642852531E+03  0.41800000000E+01 0.  1.
         -5    1    4    4    0  501  0.25990360569E+01 -0.33100649272E+02 -0.12387857152E+03  0.12831905881E+03  0.41800000000E+01 0.  1.
</event>
<event>
11    1  0.6625361E-009  0.1557067E+03  0.7561462E-02  0.1091186E+00
         22   -1    0    0    0    0  0.00000000000E+00  0.00000000000E+00  0.14587745414E+03  0.14587745414E+03  0.00000000000E+00 0.  1.
         22   -1    0    0    0    0 -0.00000000000E+00 -0.00000000000E+00 -0.65416422052E+03  0.65416422052E+03  0.00000000000E+00 0. -1.
         24    2    1    2    0    0  0.40378466470E+02  0.97104718789E+01 -0.38112015724E+03  0.39166944584E+03  0.80172730634E+02 0.  0.
         25    2    1    2    0    0  0.16604507069E+02  0.68359402378E+02 -0.21193749333E+03  0.25595717537E+03  0.12509139456E+03 0.  0.
        -24    2    1    2    0    0 -0.56982973539E+02 -0.78069874257E+02  0.84770884185E+02  0.15241505345E+03  0.81867461004E+02 0.  0.
        -11    1    3    3    0    0 -0.17347273407E+02  0.16740575582E+02 -0.50319260514E+02  0.55796081799E+02  0.00000000000E+00 0.  1.
         12    1    3    3    0    0  0.57725739877E+02 -0.70301037034E+01 -0.33080089672E+03  0.33587336404E+03  0.00000000000E+00 0. -1.
         13    1    5    5    0    0 -0.29389113274E+02  0.12168121443E+02  0.15684441995E+02  0.35465262993E+02  0.00000000000E+00 0. -1.
        -14    1    5    5    0    0 -0.27593860265E+02 -0.90237995700E+02  0.69086442190E+02  0.11694979045E+03  0.00000000000E+00 0.  1.
          5    1    4    4  501    0  0.45294316202E+02  0.60482063108E+02 -0.48735048399E+02  0.90012401259E+02  0.41800000000E+01 0. -1.
         -5    1    4    4    0  501 -0.28689809133E+02  0.78773392706E+01 -0.16320244493E+03  0.16594477411E+03  0.41800000000E+01 0. -1.
</event>
<event>
11    1  0.6625361E-009  0.1344946E+03  0.7561462E-02  0.1113867E+00
         22   -1    0    0    0    0  0.00000000000E+00  0.00000000000E+00  0.40299720769E+03  0.40299720769E+03  0.00000000000E+00 0. -1.
         22   -1    0    0    0    0 -0.00000000000E+00 -0.00000000000E+00 -0.49294116433E+03  0.49294116433E+03  0.00000000000E+00 0.  1.
        -24    2    1    2    0    0  0.39279688524E+02  0.28925377010E+02 -0.44931268568E+03  0.45903550680E+03  0.80325186695E+02 0.  0.
         25    2    1    2    0    0 -0.71066318251E+02 -0.24634064374E+02  0.14488610700E+03  0.20566242872E+03  0.12509113425E+03 0.  0.
         24    2    1    2    0    0  0.31786629727E+02 -0.42913126360E+01  0.21448262205E+03  0.23124043650E+03  0.80252969528E+02 0.  0.
        -11    1    5    5    0    0 -0.72498986632E+01  0.25279101257E+02  0.27910821634E+02  0.38348506558E+02  0.00000000000E+00 0.  1.
         12    1    5    5    0    0  0.39036528390E+02 -0.29570413893E+02  0.18657180041E+03  0.19289192994E+03  0.00000000000E+00 0. -1.
         13    1    3    3    0    0  0.22803900675E+01 -0.22166140233E+02 -0.49597110237E+02  0.54372891183E+02  0.00000000000E+00 0. -1.
        -14    1    3    3    0    0  0.36999298457E+02  0.51091517243E+02 -0.39971557545E+03  0.40466261561E+03  0.00000000000E+00 0.  1.
          5    1    4    4  501    0  0.33254330677E+02 -0.23767006956E+02  0.48521680953E+02  0.63581027445E+02  0.41800000000E+01 0. -1.
         -5    1    4    4    0  501 -0.10432064893E+03 -0.86705741755E+00  0.96364426052E+02  0.14208140128E+03  0.41800000000E+01 0. -1.
</event>
<event>
11    1  0.6625361E-009  0.1283035E+03  0.7561462E-02  0.1121371E+00
         22   -1    0    0    0    0  0.00000000000E+00  0.00000000000E+00  0.61988214030E+03  0.61988214030E+03  0.00000000000E+00 0.  1.
         22   -1    0    0    0    0 -0.00000000000E+00 -0.00000000000E+00 -0.75531860292E+02  0.75531860292E+02  0.00000000000E+00 0. -1.
         24    2    1    2    0    0 -0.12680644996E+02 -0.18699742257E+02 -0.47426647531E+01  0.85853704401E+02  0.82691514513E+02 0.  0.
         25    2    1    2    0    0  0.35323311221E+02  0.42376600803E+02  0.15473381460E+03  0.20647909317E+03  0.12509016717E+03 0.  0.
        -24    2    1    2    0    0 -0.22642666225E+02 -0.23676858545E+02  0.39435913016E+03  0.40308120303E+03  0.76694515629E+02 0.  0.
        -11    1    3    3    0    0 -0.42980005242E+01 -0.17799505400E+02  0.38056215029E+02  0.42232341912E+02  0.00000000000E+00 0.  1.
         12    1    3    3    0    0 -0.83826444720E+01 -0.90023685699E+00 -0.42798879783E+02  0.43621362489E+02  0.00000000000E+00 0. -1.
         13    1    5    5    0    0 -0.24368003759E+00  0.69334719810E+01  0.35845421987E-01  0.69378453836E+01  0.00000000000E+00 0. -1.
        -14    1    5    5    0    0 -0.22398986187E+02 -0.30610330526E+02  0.39432328474E+03  0.39614335764E+03  0.00000000000E+00 0.  1.
          5    1    4    4  501    0  0.26636847797E+02  0.85658773869E+02  0.12140027421E+03  0.15100478860E+03  0.41800000000E+01 0.  1.
         -5    1    4    4    0  501  0.86864634243E+01 -0.43282173066E+02  0.33333540389E+02  0.55474304566E+02  0.41800000000E+01 0.  1.
</event>
<event>
11    1  0.6625361E-009  0.1581348E+03  0.7561462E-02  0.1088845E+00
         22   -1    0    0    0    0  0.00000000000E+00  0.00000000000E+00  0.10687723110E+03  0.10687723110E+03  0.00000000000E+00 0.  1.
         22   -1    0    0    0    0 -0.00000000000E+00 -0.00000000000E+00 -0.16906594732E+04  0.16906594732E+04  0.00000000000E+00 0.  1.
        -24    2    1    2    0    0  0.18617789437E+02  0.31585921051E+01 -0.12138321632E+04  0.12164831311E+04  0.78013390003E+02 0.  0.
         25    2    1    2    0    0 -0.97334477600E+02  0.50921371693E+02 -0.41598962776E+03  0.44806281396E+03  0.12508368489E+03 0.  0.
         24    2    1    2    0    0  0.78716688163E+02 -0.54079963798E+02  0.46039548849E+02  0.13299075926E+03  0.80286627227E+02 0.  0.
        -13    1    5    5    0    0  0.55304668273E+02  0.95952122660E+01  0.28327961731E+02  0.62874063389E+02  0.00000000000E+00 0.  1.
         14    1    5    5    0    0  0.23412019890E+02 -0.63675176064E+02  0.17711587118E+02  0.70116695875E+02  0.00000000000E+00 0. -1.
         11    1    3    3    0    0  0.29321326881E+02 -0.28281253709E+02 -0.42387463346E+03  0.42582775205E+03  0.00000000000E+00 0. -1.
        -12    1    3    3    0    0 -0.10703537443E+02  0.31439845814E+02 -0.78995752973E+03  0.79065537904E+03  0.00000000000E+00 0.  1.
          5    1    4    4  501    0 -0.91202933724E+02  0.69716137830E+02 -0.19626458957E+03  0.22741059015E+03  0.41800000000E+01 0. -1.
         -5    1    4    4    0  501 -0.61315438768E+01 -0.18794766137E+02 -0.21972503818E+03  0.22065222380E+03  0.41800000000E+01 0. -1.
</event>
<event>
11    1  0.6625361E-009  0.1465730E+03  0.7561462E-02  0.1100433E+00
         22   -1    0    0    0    0  0.00000000000E+00  0.00000000000E+00  0.47743390551E+03  0.47743390551E+03  0.00000000000E+00 0. -1.
         22   -1    0    0    0    0 -0.00000000000E+00 -0.00000000000E+00 -0.27296285904E+03  0.27296285904E+03  0.00000000000E+00 0. -1.
         24    2    1    2    0    0 -0.34680508353E+02 -0.77963307486E+02 -0.19581222809E+03  0.22908683143E+03  0.82809013344E+02 0.  0.
         25    2    1    2    0    0  0.41747943218E+02  0.15521516262E+02  0.28550576581E+02  0.13581721025E+03  0.12508945178E+03 0.  0.
        -24    2    1    2    0    0 -0.70674348647E+01  0.62441791224E+02  0.37173269798E+03  0.38549272288E+03  0.80439509677E+02 0.  0.
        -11    1    3    3    0    0 -0.49132145644E+01 -0.55756696667E+02 -0.39711311814E+02  0.68628982118E+02  0.00000000000E+00 0.  1.
         12    1    3    3    0    0 -0.29767293789E+02 -0.22206610819E+02 -0.15610091627E+03  0.16045784931E+03  0.00000000000E+00 0. -1.
         13    1    5    5    0    0  0.15959707071E+02  0.21006811581E+02  0.28853056568E+03  0.28973416387E+03  0.00000000000E+00 0. -1.
        -14    1    5    5    0    0 -0.23027141936E+02  0.41434979643E+02  0.83202132302E+02  0.95758559008E+02  0.00000000000E+00 0.  1.
          5    1    4    4  501    0 -0.27778651478E+01  0.61045368586E+02  0.36822528042E+02  0.71467646750E+02  0.41800000000E+01 0. -1.
         -5    1    4    4    0  501  0.44525808366E+02 -0.45523852324E+02 -0.82719514616E+01  0.64349563495E+02  0.41800000000E+01 0. -1.
</event>
<event>
11    1  0.6625361E-009  0.1817395E+03  0.7561462E-02  0.1068244E+00
         22   -1    0    0    0    0  0.00000000000E+00  0.00000000000E+00  0.18111981614E+04  0.18111981614E+04  0.00000000000E+00 0. -1.
         22   -1    0    0    0    0 -0.00000000000E+00 -0.00000000000E+00 -0.65380246245E+03  0.65380246245E+03  0.00000000000E+00 0.  1.
         24    2    1    2    0    0 -0.12885913929E+03 -0.31265425195E+02 -0.63567661503E+03  0.65418224087E+03  0.79293384159E+02 0.  0.
         25    2    1    2    0    0  0.56509504138E+02 -0.88903020858E+01  0.93704700923E+03  0.94709113999E+03  0.12510862647E+03 0.  0.
        -24    2    1    2    0    0  0.72349635155E+02  0.40155727280E+02  0.85602530474E+03  0.86372724297E+03  0.79990472951E+02 0.  0.
        -13    1    3    3    0    0 -0.94130045156E+02  0.10917150159E+02 -0.47812288438E+03  0.48742296020E+03  0.00000000000E+00 0.  1.
         14    1    3    3    0    0 -0.34729094137E+02 -0.42182575354E+02 -0.15755373066E+03  0.16675928066E+03  0.00000000000E+00 0. -1.
         13    1    5    5    0    0  0.62654151564E+02  0.44630458283E+02  0.84457308476E+03  0.84806905144E+03  0.00000000000E+00 0. -1.
        -14    1    5    5    0    0  0.96954835904E+01 -0.44747310022E+01  0.11452219979E+02  0.15658191532E+02  0.00000000000E+00 0.  1.
          5    1    4    4  501    0  0.67492724289E+02 -0.35047908971E+01  0.22598219124E+03  0.23590882678E+03  0.41800000000E+01 0. -1.
         -5    1    4    4    0  501 -0.10983220151E+02 -0.53855111887E+01  0.71106481799E+03  0.71118231322E+03  0.41800000000E+01 0. -1.
</event>
<event>
11    1  0.6625361E-009  0.2033819E+03  0.7561462E-02  0.1052158E+00
         22   -1    0    0    0    0  0.00000000000E+00  0.00000000000E+00  0.18773847380E+04  0.18773847380E+04  0.00000000000E+00 0. -1.
         22   -1    0    0    0    0 -0.00000000000E+00 -0.00000000000E+00 -0.26216172547E+03  0.26216172547E+03  0.00000000000E+00 0. -1.
         24    2    1    2    0    0  0.23447421758E+02  0.51336661882E+01 -0.22810305895E+03  0.24283995180E+03  0.79775313039E+02 0.  0.
         25    2    1    2    0    0  0.23667427077E+02 -0.15877991047E+03  0.47704246354E+03  0.51864181461E+03  0.12509441543E+03 0.  0.
        -24    2    1    2    0    0 -0.47114848835E+02  0.15364624429E+03  0.13662836079E+04  0.13780646970E+04  0.80650074890E+02 0.  0.
        -11    1    3    3    0    0 -0.12052560995E+02 -0.19901877617E+02 -0.21367622790E+02  0.31589939267E+02  0.00000000000E+00 0.  1.
         12    1    3    3    0    0  0.35499982753E+02  0.25035543805E+02 -0.20673543617E+03  0.21125001253E+03  0.00000000000E+00 0. -1.
         11    1    5    5    0    0 -0.65045586282E+02  0.75752264093E+02  0.77165209952E+03  0.77808501881E+03  0.00000000000E+00 0. -1.
        -12    1    5    5    0    0  0.17930737447E+02  0.77893980192E+02  0.59463150841E+03  0.59997967823E+03  0.00000000000E+00 0.  1.
          5    1    4    4  501    0  0.72193121296E+02 -0.12399946734E+03  0.34482200392E+03  0.37350689612E+03  0.41800000000E+01 0. -1.
         -5    1    4    4    0  501 -0.48525694219E+02 -0.34780443136E+02  0.13222045962E+03  0.14513491849E+03  0.41800000000E+01 0. -1.
</event>
<event>
11    1  0.6625361E-009  0.2175695E+03  0.7561462E-02  0.1042751E+00
         22   -1    0    0    0    0  0.00000000000E+00  0.00000000000E+00  0.91368219212E+03  0.91368219212E+03  0.00000000000E+00 0. -1.
         22   -1    0    0    0    0 -0.00000000000E+00 -0.00000000000E+00 -0.50529016973E+03  0.50529016973E+03  0.00000000000E+00 0. -1.
         24    2    1    2    0    0  0.10838569566E+03 -0.14594019650E+03 -0.40775051412E+03  0.45325207021E+03  0.78300430463E+02 0.  0.
         25    2    1    2    0    0 -0.92779908444E+02  0.12447992609E+03  0.64912316777E+02  0.20967715829E+03  0.12509012123E+03 0.  0.
        -24    2    1    2    0    0 -0.15605787217E+02  0.21460270413E+02  0.75123021973E+03  0.75604313335E+03  0.80933878263E+02 0.  0.
        -11    1    3    3    0    0 -0.98517326493E+01 -0.12735483632E+02 -0.65256686465E+02  0.67213721128E+02  0.00000000000E+00 0.  1.
         12    1    3    3    0    0  0.11823742831E+03 -0.13320471287E+03 -0.34249382765E+03  0.38603834908E+03  0.00000000000E+00 0. -1.
         11    1    5    5    0    0 -0.29094560925E+02  0.46745776870E+02  0.55618063118E+03  0.55889941459E+03  0.00000000000E+00 0. -1.
        -12    1    5    5    0    0  0.13488773708E+02 -0.25285506457E+02  0.19504958855E+03  0.19714371876E+03  0.00000000000E+00 0.  1.
          5    1    4    4  501    0 -0.98209350606E+01  0.50036874582E+02 -0.33312279258E+02  0.61051780750E+02  0.41800000000E+01 0.  1.
         -5    1    4    4    0  501 -0.82958973384E+02  0.74443051505E+02  0.98224596036E+02  0.14862537754E+03  0.41800000000E+01 0.  1.
</event>
<event>
11    1  0.6625361E-009  0.2889117E+03  0.7561462E-02  0.1004996E+00
         22   -1    0    0    0    0  0.00000000000E+00  0.00000000000E+00  0.15470906803E+04  0.15470906803E+04  0.00000000000E+00 0.  1.
         22   -1    0    0    0    0 -0.00000000000E+00 -0.00000000000E+00 -0.71734495654E+03  0.71734495654E+03  0.00000000000E+00 0. -1.
        -24    2    1    2    0    0 -0.25348859422E+03  0.80333245234E+02 -0.55686175938E+03  0.62235439138E+03  0.80746961106E+02 0.  0.
         25    2    1    2    0    0  0.21764692836E+03 -0.95335716796E+02  0.16542491066E+02  0.26903604847E+03  0.12509059534E+03 0.  0.
         24    2    1    2    0    0  0.35841665859E+02  0.15002471561E+02  0.13700649921E+04  0.13730451970E+04  0.81641480353E+02 0.  0.
        -13    1    5    5    0    0  0.62002358948E+02  0.16150455718E+02  0.93464715403E+03  0.93684066536E+03  0.00000000000E+00 0.  1.
         14    1    5    5    0    0 -0.26160693089E+02 -0.11479841570E+01  0.43541783808E+03  0.43620453167E+03  0.00000000000E+00 0. -1.
         13    1    3    3    0    0 -0.25230093041E+03  0.85721510039E+02 -0.55627849214E+03  0.61680604536E+03  0.00000000000E+00 0. -1.
        -14    1    3    3    0    0 -0.11876638113E+01 -0.53882648046E+01 -0.58326723159E+00  0.55483460235E+01  0.00000000000E+00 0.  1.
          5    1    4    4  501    0  0.10959349927E+03 -0.94196667944E+02 -0.35733606398E+02  0.14892316932E+03  0.41800000000E+01 0. -1.
         -5    1    4    4    0  501  0.10805342909E+03 -0.11390488511E+01  0.52276097464E+02  0.12011287915E+03  0.41800000000E+01 0. -1.
</event>
<event>
11    1  0.6625361E-009  0.1369856E+03  0.7561462E-02  0.1110972E+00
         22   -1    0    0    0    0  0.00000000000E+00  0.00000000000E+00  0.44137238425E+03  0.44137238425E+03  0.00000000000E+00 0. -1.
         22   -1    0    0    0    0 -0.00000000000E+00 -0.00000000000E+00 -0.12111678066E+04  0.12111678066E+04  0.00000000000E+00 0.  1.
        -24    2    1    2    0    0  0.49710796114E+02  0.53687856936E+02 -0.11706986019E+04  0.11757655795E+04  0.80845112299E+02 0.  0.
         25    2    1    2    0    0  0.28166584270E+02 -0.48283339681E+02  0.26297336515E+03  0.29652556280E+03  0.12509109182E+03 0.  0.
         24    2    1    2    0    0 -0.77877380385E+02 -0.54045172558E+01  0.13792981432E+03  0.18024904864E+03  0.85854473824E+02 0.  0.
        -11    1    5    5    0    0 -0.44752616705E+02 -0.34896865095E+02  0.11936519385E+03  0.13216897290E+03  0.00000000000E+00 0.  1.
         12    1    5    5    0    0 -0.33124763680E+02  0.29492347839E+02  0.18564620471E+02  0.48080075740E+02  0.00000000000E+00 0. -1.
         11    1    3    3    0    0  0.25634958013E+02 -0.16289086044E+02 -0.20526623097E+03  0.20750111078E+03  0.00000000000E+00 0. -1.
        -12    1    3    3    0    0  0.24075838102E+02  0.69976942981E+02 -0.96543237089E+03  0.96826446867E+03  0.00000000000E+00 0.  1.
          5    1    4    4  501    0 -0.30360395128E+02 -0.55979398219E+02  0.70200897404E+02  0.94874048157E+02  0.41800000000E+01 0. -1.
         -5    1    4    4    0  501  0.58526979398E+02  0.76960585385E+01  0.19277246775E+03  0.20165151464E+03  0.41800000000E+01 0. -1.
</event>
<event>
11    1  0.6625361E-009  0.1501385E+03  0.7561462E-02  0.1096737E+00
         22   -1    0    0    0    0  0.00000000000E+00  0.00000000000E+00  0.35968634760E+03  0.35968634760E+03  0.00000000000E+00 0. -1.
         22   -1    0    0    0    0 -0.00000000000E+00 -0.00000000000E+00 -0.10301890005E+04  0.10301890005E+04  0.00000000000E+00 0. -1.
         24    2    1    2    0    0  0.65594421472E+02  0.49820282427E+02 -0.96945820046E+03  0.97736829569E+03  0.92816454885E+02 0.  0.
         25    2    1    2    0    0 -0.10893282456E+03 -0.38776678993E+02  0.11055189340E+03  0.20306299399E+03  0.12507144875E+03 0.  0.
        -24    2    1    2    0    0  0.43338403091E+02 -0.11043603434E+02  0.18840365421E+03  0.20944405838E+03  0.79816654355E+02 0.  0.
        -13    1    3    3    0    0  0.11263521566E+02  0.61055040991E+02 -0.35296518710E+03  0.35838388391E+03  0.00000000000E+00 0.  1.
         14    1    3    3    0    0  0.54330899906E+02 -0.11234758564E+02 -0.61649301337E+03  0.61898441177E+03  0.00000000000E+00 0. -1.
         11    1    5    5    0    0  0.52089907611E+02  0.12789973108E+02  0.16951664650E+03  0.17779998686E+03  0.00000000000E+00 0. -1.
        -12    1    5    5    0    0 -0.87515045205E+01 -0.23833576542E+02  0.18887007708E+02  0.31644071519E+02  0.00000000000E+00 0.  1.
          5    1    4    4  501    0 -0.56651025128E+01 -0.22586582104E+02 -0.23283010966E+02  0.33193645134E+02  0.41800000000E+01 0. -1.
         -5    1    4    4    0  501 -0.10326772205E+03 -0.16190096889E+02  0.13383490436E+03  0.16986934885E+03  0.41800000000E+01 0. -1.
</event>
<event>
11    1  0.6625361E-009  0.4790460E+03  0.7561462E-02  0.9441602E-01
         22   -1    0    0    0    0  0.00000000000E+00  0.00000000000E+00  0.83900408180E+03  0.83900408180E+03  0.00000000000E+00 0.  1.
         22   -1    0    0    0    0 -0.00000000000E+00 -0.00000000000E+00 -0.23911017373E+04  0.23911017373E+04  0.00000000000E+00 0.  1.
        -24    2    1    2    0    0 -0.91711263479E+02 -0.89005491019E+01 -0.15327593825E+04  0.15392868586E+04  0.10752921815E+03 0.  0.
         25    2    1    2    0    0  0.52442446567E+03 -0.13261777210E+03 -0.68420026608E+03  0.88112785857E+03  0.12509118827E+03 0.  0.
         24    2    1    2    0    0 -0.43271320219E+03  0.14151832120E+03  0.66486199312E+03  0.80969110190E+03  0.79309898606E+02 0.  0.
        -13    1    5    5    0    0 -0.33962145468E+03  0.13401278694E+03  0.48542386712E+03  0.60740307071E+03  0.00000000000E+00 0.  1.
         14    1    5    5    0    0 -0.93091747513E+02  0.75055342567E+01  0.17943812600E+03  0.20228803119E+03  0.00000000000E+00 0. -1.
         11    1    3    3    0    0 -0.91467636399E+02  0.81435134003E+01 -0.65964876084E+03  0.66600985953E+03  0.00000000000E+00 0. -1.
        -12    1    3    3    0    0 -0.24362707985E+00 -0.17044062502E+02 -0.87311062171E+03  0.87327699910E+03  0.00000000000E+00 0.  1.
          5    1    4    4  501    0  0.18725511060E+03 -0.74027189681E+01 -0.16637462554E+03  0.25063372702E+03  0.41800000000E+01 0. -1.
         -5    1    4    4    0  501  0.33716935506E+03 -0.12521505313E+03 -0.51782564054E+03  0.63049413155E+03  0.41800000000E+01 0. -1.
</event>
<event>
11    1  0.6625361E-009  0.1701625E+03  0.7561462E-02  0.1077890E+00
         22   -1    0    0    0    0  0.00000000000E+00  0.00000000000E+00  0.66106057480E+03  0.66106057480E+03  0.00000000000E+00 0.  1.
         22   -1    0    0    0    0 -0.00000000000E+00 -0.00000000000E+00 -0.22418384981E+03  0.22418384981E+03  0.00000000000E+00 0. -1.
        -24    2    1    2    0    0  0.19172289889E+02  0.13393917783E+03 -0.10317947047E+03  0.18872180541E+03  0.81624975671E+02 0.  0.
         25    2    1    2    0    0 -0.52059167428E+02 -0.69015558170E+02  0.65636381921E+01  0.15219439835E+03  0.12508696718E+03 0.  0.
         24    2    1    2    0    0  0.32886877539E+02 -0.64923619656E+02  0.53349255727E+03  0.54432822086E+03  0.79889174821E+02 0.  0.
        -11    1    5    5    0    0 -0.10921548518E+02 -0.37076671372E+02  0.38671368975E+03  0.38864049920E+03  0.00000000000E+00 0.  1.
         12    1    5    5    0    0  0.43808426057E+02 -0.27846948285E+02  0.14677886752E+03  0.15568772165E+03  0.00000000000E+00 0. -1.
         13    1    3    3    0    0  0.42686225820E+02  0.12619318253E+03 -0.85360302870E+02  0.15821888161E+03  0.00000000000E+00 0. -1.
        -14    1    3    3    0    0 -0.23513935931E+02  0.77459952919E+01 -0.17819167599E+02  0.30502923793E+02  0.00000000000E+00 0.  1.
          5    1    4    4  501    0 -0.40992219273E+02  0.30087245844E+02  0.11371599294E+02  0.52272268690E+02  0.41800000000E+01 0. -1.
         -5    1    4    4    0  501 -0.11066948155E+02 -0.99102804015E+02 -0.48079611017E+01  0.99922129656E+02  0.41800000000E+01 0. -1.
</event>
<event>
11    1  0.6625361E-009  0.2752820E+03  0.7561462E-02  0.1011231E+00
         22   -1    0    0    0    0  0.00000000000E+00  0.00000000000E+00  0.15284316919E+04  0.15284316919E+04  0.00000000000E+00 0.  1.
         22   -1    0    0    0    0 -0.00000000000E+00 -0.00000000000E+00 -0.24688676517E+03  0.24688676517E+03  0.00000000000E+00 0.  1.
         24    2    1    2    0    0 -0.16113974010E+03  0.75250484014E+02 -0.13457313898E+03  0.23713772293E+03  0.80596021738E+02 0.  0.
         25    2    1    2    0    0  0.34949393972E+03 -0.10772920036E+03  0.84842210583E+03  0.93231923450E+03  0.12508993102E+03 0.  0.
        -24    2    1    2    0    0 -0.18835419962E+03  0.32478716344E+02  0.56769595984E+03  0.60586149959E+03  0.90869589792E+02 0.  0.
        -11    1    3    3    0    0 -0.82213061076E+02 -0.84141298565E+00 -0.79829421731E+02  0.11459682352E+03  0.00000000000E+00 0.  1.
         12    1    3    3    0    0 -0.78926679025E+02  0.76091897000E+02 -0.54743717247E+02  0.12254089941E+03  0.00000000000E+00 0. -1.
         11    1    5    5    0    0  0.75616962211E+01  0.71026280511E+01  0.10853237585E+02  0.15013971528E+02  0.00000000000E+00 0. -1.
        -12    1    5    5    0    0 -0.19591589584E+03  0.25376088293E+02  0.55684272225E+03  0.59084752807E+03  0.00000000000E+00 0.  1.
          5    1    4    4  501    0  0.55328803506E+02  0.28423655638E+02  0.13500047577E+03  0.14870030785E+03  0.41800000000E+01 0. -1.
         -5    1    4    4    0  501  0.29416513621E+03 -0.13615285600E+03  0.71342163006E+03  0.78361892664E+03  0.41800000000E+01 0. -1.
</event>
<event>
11    1  0.6625361E-009  0.1722796E+03  0.7561462E-02  0.1076065E+00
         22   -1    0    0    0    0  0.00000000000E+00  0.00000000000E+00  0.97077658367E+03  0.97077658367E+03  0.00000000000E+00 0. -1.
         22   -1    0    0    0    0 -0.00000000000E+00 -0.00000000000E+00 -0.13190099533E+03  0.13190099533E+03  0.00000000000E+00 0. -1.
        -24    2    1    2    0    0  0.71417605286E+01  0.17118890145E+02 -0.65032312057E+02  0.10521419788E+03  0.80602510387E+02 0.  0.
         25    2    1    2    0    0  0.15865310909E+02  0.10173570581E+03  0.12369647775E+03  0.20383967260E+03  0.12509169274E+03 0.  0.
         24    2    1    2    0    0 -0.23007071438E+02 -0.11885459595E+03  0.78021142265E+03  0.79362370851E+03  0.80330482183E+02 0.  0.
        -11    1    5    5    0    0 -0.32613374350E+02 -0.17912946898E+02  0.11896754342E+03  0.12465064075E+03  0.00000000000E+00 0.  1.
         12    1    5    5    0    0  0.96063029120E+01 -0.10094164905E+03  0.66124387923E+03  0.66897306776E+03  0.00000000000E+00 0. -1.
         13    1    3    3    0    0 -0.25049244384E+02 -0.15836566850E+01 -0.63129405895E+02  0.67935958824E+02  0.00000000000E+00 0. -1.
        -14    1    3    3    0    0  0.32191004913E+02  0.18702546830E+02 -0.19029061620E+01  0.37278239055E+02  0.00000000000E+00 0.  1.
          5    1    4    4  501    0  0.13401725565E+02 -0.28239263491E+02  0.18537490398E+02  0.36581049751E+02  0.41800000000E+01 0. -1.
         -5    1    4    4    0  501  0.24635853444E+01  0.12997496930E+03  0.10515898735E+03  0.16725862285E+03  0.41800000000E+01 0. -1.
</event>
<event>
11    1  0.6625361E-009  0.1410508E+03  0.7561462E-02  0.1106391E+00
         22   -1    0    0    0    0  0.00000000000E+00  0.00000000000E+00  0.67370443793E+03  0.67370443793E+03  0.00000000000E+00 0. -1.
         22   -1    0    0    0    0 -0.00000000000E+00 -0.00000000000E+00 -0.78677612312E+03  0.78677612312E+03  0.00000000000E+00 0. -1.
         24    2    1    2    0    0  0.16557498112E+02 -0.64882624337E+02 -0.63451487523E+03  0.64338871902E+03  0.82801033756E+02 0.  0.
         25    2    1    2    0    0  0.37674559428E+02  0.59962453256E+02 -0.10847073792E+03  0.18006823076E+03  0.12507517146E+03 0.  0.
        -24    2    1    2    0    0 -0.54232057540E+02  0.49201710808E+01  0.62991392796E+03  0.63702361126E+03  0.77731592777E+02 0.  0.
        -11    1    3    3    0    0  0.28385783265E+02  0.37622775488E+01 -0.31867700074E+03  0.31996083858E+03  0.00000000000E+00 0.  1.
         12    1    3    3    0    0 -0.11828285153E+02 -0.68644901886E+02 -0.31583787449E+03  0.32342788044E+03  0.00000000000E+00 0. -1.
         13    1    5    5    0    0 -0.29077644884E+02 -0.12332943962E+01  0.58055389899E+03  0.58128294322E+03  0.00000000000E+00 0. -1.
        -14    1    5    5    0    0 -0.25154412656E+02  0.61534654770E+01  0.49360028969E+02  0.55740668038E+02  0.00000000000E+00 0.  1.
          5    1    4    4  501    0  0.49112182398E+02  0.76302597568E+02 -0.25098750972E+02  0.94241777126E+02  0.41800000000E+01 0.  1.
         -5    1    4    4    0  501 -0.11437622970E+02 -0.16340144312E+02 -0.83371986950E+02  0.85826453634E+02  0.41800000000E+01 0.  1.
</event>
<event>
11    1  0.6625361E-009  0.1401871E+03  0.7561462E-02  0.1107350E+00
         22   -1    0    0    0    0  0.00000000000E+00  0.00000000000E+00  0.21576031228E+03  0.21576031228E+03  0.00000000000E+00 0. -1.
         22   -1    0    0    0    0 -0.00000000000E+00 -0.00000000000E+00 -0.26118783781E+03  0.26118783781E+03  0.00000000000E+00 0.  1.
         24    2    1    2    0    0 -0.34879754342E+02  0.56367185069E+02 -0.10756450330E+03  0.14938422788E+03  0.79697354740E+02 0.  0.
         25    2    1    2    0    0  0.17996967413E+02 -0.56037837279E+02 -0.83559871728E+02  0.16153727655E+03  0.12509160447E+03 0.  0.
        -24    2    1    2    0    0  0.16882786929E+02 -0.32934778938E+00  0.14569684949E+03  0.16602664566E+03  0.77795489297E+02 0.  0.
        -11    1    3    3    0    0 -0.53439410025E+01  0.49580146497E+02 -0.10812828961E+03  0.11907340444E+03  0.00000000000E+00 0.  1.
         12    1    3    3    0    0 -0.29535813339E+02  0.67870385721E+01  0.56378630891E+00  0.30310823433E+02  0.00000000000E+00 0. -1.
         11    1    5    5    0    0  0.22909872789E+02  0.21871482055E+02  0.13827254906E+03  0.14185387490E+03  0.00000000000E+00 0. -1.
        -12    1    5    5    0    0 -0.60270858606E+01 -0.22200829844E+02  0.74243004234E+01  0.24172770766E+02  0.00000000000E+00 0.  1.
          5    1    4    4  501    0 -0.19056689140E+02 -0.78208118086E+02 -0.86275994563E+02  0.11807068549E+03  0.41800000000E+01 0. -1.
         -5    1    4    4    0  501  0.37053656553E+02  0.22170280806E+02  0.27161228343E+01  0.43466591058E+02  0.41800000000E+01 0. -1.
</event>
<event>
11    1  0.6625361E-009  0.1555196E+03  0.7561462E-02  0.1091369E+00
         22   -1    0    0    0    0  0.00000000000E+00  0.00000000000E+00  0.96718717339E+03  0.96718717339E+03  0.00000000000E+00 0. -1.
         22   -1    0    0    0    0 -0.00000000000E+00 -0.00000000000E+00 -0.14358358056E+04  0.14358358056E+04  0.00000000000E+00 0.  1.
        -24    2    1    2    0    0  0.89083914132E+02  0.20233297536E+02 -0.13262081318E+04  0.13317753721E+04  0.80326227055E+02 0.  0.
         25    2    1    2    0    0 -0.11946297892E+03 -0.16276418282E+02 -0.32739763389E+02  0.17678367601E+03  0.12507697979E+03 0.  0.
         24    2    1    2    0    0  0.30379064787E+02 -0.39568792537E+01  0.89029926301E+03  0.89446393087E+03  0.80587849225E+02 0.  0.
        -11    1    5    5    0    0  0.12741927300E+02  0.14166257849E+02  0.46051962937E+02  0.49837966082E+02  0.00000000000E+00 0.  1.
         12    1    5    5    0    0  0.17637137487E+02 -0.18123137103E+02  0.84424730007E+03  0.84462596479E+03  0.00000000000E+00 0. -1.
         13    1    3    3    0    0  0.31894614015E+02  0.11197925686E+02 -0.13523509340E+03  0.13939580492E+03  0.00000000000E+00 0. -1.
        -14    1    3    3    0    0  0.57189300117E+02  0.90353718499E+01 -0.11909730384E+04  0.11923795672E+04  0.00000000000E+00 0.  1.
          5    1    4    4  501    0 -0.46565879128E+02 -0.49361157272E+02 -0.61441607848E+02  0.91637593384E+02  0.41800000000E+01 0. -1.
         -5    1    4    4    0  501 -0.72897099791E+02  0.33084738990E+02  0.28701844459E+02  0.85146082630E+02  0.41800000000E+01 0. -1.
</event>
<event>
11    1  0.6625361E-009  0.1603885E+03  0.7561462E-02  0.1086712E+00
         22   -1    0    0    0    0  0.00000000000E+00  0.00000000000E+00  0.46138553071E+03  0.46138553071E+03  0.00000000000E+00 0.  1.
         22   -1    0    0    0    0 -0.00000000000E+00 -0.00000000000E+00 -0.78400883117E+03  0.78400883117E+03  0.00000000000E+00 0. -1.
        -24    2    1    2    0    0 -0.53420443146E+01 -0.53829611517E+01 -0.45955627137E+03  0.46669636252E+03  0.80969219594E+02 0.  0.
         25    2    1    2    0    0 -0.90841574219E+02 -0.24004058155E+02 -0.29224196670E+03  0.33148313078E+03  0.12508921807E+03 0.  0.
         24    2    1    2    0    0  0.96183618533E+02  0.29387019307E+02  0.42917493761E+03  0.44721486859E+03  0.75466060168E+02 0.  0.
        -11    1    5    5    0    0  0.52048818124E+02  0.39166299807E+02  0.35029309962E+03  0.35629809732E+03  0.00000000000E+00 0.  1.
         12    1    5    5    0    0  0.44134800410E+02 -0.97792805003E+01  0.78881837986E+02  0.90916771272E+02  0.00000000000E+00 0. -1.
         13    1    3    3    0    0 -0.31534886781E+02 -0.23042464290E+02 -0.36320025842E+03  0.36529417181E+03  0.00000000000E+00 0. -1.
        -14    1    3    3    0    0  0.26192842466E+02  0.17659503138E+02 -0.96356012955E+02  0.10140219071E+03  0.00000000000E+00 0.  1.
          5    1    4    4  501    0 -0.60489065812E+02 -0.61745040267E+02 -0.25771758222E+03  0.27185878994E+03  0.41800000000E+01 0. -1.
         -5    1    4    4    0  501 -0.30352508407E+02  0.37740982112E+02 -0.34524384480E+02  0.59624340844E+02  0.41800000000E+01 0. -1.
</event>
<event>
11    1  0.6625361E-009  0.1590821E+03  0.7561462E-02  0.1087944E+00
         22   -1    0    0    0    0  0.00000000000E+00  0.00000000000E+00  0.94213039577E+03  0.94213039577E+03  0.00000000000E+00 0. -1.
         22   -1    0    0    0    0 -0.00000000000E+00 -0.00000000000E+00 -0.12193242331E+04  0.12193242331E+04  0.00000000000E+00 0. -1.
        -24    2    1    2    0    0 -0.22928241361E+02 -0.95214701709E+02 -0.11475689418E+04  0.11543361483E+04  0.77368748565E+02 0.  0.
         25    2    1    2    0    0  0.55729072152E+01  0.11083735892E+03  0.39174381530E+02  0.17174958916E+03  0.12508921528E+03 0.  0.
         24    2    1    2    0    0  0.17355334145E+02 -0.15622657212E+02  0.83120072295E+03  0.83536889146E+03  0.80007924246E+02 0.  0.
        -13    1    5    5    0    0 -0.16990594775E+02 -0.26947248139E+02  0.15702421193E+03  0.16022308706E+03  0.00000000000E+00 0.  1.
         14    1    5    5    0    0  0.34345928920E+02  0.11324590927E+02  0.67417651102E+03  0.67514580440E+03  0.00000000000E+00 0. -1.
         11    1    3    3    0    0  0.23637618353E+02 -0.33588649393E+02 -0.59206100441E+03  0.59348392338E+03  0.00000000000E+00 0. -1.
        -12    1    3    3    0    0 -0.46565859714E+02 -0.61626052316E+02 -0.55550793743E+03  0.56085222489E+03  0.00000000000E+00 0.  1.
          5    1    4    4  501    0 -0.30393644231E+02 -0.15025982683E+02 -0.26524220492E+01  0.34264580954E+02  0.41800000000E+01 0.  1.
         -5    1    4    4    0  501  0.35966551446E+02  0.12586334160E+03  0.41826803579E+02  0.13748500820E+03  0.41800000000E+01 0.  1.
</event>
<event>
11    1  0.6625361E-009  0.1615562E+03  0.7561462E-02  0.1085623E+00
         22   -1    0    0    0    0  0.00000000000E+00  0.00000000000E+00  0.45515650979E+02  0.45515650979E+02  0.00000000000E+00 0.  1.
         22   -1    0    0    0    0 -0.00000000000E+00 -0.00000000000E+00 -0.27756896206E+04  0.27756896206E+04  0.00000000000E+00 0. -1.
         24    2    1    2    0    0 -0.38947336900E+02 -0.37802989057E+02 -0.15461884087E+04  0.15491970792E+04  0.79793697177E+02 0.  0.
         25    2    1    2    0    0  0.10518897259E+02 -0.64781167629E+02 -0.11119833842E+04  0.11209212059E+04  0.12510018492E+03 0.  0.
        -24    2    1    2    0    0  0.28428439640E+02  0.10258415669E+03 -0.72002176772E+02  0.15108698646E+03  0.79443556286E+02 0.  0.
        -13    1    3    3    0    0 -0.24818570525E+02 -0.20403683601E+02 -0.18131313018E+03  0.18413778244E+03  0.00000000000E+00 0.  1.
         14    1    3    3    0    0 -0.14128766374E+02 -0.17399305456E+02 -0.13648752785E+04  0.13650592968E+04  0.00000000000E+00 0. -1.
         11    1    5    5    0    0  0.29507410754E+02  0.37024986182E+02 -0.71211918512E+02  0.85514175604E+02  0.00000000000E+00 0. -1.
        -12    1    5    5    0    0 -0.10789711139E+01  0.65559170504E+02 -0.79025826002E+00  0.65572810859E+02  0.00000000000E+00 0.  1.
          5    1    4    4  501    0 -0.28080434098E+02 -0.88596419389E+02 -0.63682299111E+03  0.64358280797E+03  0.41800000000E+01 0.  1.
         -5    1    4    4    0  501  0.38599331357E+02  0.23815251760E+02 -0.47516039306E+03  0.47733839793E+03  0.41800000000E+01 0.  1.
</event>
<event>
11    1  0.6625361E-009  0.1679743E+03  0.7561462E-02  0.1079808E+00
         22   -1    0    0    0    0  0.00000000000E+00  0.00000000000E+00  0.28066065666E+03  0.28066065666E+03  0.00000000000E+00 0.  1.
         22   -1    0    0    0    0 -0.00000000000E+00 -0.00000000000E+00 -0.52955767371E+03  0.52955767371E+03  0.00000000000E+00 0. -1.
        -24    2    1    2    0    0 -0.77491468620E+00  0.33264091130E+02 -0.33495724986E+03  0.34513303523E+03  0.76245344251E+02 0.  0.
         25    2    1    2    0    0  0.84401240903E+02  0.44924228662E+02 -0.13219350366E+03  0.20558290236E+03  0.12508977395E+03 0.  0.
         24    2    1    2    0    0 -0.83626326217E+02 -0.78188319792E+02  0.21825373647E+03  0.25950239278E+03  0.81240523077E+02 0.  0.
        -13    1    5    5    0    0 -0.73922562481E+02 -0.93594114231E+02  0.20429367572E+03  0.23655931476E+03  0.00000000000E+00 0.  1.
         14    1    5    5    0    0 -0.97037637365E+01  0.15405794438E+02  0.13960060747E+02  0.22943078019E+02  0.00000000000E+00 0. -1.
         11    1    3    3    0    0 -0.26580576151E+02  0.10907117743E+01 -0.24173712774E+03  0.24319653700E+03  0.00000000000E+00 0. -1.
        -12    1    3    3    0    0  0.25805661465E+02  0.32173379356E+02 -0.93220122119E+02  0.10193649823E+03  0.00000000000E+00 0.  1.
          5    1    4    4  501    0 -0.14540388143E+02  0.50691736981E+02 -0.21934866142E+02  0.57268541436E+02  0.41800000000E+01 0.  1.
         -5    1    4    4    0  501  0.98941629046E+02 -0.57675083193E+01 -0.11025863751E+03  0.14831436093E+03  0.41800000000E+01 0.  1.
</event>
<event>
11    1  0.6625361E-009  0.1539509E+03  0.7561462E-02  0.1092909E+00
         22   -1    0    0    0    0  0.00000000000E+00  0.00000000000E+00  0.27377226788E+04  0.27377226788E+04  0.00000000000E+00 0.  1.
         22   -1    0    0    0    0 -0.00000000000E+00 -0.00000000000E+00 -0.25479578151E+03  0.25479578151E+03  0.00000000000E+00 0. -1.
        -24    2    1    2    0    0 -0.75866155420E+02 -0.29499543444E+02 -0.11469133774E+03  0.16358283612E+03  0.83542472547E+02 0.  0.
         25    2    1    2    0    0  0.10737906838E+03  0.28076403307E+02 -0.54135185061E+02  0.17577122567E+03  0.12508539789E+03 0.  0.
         24    2    1    2    0    0 -0.31512912956E+02  0.14231401372E+01  0.26517534201E+04  0.26531643985E+04  0.80560756714E+02 0.  0.
        -13    1    5    5    0    0 -0.51000504932E+02 -0.21230330063E+02  0.19348394890E+04  0.19356279670E+04  0.00000000000E+00 0.  1.
         14    1    5    5    0    0  0.19487591976E+02  0.22653470200E+02  0.71691393114E+03  0.71753643156E+03  0.00000000000E+00 0. -1.
         13    1    3    3    0    0 -0.79601773402E+02 -0.91958292514E+01 -0.11803948714E+03  0.14266858844E+03  0.00000000000E+00 0. -1.
        -14    1    3    3    0    0  0.37356179822E+01 -0.20303714192E+02  0.33481493942E+01  0.20914247681E+02  0.00000000000E+00 0.  1.
          5    1    4    4  501    0 -0.57333113038E+01 -0.14739920229E+02 -0.52237777400E+02  0.54739326764E+02  0.41800000000E+01 0. -1.
         -5    1    4    4    0  501  0.11311237968E+03  0.42816323535E+02 -0.18974076612E+01  0.12103189891E+03  0.41800000000E+01 0. -1.
</event>
<event>
11    1  0.6625361E-009  0.1268663E+03  0.7561462E-02  0.1123180E+00
         22   -1    0    0    0    0  0.00000000000E+00  0.00000000000E+00  0.87183510898E+03  0.87183510898E+03  0.00000000000E+00 0. -1.
         22   -1    0    0    0    0 -0.00000000000E+00 -0.00000000000E+00 -0.69647941391E+03  0.69647941391E+03  0.00000000000E+00 0. -1.
        -24    2    1    2    0    0 -0.36852893059E+02  0.40637295603E+02 -0.64721370463E+03  0.65314847321E+03  0.68613577910E+02 0.  0.
         25    2    1    2    0    0  0.29289743332E+02 -0.58705846125E+02  0.70914396093E+02  0.15805165488E+03  0.12508880287E+03 0.  0.
         24    2    1    2    0    0  0.75631497280E+01  0.18068550521E+02  0.75165500361E+03  0.75711439480E+03  0.88618782487E+02 0.  0.
        -13    1    5    5    0    0 -0.16572962338E+02 -0.29806373175E+02  0.20287131863E+03  0.20571790123E+03  0.00000000000E+00 0.  1.
         14    1    5    5    0    0  0.24136112066E+02  0.47874923696E+02  0.54878368498E+03  0.55139649357E+03  0.00000000000E+00 0. -1.
         11    1    3    3    0    0 -0.39700781434E+02 -0.15217796931E+01 -0.43218641573E+03  0.43400871628E+03  0.00000000000E+00 0. -1.
        -12    1    3    3    0    0  0.28478883744E+01  0.42159075296E+02 -0.21502728890E+03  0.21913975693E+03  0.00000000000E+00 0.  1.
          5    1    4    4  501    0  0.22543029113E+02 -0.43215317228E+01 -0.33049103426E+02  0.40454659007E+02  0.41800000000E+01 0. -1.
         -5    1    4    4    0  501  0.67467142181E+01 -0.54384314402E+02  0.10396349952E+03  0.11759699587E+03  0.41800000000E+01 0. -1.
</event>
<event>
11    1  0.6625361E-009  0.1473590E+03  0.7561462E-02  0.1099608E+00
         22   -1    0    0    0    0  0.00000000000E+00  0.00000000000E+00  0.57949245621E+03  0.57949245621E+03  0.00000000000E+00 0. -1.
         22   -1    0    0    0    0 -0.00000000000E+00 -0.00000000000E+00 -0.88461453812E+03  0.88461453812E+03  0.00000000000E+00 0.  1.
        -24    2    1    2    0    0  0.17076504020E+02 -0.16869960196E+02 -0.63461508760E+03  0.64002156663E+03  0.79467564474E+02 0.  0.
         25    2    1    2    0    0 -0.70972907225E+02 -0.39394462777E+02 -0.21868349413E+03  0.26468230732E+03  0.12508067776E+03 0.  0.
         24    2    1    2    0    0  0.53896403205E+02  0.56264422973E+02  0.54817649982E+03  0.55940312037E+03  0.79773858868E+02 0.  0.
        -13    1    5    5    0    0  0.25986070023E+02 -0.67505465151E+01  0.52586518288E+02  0.59043946507E+02  0.00000000000E+00 0.  1.
         14    1    5    5    0    0  0.27910333182E+02  0.63014969489E+02  0.49558998153E+03  0.50035917386E+03  0.00000000000E+00 0. -1.
         13    1    3    3    0    0  0.17270872807E+02 -0.13581422742E+02 -0.42021483632E+02  0.47418806162E+02  0.00000000000E+00 0. -1.
        -14    1    3    3    0    0 -0.19436878723E+00 -0.32885374544E+01 -0.59259360397E+03  0.59260276047E+03  0.00000000000E+00 0.  1.
          5    1    4    4  501    0 -0.57885485726E+02  0.79565324275E+00 -0.19818183608E+02  0.61331845915E+02  0.41800000000E+01 0.  1.
         -5    1    4    4    0  501 -0.13087421498E+02 -0.40190116020E+02 -0.19886531052E+03  0.20335046141E+03  0.41800000000E+01 0.  1.
</event>
<event>
11    1  0.6625361E-009  0.1463813E+03  0.7561462E-02  0.1100635E+00
         22   -1    0    0    0    0  0.00000000000E+00  0.00000000000E+00  0.18311473037E+04  0.18311473037E+04  0.00000000000E+00 0. -1.
         22   -1    0    0    0    0 -0.00000000000E+00 -0.00000000000E+00 -0.18025953808E+02  0.18025953808E+02  0.00000000000E+00 0. -1.
         24    2    1    2    0    0  0.31569939490E+02  0.20853878574E+02  0.29869158389E+03  0.31166405523E+03  0.80537418049E+02 0.  0.
         25    2    1    2    0    0  0.57880008165E+02  0.11786212884E+02  0.86749643778E+03  0.87845649329E+03  0.12508689334E+03 0.  0.
        -24    2    1    2    0    0 -0.89449947656E+02 -0.32640091458E+02  0.64693332819E+03  0.65905270895E+03  0.82225746255E+02 0.  0.
        -11    1    3    3    0    0  0.13961340558E+01  0.79849814397E+01 -0.26607134670E+01  0.85316185479E+01  0.00000000000E+00 0.  1.
         12    1    3    3    0    0  0.30173805435E+02  0.12868897134E+02  0.30135229735E+03  0.30313243668E+03  0.00000000000E+00 0. -1.
         13    1    5    5    0    0 -0.93884218787E+02 -0.44217097790E+02  0.62734921504E+03  0.63587454414E+03  0.00000000000E+00 0. -1.
        -14    1    5    5    0    0  0.44342711315E+01  0.11577006332E+02  0.19584113141E+02  0.23178164802E+02  0.00000000000E+00 0.  1.
          5    1    4    4  501    0  0.44824150433E+02  0.58376960578E+02  0.30155702295E+03  0.31043708619E+03  0.41800000000E+01 0. -1.
         -5    1    4    4    0  501  0.13055857732E+02 -0.46590747694E+02  0.56593941482E+03  0.56801940710E+03  0.41800000000E+01 0. -1.
</event>
<event>
11    1  0.6625361E-009  0.1632989E+03  0.7561462E-02  0.1084015E+00
         22   -1    0    0    0    0  0.00000000000E+00  0.00000000000E+00  0.12007474481E+04  0.12007474481E+04  0.00000000000E+00 0. -1.
         22   -1    0    0    0    0 -0.00000000000E+00 -0.00000000000E+00 -0.24398966693E+03  0.24398966693E+03  0.00000000000E+00 0.  1.
         24    2    1    2    0    0 -0.94267484797E+02  0.43167709286E+02 -0.20629561042E+03  0.24402897017E+03  0.79009174070E+02 0.  0.
         25    2    1    2    0    0  0.13732141135E+03 -0.70240374521E+02  0.70479752463E+03  0.73224173780E+03  0.12509009403E+03 0.  0.
        -24    2    1    2    0    0 -0.43053926550E+02  0.27072665235E+02  0.45825586701E+03  0.46846640711E+03  0.82920233632E+02 0.  0.
        -11    1    3    3    0    0 -0.92545730386E+02  0.76147746739E+01 -0.16645172755E+03  0.19060134997E+03  0.00000000000E+00 0.  1.
         12    1    3    3    0    0 -0.17217544111E+01  0.35552934612E+02 -0.39843882873E+02  0.53427620199E+02  0.00000000000E+00 0. -1.
         11    1    5    5    0    0 -0.41451520640E+02 -0.17357950054E+02  0.32249451625E+03  0.32561056495E+03  0.00000000000E+00 0. -1.
        -12    1    5    5    0    0 -0.16024059106E+01  0.44430615289E+02  0.13576135076E+03  0.14285584217E+03  0.00000000000E+00 0.  1.
          5    1    4    4  501    0  0.11780164613E+03 -0.50497087536E+02  0.68729628208E+03  0.69915723227E+03  0.41800000000E+01 0.  1.
         -5    1    4    4    0  501  0.19519765216E+02 -0.19743286985E+02  0.17501242548E+02  0.33084505524E+02  0.41800000000E+01 0.  1.
</event>
<event>
11    1  0.6625361E-009  0.1905206E+03  0.7561462E-02  0.1061437E+00
         22   -1    0    0    0    0  0.00000000000E+00  0.00000000000E+00  0.22673395584E+04  0.22673395584E+04  0.00000000000E+00 0. -1.
         22   -1    0    0    0    0 -0.00000000000E+00 -0.00000000000E+00 -0.13694607219E+04  0.13694607219E+04  0.00000000000E+00 0.  1.
        -24    2    1    2    0    0 -0.10347954093E+03  0.42382422191E+01 -0.13026954667E+04  0.13092652039E+04  0.80211701680E+02 0.  0.
         25    2    1    2    0    0  0.75370491158E+02  0.13786460181E+03  0.10721908820E+03  0.22766258005E+03  0.12508780161E+03 0.  0.
         24    2    1    2    0    0  0.28109049776E+02 -0.14210284403E+03  0.20933552150E+04  0.20998724964E+04  0.79656186148E+02 0.  0.
        -13    1    5    5    0    0  0.10921655999E+01 -0.45866380341E+02  0.27740408474E+03  0.28117244513E+03  0.00000000000E+00 0.  1.
         14    1    5    5    0    0  0.27016884176E+02 -0.96236463692E+02  0.18159511302E+04  0.18187000512E+04  0.00000000000E+00 0. -1.
         11    1    3    3    0    0 -0.73258631115E+02  0.31881660653E+02 -0.58880164071E+03  0.59419747511E+03  0.00000000000E+00 0. -1.
        -12    1    3    3    0    0 -0.30220909819E+02 -0.27643418434E+02 -0.71389382598E+03  0.71506772878E+03  0.00000000000E+00 0.  1.
          5    1    4    4  501    0  0.15393445431E+02  0.21412096206E+01  0.73759077767E+02  0.75494482540E+02  0.41800000000E+01 0. -1.
         -5    1    4    4    0  501  0.59977045727E+02  0.13572339219E+03  0.33460010428E+02  0.15216809751E+03  0.41800000000E+01 0. -1.
</event>
<event>
11    1  0.6625361E-009  0.1505452E+03  0.7561462E-02  0.1096323E+00
         22   -1    0    0    0    0  0.00000000000E+00  0.00000000000E+00  0.17926362218E+04  0.17926362218E+04  0.00000000000E+00 0.  1.
         22   -1    0    0    0    0 -0.00000000000E+00 -0.00000000000E+00 -0.15199130359E+03  0.15199130359E+03  0.00000000000E+00 0.  1.
         24    2    1    2    0    0  0.71956499822E+00 -0.31380364997E+02 -0.11459974701E+03  0.14325342747E+03  0.80019981168E+02 0.  0.
         25    2    1    2    0    0 -0.83486779999E+02  0.15850570854E+02  0.25393664016E+03  0.29555309414E+03  0.12508609518E+03 0.  0.
        -24    2    1    2    0    0  0.82767215001E+02  0.15529794143E+02  0.15013080250E+04  0.15058210037E+04  0.80495483907E+02 0.  0.
        -11    1    3    3    0    0 -0.21814741519E+01 -0.46808482639E+02 -0.11819803621E+03  0.12714782201E+03  0.00000000000E+00 0.  1.
         12    1    3    3    0    0  0.29010391501E+01  0.15428117642E+02  0.35982892042E+01  0.16105605463E+02  0.00000000000E+00 0. -1.
         13    1    5    5    0    0 -0.14020399214E+02  0.77861649122E+01  0.11445021326E+03  0.11556836623E+03  0.00000000000E+00 0. -1.
        -14    1    5    5    0    0  0.96787614215E+02  0.77436292309E+01  0.13868578118E+04  0.13902526375E+04  0.00000000000E+00 0.  1.
          5    1    4    4  501    0  0.10004908820E+02  0.44156322271E+02  0.40921322690E+02  0.61171121027E+02  0.41800000000E+01 0. -1.
         -5    1    4    4    0  501 -0.93491688820E+02 -0.28305751416E+02  0.21301531748E+03  0.23438197311E+03  0.41800000000E+01 0. -1.
</event>
<event>
11    1  0.9653370E-009  0.1601908E+03  0.7561462E-02  0.1086898E+00
         22   -1    0    0    0    0  0.00000000000E+00  0.00000000000E+00  0.60451119663E+03  0.60451119663E+03  0.00000000000E+00 0. -1.
         22   -1    0    0    0    0 -0.00000000000E+00 -0.00000000000E+00 -0.79008346304E+03  0.79008346304E+03  0.00000000000E+00 0.  1.
         24    2    1    2    0    0 -0.50009262677E+02  0.48644682736E+02 -0.41883502820E+03  0.43206226411E+03  0.79923636736E+02 0.  0.
         25    2    1    2    0    0  0.14466226037E+03 -0.18264391012E+02 -0.33165308390E+03  0.38328001351E+03  0.12509613560E+03 0.  0.
        -24    2    1    2    0    0 -0.94652997693E+02 -0.30380291723E+02  0.56491584569E+03  0.57925238205E+03  0.80754302025E+02 0.  0.
        -11    1    3    3    0    0 -0.34771202714E+02  0.18423877022E+02 -0.37308195013E+03  0.37515145914E+03  0.00000000000E+00 0.  1.
         12    1    3    3    0    0 -0.15238059963E+02  0.30220805714E+02 -0.45753078070E+02  0.56910804969E+02  0.00000000000E+00 0. -1.
         13    1    5    5    0    0 -0.78582950849E+02 -0.56746584041E+02  0.44386959859E+03  0.45432991924E+03  0.00000000000E+00 0. -1.
        -14    1    5    5    0    0 -0.16070046844E+02  0.26366292318E+02  0.12104624710E+03  0.12492246280E+03  0.00000000000E+00 0.  1.
          5    1    4    4  501    0  0.85268588736E+02  0.42391212691E+02 -0.24024060009E+03  0.25845844051E+03  0.41800000000E+01 0. -1.
         -5    1    4    4    0  501  0.59393671634E+02 -0.60655603703E+02 -0.91412483813E+02  0.12482157301E+03  0.41800000000E+01 0. -1.
</event>
<event>
11    1  0.6625361E-009  0.1326821E+03  0.7561462E-02  0.1116017E+00
         22   -1    0    0    0    0  0.00000000000E+00  0.00000000000E+00  0.18815148509E+04  0.18815148509E+04  0.00000000000E+00 0.  1.
         22   -1    0    0    0    0 -0.00000000000E+00 -0.00000000000E+00 -0.36679945314E+03  0.36679945314E+03  0.00000000000E+00 0.  1.
        -24    2    1    2    0    0 -0.67921826978E+01  0.45277269360E+02 -0.32773432340E+03  0.34080899240E+03  0.81515751241E+02 0.  0.
         25    2    1    2    0    0  0.17477278548E+01 -0.11011064185E+02  0.94179808447E+02  0.15702380589E+03  0.12514927571E+03 0.  0.
         24    2    1    2    0    0  0.50444548430E+01 -0.34266205175E+02  0.17482699128E+04  0.17504815058E+04  0.80859105565E+02 0.  0.
        -11    1    5    5    0    0 -0.22643155239E-01  0.22449946823E+01  0.14419453419E+04  0.14419470897E+04  0.00000000000E+00 0.  1.
         12    1    5    5    0    0  0.50670979982E+01 -0.36511199858E+02  0.30632457087E+03  0.30853441609E+03  0.00000000000E+00 0. -1.
         13    1    3    3    0    0 -0.43899206933E+02  0.28986699926E+02 -0.17010401948E+03  0.17805265116E+03  0.00000000000E+00 0. -1.
        -14    1    3    3    0    0  0.37107024236E+02  0.16290569434E+02 -0.15763030392E+03  0.16275634124E+03  0.00000000000E+00 0.  1.
          5    1    4    4  501    0  0.57039740667E+02 -0.27782136645E+02  0.29192556746E+02  0.69964683243E+02  0.41800000000E+01 0. -1.
         -5    1    4    4    0  501 -0.55292012812E+02  0.16771072460E+02  0.64987251700E+02  0.87059122646E+02  0.41800000000E+01 0. -1.
</event>
<event>
11    1  0.6625361E-009  0.1440578E+03  0.7561462E-02  0.1103110E+00
         22   -1    0    0    0    0  0.00000000000E+00  0.00000000000E+00  0.90821507854E+02  0.90821507854E+02  0.00000000000E+00 0. -1.
         22   -1    0    0    0    0 -0.00000000000E+00 -0.00000000000E+00 -0.17244151145E+04  0.17244151145E+04  0.00000000000E+00 0. -1.
         24    2    1    2    0    0 -0.25560464529E+02  0.11022496736E+02 -0.11968393097E+04  0.11998843998E+04  0.80767609817E+02 0.  0.
         25    2    1    2    0    0 -0.66547575796E+00  0.56788132108E+02 -0.48208426849E+03  0.50127749162E+03  0.12509415202E+03 0.  0.
        -24    2    1    2    0    0  0.26225940287E+02 -0.67810628844E+02  0.45329971576E+02  0.11407473093E+03  0.75313721099E+02 0.  0.
        -11    1    3    3    0    0  0.27231415080E+02 -0.91860483623E+01 -0.36909930135E+03  0.37021646062E+03  0.00000000000E+00 0.  1.
         12    1    3    3    0    0 -0.52791879609E+02  0.20208545098E+02 -0.82774000836E+03  0.82966793918E+03  0.00000000000E+00 0. -1.
         13    1    5    5    0    0  0.26827829244E+02 -0.63400851523E+02  0.64534304060E+02  0.94361415824E+02  0.00000000000E+00 0. -1.
        -14    1    5    5    0    0 -0.60188895736E+00 -0.44097773210E+01 -0.19204332484E+02  0.19713315107E+02  0.00000000000E+00 0.  1.
          5    1    4    4  501    0 -0.37180774948E+00 -0.31079651128E+02 -0.26794109335E+03  0.26977024458E+03  0.41800000000E+01 0.  1.
         -5    1    4    4    0  501 -0.29366800848E+00  0.87867783237E+02 -0.21414317514E+03  0.23150724704E+03  0.41800000000E+01 0.  1.
</event>
<event>
11    1  0.6625361E-009  0.1685546E+03  0.7561462E-02  0.1079296E+00
         22   -1    0    0    0    0  0.00000000000E+00  0.00000000000E+00  0.12819967137E+03  0.12819967137E+03  0.00000000000E+00 0.  1.
         22   -1    0    0    0    0 -0.00000000000E+00 -0.00000000000E+00 -0.22582720058E+04  0.22582720058E+04  0.00000000000E+00 0. -1.
        -24    2    1    2    0    0 -0.64123558291E+02  0.98118155335E+02 -0.18107183097E+04  0.18163465608E+04  0.81700849363E+02 0.  0.
         25    2    1    2    0    0  0.69821599711E+02 -0.63113007079E+02 -0.41409979429E+03  0.44270074452E+03  0.12508797751E+03 0.  0.
         24    2    1    2    0    0 -0.56980414194E+01 -0.35005148256E+02  0.94745769555E+02  0.12742437184E+03  0.77475038624E+02 0.  0.
        -11    1    5    5    0    0  0.77216350250E+01 -0.41835263015E+02  0.10214268527E+03  0.11064782435E+03  0.00000000000E+00 0.  1.
         12    1    5    5    0    0 -0.13419676444E+02  0.68301147593E+01 -0.73969157177E+01  0.16776547488E+02  0.00000000000E+00 0. -1.
         11    1    3    3    0    0 -0.61610412920E+02  0.96721397169E+02 -0.11668142176E+04  0.11724360494E+04  0.00000000000E+00 0. -1.
        -12    1    3    3    0    0 -0.25131453714E+01  0.13967581660E+01 -0.64390409214E+03  0.64391051142E+03  0.00000000000E+00 0.  1.
          5    1    4    4  501    0  0.28626703952E+02 -0.95720591269E+02 -0.31451923804E+03  0.33003294270E+03  0.41800000000E+01 0. -1.
         -5    1    4    4    0  501  0.41194895759E+02  0.32607584189E+02 -0.99580556257E+02  0.11266780182E+03  0.41800000000E+01 0. -1.
</event>
<event>
11    1  0.6625361E-009  0.1451294E+03  0.7561462E-02  0.1101962E+00
         22   -1    0    0    0    0  0.00000000000E+00  0.00000000000E+00  0.34357745487E+03  0.34357745487E+03  0.00000000000E+00 0.  1.
         22   -1    0    0    0    0 -0.00000000000E+00 -0.00000000000E+00 -0.56918749862E+03  0.56918749862E+03  0.00000000000E+00 0.  1.
        -24    2    1    2    0    0  0.65201921070E+02  0.37188001715E+02 -0.50905496550E+03  0.52079998106E+03  0.80382985724E+02 0.  0.
         25    2    1    2    0    0 -0.33138507513E+02 -0.39698310946E+02  0.53359289729E+02  0.14549632747E+03  0.12509137035E+03 0.  0.
         24    2    1    2    0    0 -0.32063413557E+02  0.25103092305E+01  0.23008563203E+03  0.24646864495E+03  0.82298424887E+02 0.  0.
        -11    1    5    5    0    0 -0.79175957208E+01  0.26786124768E+02  0.19660885951E+03  0.19858305174E+03  0.00000000000E+00 0.  1.
         12    1    5    5    0    0 -0.24145817836E+02 -0.24275815538E+02  0.33476772519E+02  0.47885593212E+02  0.00000000000E+00 0. -1.
         13    1    3    3    0    0  0.24691063041E+02 -0.99471510898E+01 -0.42672857643E+02  0.50294802796E+02  0.00000000000E+00 0. -1.
        -14    1    3    3    0    0  0.40510858029E+02  0.47135152805E+02 -0.46638210786E+03  0.47050517827E+03  0.00000000000E+00 0.  1.
          5    1    4    4  501    0 -0.41637289050E+02 -0.79410112563E+02  0.18134384802E+02  0.91574877171E+02  0.41800000000E+01 0.  1.
         -5    1    4    4    0  501  0.84987815363E+01  0.39711801618E+02  0.35224904927E+02  0.53921450300E+02  0.41800000000E+01 0.  1.
</event>
<event>
11    1  0.6625361E-009  0.1370911E+03  0.7561462E-02  0.1110851E+00
         22   -1    0    0    0    0  0.00000000000E+00  0.00000000000E+00  0.15715030077E+03  0.15715030077E+03  0.00000000000E+00 0. -1.
         22   -1    0    0    0    0 -0.00000000000E+00 -0.00000000000E+00 -0.77346837957E+03  0.77346837957E+03  0.00000000000E+00 0.  1.
        -24    2    1    2    0    0 -0.32203798914E+02 -0.42628598648E+02 -0.66891114577E+03  0.67587887271E+03  0.80720799996E+02 0.  0.
         25    2    1    2    0    0 -0.29693149724E+02  0.10684932576E+02 -0.13813312900E+02  0.12974584980E+03  0.12508927613E+03 0.  0.
         24    2    1    2    0    0  0.61896948638E+02  0.31943666072E+02  0.66406379870E+02  0.12499395783E+03  0.79762473340E+02 0.  0.
        -13    1    5    5    0    0  0.13246917174E+01  0.42663731259E+02  0.16428298670E+02  0.45736613017E+02  0.00000000000E+00 0.  1.
         14    1    5    5    0    0  0.60572256920E+02 -0.10720065187E+02  0.49978081200E+02  0.79257344811E+02  0.00000000000E+00 0. -1.
         11    1    3    3    0    0 -0.51734460588E+01  0.11250905491E+02 -0.16203615367E+02  0.20393738487E+02  0.00000000000E+00 0. -1.
        -12    1    3    3    0    0 -0.27030352855E+02 -0.53879504140E+02 -0.65270753041E+03  0.65548513423E+03  0.00000000000E+00 0.  1.
          5    1    4    4  501    0  0.34800657744E+02 -0.34297484328E+02  0.33534063344E+01  0.49154053186E+02  0.41800000000E+01 0. -1.
         -5    1    4    4    0  501 -0.64493807467E+02  0.44982416904E+02 -0.17166719234E+02  0.80591796614E+02  0.41800000000E+01 0. -1.
</event>
<event>
11    1  0.6625361E-009  0.1469613E+03  0.7561462E-02  0.1100025E+00
         22   -1    0    0    0    0  0.00000000000E+00  0.00000000000E+00  0.87368950147E+03  0.87368950147E+03  0.00000000000E+00 0. -1.
         22   -1    0    0    0    0 -0.00000000000E+00 -0.00000000000E+00 -0.82064478482E+03  0.82064478482E+03  0.00000000000E+00 0.  1.
        -24    2    1    2    0    0  0.72398301320E+02  0.25863490060E+02 -0.76342872925E+03  0.77150695936E+03  0.80555133580E+02 0.  0.
         25    2    1    2    0    0 -0.97256626711E+02  0.20498528072E+02  0.78452550199E+02  0.17799371414E+03  0.12509164060E+03 0.  0.
         24    2    1    2    0    0  0.24858325391E+02 -0.46362018132E+02  0.73802089570E+03  0.74483361280E+03  0.85644002705E+02 0.  0.
        -13    1    5    5    0    0 -0.94765758600E+01  0.21780309555E+02  0.20707437158E+03  0.20843220178E+03  0.00000000000E+00 0.  1.
         14    1    5    5    0    0  0.34334901251E+02 -0.68142327687E+02  0.53094652412E+03  0.53640141101E+03  0.00000000000E+00 0. -1.
         11    1    3    3    0    0  0.39844598056E+02  0.53808701401E+02 -0.40153977043E+03  0.40708372060E+03  0.00000000000E+00 0. -1.
        -12    1    3    3    0    0  0.32553703263E+02 -0.27945211341E+02 -0.36188895882E+03  0.36442323876E+03  0.00000000000E+00 0.  1.
          5    1    4    4  501    0 -0.25152028197E+02  0.64422281088E+02  0.59581476349E+02  0.91379864013E+02  0.41800000000E+01 0.  1.
         -5    1    4    4    0  501 -0.72104598514E+02 -0.43923753016E+02  0.18871073850E+02  0.86613850129E+02  0.41800000000E+01 0.  1.
</event>
<event>
11    1  0.6625361E-009  0.1669279E+03  0.7561462E-02  0.1080737E+00
         22   -1    0    0    0    0  0.00000000000E+00  0.00000000000E+00  0.27053804809E+04  0.27053804809E+04  0.00000000000E+00 0.  1.
         22   -1    0    0    0    0 -0.00000000000E+00 -0.00000000000E+00 -0.59014083724E+03  0.59014083724E+03  0.00000000000E+00 0. -1.
        -24    2    1    2    0    0  0.84704108299E+02 -0.70507549400E+02 -0.54926508900E+03  0.56601859239E+03  0.80862899114E+02 0.  0.
         25    2    1    2    0    0 -0.77592936126E+02  0.93931997901E+02  0.20926144394E+03  0.27254696624E+03  0.12509041897E+03 0.  0.
         24    2    1    2    0    0 -0.71111721722E+01 -0.23424448500E+02  0.24552432887E+04  0.24569557595E+04  0.88389613878E+02 0.  0.
        -13    1    5    5    0    0 -0.27828331814E+02 -0.34405398549E+02  0.22403644467E+04  0.22408014195E+04  0.00000000000E+00 0.  1.
         14    1    5    5    0    0  0.20717159641E+02  0.10980950048E+02  0.21487884197E+03  0.21615433998E+03  0.00000000000E+00 0. -1.
         13    1    3    3    0    0  0.50581662190E+02 -0.40739531648E+02 -0.47211383268E+03  0.47656026376E+03  0.00000000000E+00 0. -1.
        -14    1    3    3    0    0  0.34122446109E+02 -0.29768017752E+02 -0.77151256317E+02  0.89458328626E+02  0.00000000000E+00 0.  1.
          5    1    4    4  501    0 -0.60674210297E+02  0.37141186647E+02  0.19757693307E+02  0.73950431950E+02  0.41800000000E+01 0. -1.
         -5    1    4    4    0  501 -0.16918725829E+02  0.56790811253E+02  0.18950375064E+03  0.19859653429E+03  0.41800000000E+01 0. -1.
</event>
<event>
11    1  0.6625361E-009  0.7801612E+03  0.7561462E-02  0.8921856E-01
         22   -1    0    0    0    0  0.00000000000E+00  0.00000000000E+00  0.24366812572E+04  0.24366812572E+04  0.00000000000E+00 0. -1.
         22   -1    0    0    0    0 -0.00000000000E+00 -0.00000000000E+00 -0.14490350429E+04  0.14490350429E+04  0.00000000000E+00 0.  1.
         24    2    1    2    0    0  0.16149087097E+03  0.58219002511E+02 -0.74236575116E+03  0.76658315897E+03  0.84107535048E+02 0.  0.
         25    2    1    2    0    0 -0.91240645596E+03 -0.12147290783E+03 -0.28066138826E+03  0.97039128375E+03  0.12508885042E+03 0.  0.
        -24    2    1    2    0    0  0.75091558500E+03  0.63253905316E+02  0.20106733537E+04  0.21487418573E+04  0.80055991855E+02 0.  0.
        -13    1    3    3    0    0  0.81931631855E+02  0.66120823576E+02 -0.51271660322E+03  0.52341481716E+03  0.00000000000E+00 0.  1.
         14    1    3    3    0    0  0.79559239112E+02 -0.79018210655E+01 -0.22964914795E+03  0.24316834181E+03  0.00000000000E+00 0. -1.
         11    1    5    5    0    0  0.20606651279E+03  0.25397062974E+02  0.65757393124E+03  0.68957370422E+03  0.00000000000E+00 0. -1.
        -12    1    5    5    0    0  0.54484907221E+03  0.37856842342E+02  0.13530994225E+04  0.14591681531E+04  0.00000000000E+00 0.  1.
          5    1    4    4  501    0 -0.39209743964E+03 -0.60936542993E+02 -0.18525299152E+03  0.43793813229E+03  0.41800000000E+01 0.  1.
         -5    1    4    4    0  501 -0.52030901632E+03 -0.60536364834E+02 -0.95408396745E+02  0.53245315146E+03  0.41800000000E+01 0.  1.
</event>
<event>
11    1  0.6625361E-009  0.2483066E+03  0.7561462E-02  0.1024805E+00
         22   -1    0    0    0    0  0.00000000000E+00  0.00000000000E+00  0.88330790507E+03  0.88330790507E+03  0.00000000000E+00 0. -1.
         22   -1    0    0    0    0 -0.00000000000E+00 -0.00000000000E+00 -0.10556229925E+04  0.10556229925E+04  0.00000000000E+00 0.  1.
         24    2    1    2    0    0  0.40023129694E+02  0.19605654276E+02 -0.81173904123E+03  0.81671286244E+03  0.78188208958E+02 0.  0.
         25    2    1    2    0    0 -0.90665626141E+02 -0.22605052700E+03 -0.14197056555E+03  0.30841916895E+03  0.12509055029E+03 0.  0.
        -24    2    1    2    0    0  0.50642496447E+02  0.20644487272E+03  0.78139451933E+03  0.81379886620E+03  0.80666299437E+02 0.  0.
        -13    1    3    3    0    0  0.33730806815E+02 -0.26728676870E+02 -0.36185017156E+03  0.36440051613E+03  0.00000000000E+00 0.  1.
         14    1    3    3    0    0  0.62923228790E+01  0.46334331146E+02 -0.44988886967E+03  0.45231234631E+03  0.00000000000E+00 0. -1.
         11    1    5    5    0    0  0.70615540756E+02  0.14036492280E+03  0.57973498423E+03  0.60065091200E+03  0.00000000000E+00 0. -1.
        -12    1    5    5    0    0 -0.19973044309E+02  0.66079949923E+02  0.20165953510E+03  0.21314795420E+03  0.00000000000E+00 0.  1.
          5    1    4    4  501    0 -0.97048043279E+02 -0.18416909821E+03 -0.15959496012E+03  0.26234443607E+03  0.41800000000E+01 0.  1.
         -5    1    4    4    0  501  0.63824171374E+01 -0.41881428789E+02  0.17624394570E+02  0.46074732879E+02  0.41800000000E+01 0.  1.
</event>
<event>
11    1  0.6625361E-009  0.1276671E+03  0.7561462E-02  0.1122169E+00
         22   -1    0    0    0    0  0.00000000000E+00  0.00000000000E+00  0.12424368064E+03  0.12424368064E+03  0.00000000000E+00 0.  1.
         22   -1    0    0    0    0 -0.00000000000E+00 -0.00000000000E+00 -0.96929060957E+03  0.96929060957E+03  0.00000000000E+00 0.  1.
         24    2    1    2    0    0 -0.23128636523E+02 -0.51485392859E+01 -0.80405417427E+03  0.80866608371E+03  0.82923329105E+02 0.  0.
         25    2    1    2    0    0  0.49412785135E+02  0.14684607523E+02 -0.11034124063E+03  0.17458055942E+03  0.12508365725E+03 0.  0.
        -24    2    1    2    0    0 -0.26284148612E+02 -0.95360682370E+01  0.69348485962E+02  0.11028764708E+03  0.81070090212E+02 0.  0.
        -13    1    3    3    0    0 -0.15873547248E+02 -0.43936079081E+02 -0.42001869941E+03  0.42260863267E+03  0.00000000000E+00 0.  1.
         14    1    3    3    0    0 -0.72550892745E+01  0.38787539795E+02 -0.38403547485E+03  0.38605745105E+03  0.00000000000E+00 0. -1.
         11    1    5    5    0    0 -0.45640423356E+02 -0.31318635757E+02  0.54097055259E+02  0.77397652273E+02  0.00000000000E+00 0. -1.
        -12    1    5    5    0    0  0.19356274743E+02  0.21782567520E+02  0.15251430704E+02  0.32889994804E+02  0.00000000000E+00 0.  1.
          5    1    4    4  501    0  0.79384048481E+02 -0.26807306607E+02 -0.70545108568E+02  0.10961087347E+03  0.41800000000E+01 0. -1.
         -5    1    4    4    0  501 -0.29971263346E+02  0.41491914130E+02 -0.39796132058E+02  0.64969685943E+02  0.41800000000E+01 0. -1.
</event>
<event>
11    1  0.6625361E-009  0.2226042E+03  0.7561462E-02  0.1039598E+00
         22   -1    0    0    0    0  0.00000000000E+00  0.00000000000E+00  0.25312921414E+04  0.25312921414E+04  0.00000000000E+00 0.  1.
         22   -1    0    0    0    0 -0.00000000000E+00 -0.00000000000E+00 -0.70552743949E+03  0.70552743949E+03  0.00000000000E+00 0. -1.
        -24    2    1    2    0    0  0.91653731753E+02  0.16037094065E+03 -0.67370122680E+03  0.70332935097E+03  0.81728745160E+02 0.  0.
         25    2    1    2    0    0 -0.34112312197E+02 -0.16156600387E+03  0.66756609487E+03  0.69897016749E+03  0.12509028969E+03 0.  0.
         24    2    1    2    0    0 -0.57541419556E+02  0.11950632210E+01  0.18318998338E+04  0.18345200624E+04  0.79337349640E+02 0.  0.
        -11    1    5    5    0    0 -0.51150781516E+02 -0.56031615586E+01  0.18097996394E+04  0.18105310085E+04  0.00000000000E+00 0.  1.
         12    1    5    5    0    0 -0.63906380397E+01  0.67982247795E+01  0.22100194397E+02  0.23989053902E+02  0.00000000000E+00 0. -1.
         11    1    3    3    0    0  0.30490337616E+02  0.44274204730E+01 -0.16213295713E+03  0.16503441619E+03  0.00000000000E+00 0. -1.
        -12    1    3    3    0    0  0.61163394136E+02  0.15594352018E+03 -0.51156826967E+03  0.53829493478E+03  0.00000000000E+00 0.  1.
          5    1    4    4  501    0 -0.80949504795E+02 -0.90407217133E+02  0.36938842382E+03  0.38883359846E+03  0.41800000000E+01 0.  1.
         -5    1    4    4    0  501  0.46837192598E+02 -0.71158786740E+02  0.29817767105E+03  0.31013656904E+03  0.41800000000E+01 0.  1.
</event>
<event>
11    1  0.6625361E-009  0.1431774E+03  0.7561462E-02  0.1104061E+00
         22   -1    0    0    0    0  0.00000000000E+00  0.00000000000E+00  0.17906162640E+04  0.17906162640E+04  0.00000000000E+00 0. -1.
         22   -1    0    0    0    0 -0.00000000000E+00 -0.00000000000E+00 -0.61370510611E+02  0.61370510611E+02  0.00000000000E+00 0. -1.
        -24    2    1    2    0    0  0.35474669656E+02 -0.12456131267E+02 -0.15189767789E+02  0.86206379256E+02  0.76073670777E+02 0.  0.
         25    2    1    2    0    0  0.56532384352E+01  0.71835347024E+02  0.10150463292E+04  0.10252607155E+04  0.12509279821E+03 0.  0.
         24    2    1    2    0    0 -0.41127908091E+02 -0.59379215756E+02  0.72938919204E+03  0.74051967991E+03  0.10556233596E+03 0.  0.
        -13    1    5    5    0    0 -0.10094446487E+01 -0.36238419619E+02  0.64265589584E+02  0.73785554410E+02  0.00000000000E+00 0.  1.
         14    1    5    5    0    0 -0.40118463443E+02 -0.23140796137E+02  0.66512360246E+03  0.66673412550E+03  0.00000000000E+00 0. -1.
         13    1    3    3    0    0 -0.22415363516E+02 -0.12934542044E+02 -0.11132443866E+02  0.28172365997E+02  0.00000000000E+00 0. -1.
        -14    1    3    3    0    0  0.57890033172E+02  0.47841077656E+00 -0.40573239234E+01  0.58034013259E+02  0.00000000000E+00 0.  1.
          5    1    4    4  501    0 -0.31015507872E+01 -0.35144998211E+02  0.19517679727E+03  0.19838408482E+03  0.41800000000E+01 0.  1.
         -5    1    4    4    0  501  0.87547892224E+01  0.10698034523E+03  0.81986953188E+03  0.82687663065E+03  0.41800000000E+01 0.  1.
</event>
<event>
11    1  0.6625361E-009  0.2017133E+03  0.7561462E-02  0.1053319E+00
         22   -1    0    0    0    0  0.00000000000E+00  0.00000000000E+00  0.25638167340E+03  0.25638167340E+03  0.00000000000E+00 0.  1.
         22   -1    0    0    0    0 -0.00000000000E+00 -0.00000000000E+00 -0.17225281432E+04  0.17225281432E+04  0.00000000000E+00 0. -1.
        -24    2    1    2    0    0  0.16137778592E+03  0.25467591505E+02 -0.15277488724E+04  0.15393320789E+04  0.93995978391E+02 0.  0.
         25    2    1    2    0    0 -0.10716914398E+03 -0.69932605146E+02 -0.12935196827E+03  0.22080476782E+03  0.12508804544E+03 0.  0.
         24    2    1    2    0    0 -0.54208641938E+02  0.44465013641E+02  0.19095437083E+03  0.21877296993E+03  0.80512895459E+02 0.  0.
        -11    1    5    5    0    0 -0.68932682899E+02  0.33347769207E+02  0.99920988370E+02  0.12588880967E+03  0.00000000000E+00 0.  1.
         12    1    5    5    0    0  0.14724040961E+02  0.11117244434E+02  0.91033382458E+02  0.92884160263E+02  0.00000000000E+00 0. -1.
         13    1    3    3    0    0  0.17087012976E+03  0.23709958929E+02 -0.15012629677E+04  0.15111417080E+04  0.00000000000E+00 0. -1.
        -14    1    3    3    0    0 -0.94923438464E+01  0.17576325769E+01 -0.26485904666E+02  0.28190370872E+02  0.00000000000E+00 0.  1.
          5    1    4    4  501    0  0.25668222303E+02  0.42613858017E+01 -0.24436640979E+02  0.35939377672E+02  0.41800000000E+01 0.  1.
         -5    1    4    4    0  501 -0.13283736628E+03 -0.74193990948E+02 -0.10491532729E+03  0.18486539015E+03  0.41800000000E+01 0.  1.
</event>
<event>
11    1  0.6625361E-009  0.2224673E+03  0.7561462E-02  0.1039683E+00
         22   -1    0    0    0    0  0.00000000000E+00  0.00000000000E+00  0.61993921425E+03  0.61993921425E+03  0.00000000000E+00 0. -1.
         22   -1    0    0    0    0 -0.00000000000E+00 -0.00000000000E+00 -0.19059349203E+03  0.19059349203E+03  0.00000000000E+00 0.  1.
         24    2    1    2    0    0  0.42472809018E+02  0.57298896016E+02 -0.51331412717E+02  0.11990403430E+03  0.81577941382E+02 0.  0.
         25    2    1    2    0    0  0.14144787927E+03 -0.10342018621E+03  0.62399520632E+02  0.22414317477E+03  0.12507287937E+03 0.  0.
        -24    2    1    2    0    0 -0.18392068829E+03  0.46121290197E+02  0.41827761431E+03  0.46648549721E+03  0.81844752318E+02 0.  0.
        -13    1    3    3    0    0  0.61746203920E+02  0.62614321935E+02 -0.37540782917E+02  0.95616198376E+02  0.00000000000E+00 0.  1.
         14    1    3    3    0    0 -0.19273394902E+02 -0.53154259193E+01 -0.13790629800E+02  0.24287835927E+02  0.00000000000E+00 0. -1.
         11    1    5    5    0    0 -0.18906649380E+02  0.29601155042E+01  0.13098351308E+03  0.13237410764E+03  0.00000000000E+00 0. -1.
        -12    1    5    5    0    0 -0.16501403891E+03  0.43161174693E+02  0.28729410124E+03  0.33411138957E+03  0.00000000000E+00 0.  1.
          5    1    4    4  501    0  0.16239103024E+03 -0.74720291901E+02  0.45098419547E+02  0.18440528347E+03  0.41800000000E+01 0.  1.
         -5    1    4    4    0  501 -0.20943150972E+02 -0.28699894312E+02  0.17301101085E+02  0.39737891299E+02  0.41800000000E+01 0.  1.
</event>
<event>
11    1  0.6625361E-009  0.2895828E+03  0.7561462E-02  0.1004699E+00
         22   -1    0    0    0    0  0.00000000000E+00  0.00000000000E+00  0.12318803429E+04  0.12318803429E+04  0.00000000000E+00 0.  1.
         22   -1    0    0    0    0 -0.00000000000E+00 -0.00000000000E+00 -0.89109812244E+03  0.89109812244E+03  0.00000000000E+00 0. -1.
        -24    2    1    2    0    0 -0.72878368362E+02 -0.25123147267E+03 -0.82664767407E+03  0.87061443515E+03  0.78705833391E+02 0.  0.
         25    2    1    2    0    0  0.64087547980E+01  0.25909281263E+03  0.50223426766E+03  0.57884067254E+03  0.12508839628E+03 0.  0.
         24    2    1    2    0    0  0.66469613564E+02 -0.78613399675E+01  0.66519562686E+03  0.67352335765E+03  0.81660768500E+02 0.  0.
        -13    1    5    5    0    0  0.63793876572E+02 -0.25760748512E+02  0.63183572880E+03  0.63557034468E+03  0.00000000000E+00 0.  1.
         14    1    5    5    0    0  0.26757369924E+01  0.17899408544E+02  0.33359898064E+02  0.37953012970E+02  0.00000000000E+00 0. -1.
         13    1    3    3    0    0 -0.89517669313E+02 -0.19746037154E+03 -0.66472532593E+03  0.69918793638E+03  0.00000000000E+00 0. -1.
        -14    1    3    3    0    0  0.16639300951E+02 -0.53771101122E+02 -0.16192234814E+03  0.17142649877E+03  0.00000000000E+00 0.  1.
          5    1    4    4  501    0 -0.14721704067E+02  0.24660636260E+03  0.37423568422E+03  0.44844313618E+03  0.41800000000E+01 0. -1.
         -5    1    4    4    0  501  0.21130458865E+02  0.12486450031E+02  0.12799858344E+03  0.13039753636E+03  0.41800000000E+01 0. -1.
</event>
<event>
11    1  0.6625361E-009  0.1291262E+03  0.7561462E-02  0.1120347E+00
         22   -1    0    0    0    0  0.00000000000E+00  0.00000000000E+00  0.16573870476E+04  0.16573870476E+04  0.00000000000E+00 0. -1.
         22   -1    0    0    0    0 -0.00000000000E+00 -0.00000000000E+00 -0.70038780989E+02  0.70038780989E+02  0.00000000000E+00 0. -1.
         24    2    1    2    0    0 -0.13451438211E+02  0.15589493706E+02 -0.56108147920E+01  0.86067784662E+02  0.83379906513E+02 0.  0.
         25    2    1    2    0    0  0.87180658594E+01 -0.46528062984E+02  0.17250792188E+03  0.21828234325E+03  0.12508929988E+03 0.  0.
        -24    2    1    2    0    0  0.47333723515E+01  0.30938569278E+02  0.14204511595E+04  0.14230757007E+04  0.80519273461E+02 0.  0.
        -13    1    3    3    0    0  0.10334568217E+02  0.43559556276E+02  0.10481935334E+02  0.45979443358E+02  0.00000000000E+00 0.  1.
         14    1    3    3    0    0 -0.23786006428E+02 -0.27970062570E+02 -0.16092750126E+02  0.40088341304E+02  0.00000000000E+00 0. -1.
         13    1    5    5    0    0  0.30747311088E+02  0.42596738786E+02  0.11322564069E+04  0.11334745036E+04  0.00000000000E+00 0. -1.
        -14    1    5    5    0    0 -0.26013938737E+02 -0.11658169508E+02  0.28819475262E+03  0.28960119710E+03  0.00000000000E+00 0.  1.
          5    1    4    4  501    0  0.54314215447E+02 -0.58204599924E+02  0.13939971606E+03  0.16058506372E+03  0.41800000000E+01 0. -1.
         -5    1    4    4    0  501 -0.45596149588E+02  0.11676536940E+02  0.33108205821E+02  0.57697279527E+02  0.41800000000E+01 0. -1.
</event>
<event>
11    1  0.6625361E-009  0.1434522E+03  0.7561462E-02  0.1103764E+00
         22   -1    0    0    0    0  0.00000000000E+00  0.00000000000E+00  0.42325399945E+03  0.42325399945E+03  0.00000000000E+00 0. -1.
         22   -1    0    0    0    0 -0.00000000000E+00 -0.00000000000E+00 -0.84191092383E+03  0.84191092383E+03  0.00000000000E+00 0.  1.
        -24    2    1    2    0    0 -0.35327568071E+02  0.24961093285E+02 -0.76440979809E+03  0.76954156084E+03  0.77464709407E+02 0.  0.
         25    2    1    2    0    0  0.29182660368E+02  0.47994171357E+02  0.39118358036E+01  0.13717636058E+03  0.12508790226E+03 0.  0.
         24    2    1    2    0    0  0.61449077033E+01 -0.72955264642E+02  0.34184103791E+03  0.35844700185E+03  0.79175295448E+02 0.  0.
        -11    1    5    5    0    0  0.33594610479E+02 -0.49471309736E+01  0.92110015010E+02  0.98169887558E+02  0.00000000000E+00 0.  1.
         12    1    5    5    0    0 -0.27449702776E+02 -0.68008133669E+02  0.24973102290E+03  0.26027711429E+03  0.00000000000E+00 0. -1.
         11    1    3    3    0    0 -0.30786953096E+02 -0.14433467516E+02 -0.14792359813E+03  0.15178126482E+03  0.00000000000E+00 0. -1.
        -12    1    3    3    0    0 -0.45406149757E+01  0.39394560801E+02 -0.61648619996E+03  0.61776029603E+03  0.00000000000E+00 0.  1.
          5    1    4    4  501    0  0.66750535605E+02  0.13630479039E+02 -0.31341695585E+02  0.75107910665E+02  0.41800000000E+01 0. -1.
         -5    1    4    4    0  501 -0.37567875237E+02  0.34363692318E+02  0.35253531389E+02  0.62068449915E+02  0.41800000000E+01 0. -1.
</event>
<event>
11    1  0.6625361E-009  0.1397237E+03  0.7561462E-02  0.1107867E+00
         22   -1    0    0    0    0  0.00000000000E+00  0.00000000000E+00  0.41355495363E+03  0.41355495363E+03  0.00000000000E+00 0. -1.
         22   -1    0    0    0    0 -0.00000000000E+00 -0.00000000000E+00 -0.49184359606E+03  0.49184359606E+03  0.00000000000E+00 0.  1.
         24    2    1    2    0    0 -0.48746972021E+02 -0.40311359997E+02 -0.28563610216E+03  0.30341314473E+03  0.80438053882E+02 0.  0.
         25    2    1    2    0    0  0.26846786076E+02  0.58168790333E+02 -0.16695095947E+03  0.21823041824E+03  0.12509010548E+03 0.  0.
        -24    2    1    2    0    0  0.21900185945E+02 -0.17857430336E+02  0.37429841919E+03  0.38375498671E+03  0.79812763740E+02 0.  0.
        -13    1    3    3    0    0  0.35043953159E+01 -0.28748610187E+02 -0.28020570997E+02  0.40297838319E+02  0.00000000000E+00 0.  1.
         14    1    3    3    0    0 -0.52251367337E+02 -0.11562749810E+02 -0.25761553117E+03  0.26311530641E+03  0.00000000000E+00 0. -1.
         11    1    5    5    0    0  0.73737412084E+01 -0.49313736105E+02  0.23220565384E+03  0.23749880485E+03  0.00000000000E+00 0. -1.
        -12    1    5    5    0    0  0.14526444737E+02  0.31456305769E+02  0.14209276535E+03  0.14625618187E+03  0.00000000000E+00 0.  1.
          5    1    4    4  501    0 -0.45618026748E+02  0.78577846501E+01 -0.89124265745E+02  0.10051545298E+03  0.41800000000E+01 0. -1.
         -5    1    4    4    0  501  0.72464812824E+02  0.50311005683E+02 -0.77826693721E+02  0.11771496526E+03  0.41800000000E+01 0. -1.
</event>
<event>
11    1  0.6625361E-009  0.1386747E+03  0.7561462E-02  0.1109047E+00
         22   -1    0    0    0    0  0.00000000000E+00  0.00000000000E+00  0.43485783607E+02  0.43485783607E+02  0.00000000000E+00 0.  1.
         22   -1    0    0    0    0 -0.00000000000E+00 -0.00000000000E+00 -0.11940865293E+04  0.11940865293E+04  0.00000000000E+00 0. -1.
        -24    2    1    2    0    0 -0.34350057526E+02  0.11553185114E+01 -0.74198959759E+03  0.74676841411E+03  0.77027528617E+02 0.  0.
         25    2    1    2    0    0  0.70530017126E+02  0.40363143653E+02 -0.34037078069E+03  0.37162425103E+03  0.12509455991E+03 0.  0.
         24    2    1    2    0    0 -0.36179959601E+02 -0.41518462164E+02 -0.68240367448E+02  0.11917964781E+03  0.80711018615E+02 0.  0.
        -13    1    5    5    0    0 -0.25123680701E+01 -0.62846757200E+01  0.18493168340E+02  0.19692801159E+02  0.00000000000E+00 0.  1.
         14    1    5    5    0    0 -0.33667591531E+02 -0.35233786444E+02 -0.86733535788E+02  0.99486846653E+02  0.00000000000E+00 0. -1.
         11    1    3    3    0    0 -0.30713974492E+02 -0.17200528404E+02 -0.69896229033E+03  0.69984819047E+03  0.00000000000E+00 0. -1.
        -12    1    3    3    0    0 -0.36360830337E+01  0.18355846916E+02 -0.43027307259E+02  0.46920223633E+02  0.00000000000E+00 0.  1.
          5    1    4    4  501    0  0.70644018284E+02  0.79115556028E+02 -0.28312226948E+03  0.30236656627E+03  0.41800000000E+01 0. -1.
         -5    1    4    4    0  501 -0.11400115793E+00 -0.38752412375E+02 -0.57248511215E+02  0.69257684754E+02  0.41800000000E+01 0. -1.
</event>
<event>
11    1  0.6625361E-009  0.3263440E+03  0.7561462E-02  0.9896197E-01
         22   -1    0    0    0    0  0.00000000000E+00  0.00000000000E+00  0.11835079675E+03  0.11835079675E+03  0.00000000000E+00 0.  1.
         22   -1    0    0    0    0 -0.00000000000E+00 -0.00000000000E+00 -0.25516563864E+04  0.25516563864E+04  0.00000000000E+00 0.  1.
         24    2    1    2    0    0 -0.24951986272E+03 -0.12574595724E+03 -0.14932483546E+04  0.15212891980E+04  0.80361481347E+02 0.  0.
         25    2    1    2    0    0  0.32321442646E+03  0.15408616507E+03 -0.96145499551E+03  0.10335630702E+04  0.12508716977E+03 0.  0.
        -24    2    1    2    0    0 -0.73694563739E+02 -0.28340207831E+02  0.21397760512E+02  0.11515491488E+03  0.81047727680E+02 0.  0.
        -11    1    3    3    0    0 -0.21103149887E+03 -0.68719241677E+02 -0.11426583013E+04  0.11640122942E+04  0.00000000000E+00 0.  1.
         12    1    3    3    0    0 -0.38488363846E+02 -0.57026715563E+02 -0.35059005339E+03  0.35727690378E+03  0.00000000000E+00 0. -1.
         11    1    5    5    0    0 -0.14547273457E+01  0.64914051821E+01 -0.22684240640E+02  0.23639571619E+02  0.00000000000E+00 0. -1.
        -12    1    5    5    0    0 -0.72239836393E+02 -0.34831613013E+02  0.44082001152E+02  0.91515343264E+02  0.00000000000E+00 0.  1.
          5    1    4    4  501    0  0.13444437982E+03  0.11121411933E+03 -0.33312217975E+03  0.37607410259E+03  0.41800000000E+01 0. -1.
         -5    1    4    4    0  501  0.18877004664E+03  0.42872045743E+02 -0.62833281576E+03  0.65748896765E+03  0.41800000000E+01 0. -1.
</event>
<event>
11    1  0.6625361E-009  0.1309254E+03  0.7561462E-02  0.1118137E+00
         22   -1    0    0    0    0  0.00000000000E+00  0.00000000000E+00  0.12362232113E+03  0.12362232113E+03  0.00000000000E+00 0.  1.
         22   -1    0    0    0    0 -0.00000000000E+00 -0.00000000000E+00 -0.10958947942E+04  0.10958947942E+04  0.00000000000E+00 0. -1.
         24    2    1    2    0    0  0.42585377106E+02  0.44651994316E+01 -0.86022308649E+03  0.86501220372E+03  0.80180432158E+02 0.  0.
         25    2    1    2    0    0 -0.68656239535E+01  0.97086051387E+00 -0.19574792418E+03  0.23240704925E+03  0.12509079647E+03 0.  0.
        -24    2    1    2    0    0 -0.35719753152E+02 -0.54360599455E+01  0.83698537602E+02  0.12209786235E+03  0.81221864552E+02 0.  0.
        -13    1    3    3    0    0  0.78370628977E+00  0.16313631561E+01  0.14512636065E+01  0.23198507175E+01  0.00000000000E+00 0.  1.
         14    1    3    3    0    0  0.41801670816E+02  0.28338362755E+01 -0.86167435010E+03  0.86269235300E+03  0.00000000000E+00 0. -1.
         13    1    5    5    0    0 -0.32337892253E+02  0.35379890082E+02  0.45943360819E+02  0.66394791219E+02  0.00000000000E+00 0. -1.
        -14    1    5    5    0    0 -0.33818608997E+01 -0.40815950028E+02  0.37755176783E+02  0.55703071133E+02  0.00000000000E+00 0.  1.
          5    1    4    4  501    0 -0.23683768421E+02 -0.47221855048E+02 -0.16352970304E+03  0.17190189253E+03  0.41800000000E+01 0. -1.
         -5    1    4    4    0  501  0.16818144467E+02  0.48192715562E+02 -0.32218221144E+02  0.60505156724E+02  0.41800000000E+01 0. -1.
</event>
<event>
11    1  0.6625361E-009  0.1447594E+03  0.7561462E-02  0.1102357E+00
         22   -1    0    0    0    0  0.00000000000E+00  0.00000000000E+00  0.13490842924E+03  0.13490842924E+03  0.00000000000E+00 0. -1.
         22   -1    0    0    0    0 -0.00000000000E+00 -0.00000000000E+00 -0.80260845309E+03  0.80260845309E+03  0.00000000000E+00 0.  1.
        -24    2    1    2    0    0  0.27573150368E+02 -0.71536145728E+02 -0.68881718770E+03  0.69775795187E+03  0.80742445846E+02 0.  0.
         25    2    1    2    0    0 -0.21887228364E+01  0.32145056625E+02 -0.35145580079E+02  0.13386574922E+03  0.12508689717E+03 0.  0.
         24    2    1    2    0    0 -0.25384427532E+02  0.39391089103E+02  0.56262743921E+02  0.10589318124E+03  0.76497336013E+02 0.  0.
        -11    1    5    5    0    0 -0.15972589081E+02  0.30027390196E+02 -0.12216552121E+02  0.36138786776E+02  0.00000000000E+00 0.  1.
         12    1    5    5    0    0 -0.94118384511E+01  0.93636989071E+01  0.68479296041E+02  0.69754394460E+02  0.00000000000E+00 0. -1.
         11    1    3    3    0    0 -0.11397128622E+02 -0.42047877296E+02 -0.13651300002E+03  0.14329590957E+03  0.00000000000E+00 0. -1.
        -12    1    3    3    0    0  0.38970278991E+02 -0.29488268431E+02 -0.55230418768E+03  0.55446204230E+03  0.00000000000E+00 0.  1.
          5    1    4    4  501    0 -0.33339597538E+02 -0.38222658973E+02 -0.50944318596E+01  0.51146124574E+02  0.41800000000E+01 0.  1.
         -5    1    4    4    0  501  0.31150874702E+02  0.70367715597E+02 -0.30051148219E+02  0.82719624651E+02  0.41800000000E+01 0.  1.
</event>
<event>
11    1  0.6625361E-009  0.1505324E+03  0.7561462E-02  0.1096336E+00
         22   -1    0    0    0    0  0.00000000000E+00  0.00000000000E+00  0.63763374568E+03  0.63763374568E+03  0.00000000000E+00 0. -1.
         22   -1    0    0    0    0 -0.00000000000E+00 -0.00000000000E+00 -0.14239270361E+03  0.14239270361E+03  0.00000000000E+00 0. -1.
        -24    2    1    2    0    0  0.40415537053E+01  0.34072082285E+02 -0.76649714886E+02  0.11417524675E+03  0.77353521132E+02 0.  0.
         25    2    1    2    0    0  0.27628784728E+02  0.48939377373E+02  0.78530352872E+02  0.15803035693E+03  0.12509262563E+03 0.  0.
         24    2    1    2    0    0 -0.31670338433E+02 -0.83011459658E+02  0.49336040409E+03  0.50782084560E+03  0.81139448676E+02 0.  0.
        -11    1    5    5    0    0  0.23114525753E+02 -0.29376051392E+01  0.94981952824E+02  0.97798170673E+02  0.00000000000E+00 0.  1.
         12    1    5    5    0    0 -0.54784864186E+02 -0.80073854519E+02  0.39837845127E+03  0.41002267493E+03  0.00000000000E+00 0. -1.
         11    1    3    3    0    0  0.17891518900E+02  0.43262885932E+02 -0.83870695687E+02  0.96052471820E+02  0.00000000000E+00 0. -1.
        -12    1    3    3    0    0 -0.13849965195E+02 -0.91908036471E+01  0.72209808008E+01  0.18122774934E+02  0.00000000000E+00 0.  1.
          5    1    4    4  501    0  0.73600859212E+02  0.51786232460E+02  0.43686273125E+02  0.10012423887E+03  0.41800000000E+01 0.  1.
         -5    1    4    4    0  501 -0.45972074484E+02 -0.28468550869E+01  0.34844079747E+02  0.57906118068E+02  0.41800000000E+01 0.  1.
</event>
<event>
11    1  0.6625361E-009  0.1350540E+03  0.7561462E-02  0.1113211E+00
         22   -1    0    0    0    0  0.00000000000E+00  0.00000000000E+00  0.82131341526E+03  0.82131341526E+03  0.00000000000E+00 0. -1.
         22   -1    0    0    0    0 -0.00000000000E+00 -0.00000000000E+00 -0.94915206260E+03  0.94915206260E+03  0.00000000000E+00 0.  1.
         24    2    1    2    0    0  0.14676541448E+02 -0.48862979374E+02 -0.90882675965E+03  0.91381339317E+03  0.80534755617E+02 0.  0.
         25    2    1    2    0    0  0.32287333459E+02  0.53227888746E+02  0.10592393494E+03  0.17535126396E+03  0.12510997458E+03 0.  0.
        -24    2    1    2    0    0 -0.46963874908E+02 -0.43649093723E+01  0.67506417738E+03  0.68130082072E+03  0.78958892793E+02 0.  0.
        -11    1    3    3    0    0  0.20167447533E+02  0.85941878426E+01 -0.54465093323E+03  0.54509194185E+03  0.00000000000E+00 0.  1.
         12    1    3    3    0    0 -0.54909060845E+01 -0.57457167216E+02 -0.36417582642E+03  0.36872145132E+03  0.00000000000E+00 0. -1.
         13    1    5    5    0    0 -0.30635728811E+02  0.14469629516E+02  0.61921670376E+03  0.62014292246E+03  0.00000000000E+00 0. -1.
        -14    1    5    5    0    0 -0.16328146097E+02 -0.18834538889E+02  0.55847473616E+02  0.61157898258E+02  0.00000000000E+00 0.  1.
          5    1    4    4  501    0 -0.16463053587E+02  0.67484543314E+02  0.15104634790E+02  0.71209677094E+02  0.41800000000E+01 0.  1.
         -5    1    4    4    0  501  0.48750387046E+02 -0.14256654568E+02  0.90819300147E+02  0.10414158687E+03  0.41800000000E+01 0.  1.
</event>
<event>
11    1  0.6625361E-009  0.1370774E+03  0.7561462E-02  0.1110867E+00
         22   -1    0    0    0    0  0.00000000000E+00  0.00000000000E+00  0.21052760373E+04  0.21052760373E+04  0.00000000000E+00 0. -1.
         22   -1    0    0    0    0 -0.00000000000E+00 -0.00000000000E+00 -0.24136825073E+03  0.24136825073E+03  0.00000000000E+00 0.  1.
         24    2    1    2    0    0  0.13609784856E+02 -0.54289128840E+02 -0.22358427250E+03  0.24403589067E+03  0.80193848084E+02 0.  0.
         25    2    1    2    0    0  0.11961512642E+02  0.68952041619E+02  0.85604409543E+03  0.86796082651E+03  0.12508813377E+03 0.  0.
        -24    2    1    2    0    0 -0.25571297497E+02 -0.14662912778E+02  0.12314479637E+04  0.12346475709E+04  0.83795255321E+02 0.  0.
        -13    1    3    3    0    0  0.18606482877E+02 -0.64067231347E+02 -0.22329827970E+03  0.23305135282E+03  0.00000000000E+00 0.  1.
         14    1    3    3    0    0 -0.49966980217E+01  0.97781025064E+01 -0.28599280254E+00  0.10984537843E+02  0.00000000000E+00 0. -1.
         11    1    5    5    0    0  0.37930070096E+01 -0.16404659346E+02  0.10920465834E+04  0.10921763777E+04  0.00000000000E+00 0. -1.
        -12    1    5    5    0    0 -0.29364304507E+02  0.17417465673E+01  0.13940138026E+03  0.14247119315E+03  0.00000000000E+00 0.  1.
          5    1    4    4  501    0  0.39641896163E+02  0.31638106898E+01  0.62093026734E+03  0.62221648879E+03  0.41800000000E+01 0. -1.
         -5    1    4    4    0  501 -0.27680383521E+02  0.65788230929E+02  0.23511382809E+03  0.24574433772E+03  0.41800000000E+01 0. -1.
</event>
<event>
11    1  0.6625361E-009  0.1383264E+03  0.7561462E-02  0.1109442E+00
         22   -1    0    0    0    0  0.00000000000E+00  0.00000000000E+00  0.44682969314E+02  0.44682969314E+02  0.00000000000E+00 0. -1.
         22   -1    0    0    0    0 -0.00000000000E+00 -0.00000000000E+00 -0.13779120868E+04  0.13779120868E+04  0.00000000000E+00 0.  1.
        -24    2    1    2    0    0  0.59134790759E+02 -0.19103035021E+02 -0.93591099697E+03  0.94140252075E+03  0.80296092043E+02 0.  0.
         25    2    1    2    0    0 -0.77553453488E+01  0.59610691604E+02 -0.33114128361E+03  0.35904735908E+03  0.12508747506E+03 0.  0.
         24    2    1    2    0    0 -0.51379445410E+02 -0.40507656582E+02 -0.66176836870E+02  0.12214517625E+03  0.79116070998E+02 0.  0.
        -11    1    5    5    0    0 -0.17906462881E+02  0.48333613039E+00 -0.66861108514E+02  0.69219093164E+02  0.00000000000E+00 0.  1.
         12    1    5    5    0    0 -0.33472982529E+02 -0.40990992713E+02  0.68427164410E+00  0.52926083085E+02  0.00000000000E+00 0. -1.
         11    1    3    3    0    0  0.10923026597E+02 -0.45318901687E+02 -0.41678678076E+03  0.41938566497E+03  0.00000000000E+00 0. -1.
        -12    1    3    3    0    0  0.48211764162E+02  0.26215866666E+02 -0.51912421621E+03  0.52201685578E+03  0.00000000000E+00 0.  1.
          5    1    4    4  501    0  0.53982055171E+02  0.23793149641E+02 -0.21204551733E+03  0.22013847930E+03  0.41800000000E+01 0. -1.
         -5    1    4    4    0  501 -0.61737400520E+02  0.35817541962E+02 -0.11909576628E+03  0.13890887978E+03  0.41800000000E+01 0. -1.
</event>
<event>
11    1  0.6625361E-009  0.1417061E+03  0.7561462E-02  0.1105668E+00
         22   -1    0    0    0    0  0.00000000000E+00  0.00000000000E+00  0.62689709429E+03  0.62689709429E+03  0.00000000000E+00 0.  1.
         22   -1    0    0    0    0 -0.00000000000E+00 -0.00000000000E+00 -0.37876205157E+03  0.37876205157E+03  0.00000000000E+00 0.  1.
        -24    2    1    2    0    0 -0.30998991019E+02 -0.58384365171E+00 -0.33743010619E+03  0.34816837414E+03  0.80005386483E+02 0.  0.
         25    2    1    2    0    0  0.10240225297E+02  0.65201216742E+02  0.13621110689E+03  0.19635791332E+03  0.12508758373E+03 0.  0.
         24    2    1    2    0    0  0.20758765723E+02 -0.64617373090E+02  0.44935404202E+03  0.46113285840E+03  0.78218455323E+02 0.  0.
        -13    1    5    5    0    0  0.19144995217E+02  0.39351531715E+01  0.24086728182E+03  0.24165898230E+03  0.00000000000E+00 0.  1.
         14    1    5    5    0    0  0.16137705055E+01 -0.68552526261E+02  0.20848676020E+03  0.21947387610E+03  0.00000000000E+00 0. -1.
         13    1    3    3    0    0  0.23830154364E+02  0.12789766224E+02 -0.74703404558E+02  0.79448430001E+02  0.00000000000E+00 0. -1.
        -14    1    3    3    0    0 -0.54829145383E+02 -0.13373609876E+02 -0.26272670164E+03  0.26871994414E+03  0.00000000000E+00 0.  1.
          5    1    4    4  501    0  0.37246903617E+02  0.37112364924E+02 -0.19142564117E+01  0.52780642635E+02  0.41800000000E+01 0. -1.
         -5    1    4    4    0  501 -0.27006678320E+02  0.28088851817E+02  0.13812536330E+03  0.14357727068E+03  0.41800000000E+01 0. -1.
</event>
<event>
11    1  0.6625361E-009  0.1488679E+03  0.7561462E-02  0.1098041E+00
         22   -1    0    0    0    0  0.00000000000E+00  0.00000000000E+00  0.21803245041E+04  0.21803245041E+04  0.00000000000E+00 0.  1.
         22   -1    0    0    0    0 -0.00000000000E+00 -0.00000000000E+00 -0.86426838251E+02  0.86426838251E+02  0.00000000000E+00 0.  1.
         24    2    1    2    0    0  0.80162672118E+02  0.30423418452E+02 -0.28817247507E+02  0.12427365532E+03  0.85216602032E+02 0.  0.
         25    2    1    2    0    0 -0.56434070152E+02  0.58668413738E+02  0.77102503112E+03  0.78533624587E+03  0.12508650376E+03 0.  0.
        -24    2    1    2    0    0 -0.23728601966E+02 -0.89091832190E+02  0.13516898823E+04  0.13571414412E+04  0.79164085614E+02 0.  0.
        -11    1    3    3    0    0  0.57557719132E+02 -0.17295577012E+02 -0.37387522633E+02  0.70780328231E+02  0.00000000000E+00 0.  1.
         12    1    3    3    0    0  0.22604952986E+02  0.47718995464E+02  0.85702751261E+01  0.53493327091E+02  0.00000000000E+00 0. -1.
         11    1    5    5    0    0  0.90500788971E+01 -0.79307572933E+02  0.69648540187E+03  0.70104458494E+03  0.00000000000E+00 0. -1.
        -12    1    5    5    0    0 -0.32778680863E+02 -0.97842592567E+01  0.65520448039E+03  0.65609685625E+03  0.00000000000E+00 0.  1.
          5    1    4    4  501    0 -0.14553047694E+02  0.72278344765E+02  0.68139452294E+03  0.68538450421E+03  0.41800000000E+01 0.  1.
         -5    1    4    4    0  501 -0.41881022457E+02 -0.13609931027E+02  0.89630508178E+02  0.99951741660E+02  0.41800000000E+01 0.  1.
</event>
<event>
11    1  0.6625361E-009  0.1561943E+03  0.7561462E-02  0.1090712E+00
         22   -1    0    0    0    0  0.00000000000E+00  0.00000000000E+00  0.19745095485E+03  0.19745095485E+03  0.00000000000E+00 0. -1.
         22   -1    0    0    0    0 -0.00000000000E+00 -0.00000000000E+00 -0.94846155658E+03  0.94846155658E+03  0.00000000000E+00 0. -1.
        -24    2    1    2    0    0  0.15417445186E+02 -0.18339584887E+02 -0.75320408096E+03  0.75748972636E+03  0.76813149739E+02 0.  0.
         25    2    1    2    0    0 -0.37328001683E+02  0.10651302291E+03 -0.12707971717E+03  0.21103001246E+03  0.12508400331E+03 0.  0.
         24    2    1    2    0    0  0.21910556497E+02 -0.88173438027E+02  0.12927319639E+03  0.17739277261E+03  0.80635034631E+02 0.  0.
        -11    1    5    5    0    0  0.60754913396E+01  0.62308608603E+01 -0.67853176424E+01  0.11035205371E+02  0.00000000000E+00 0.  1.
         12    1    5    5    0    0  0.15835065158E+02 -0.94404298888E+02  0.13605851403E+03  0.16635756724E+03  0.00000000000E+00 0. -1.
         13    1    3    3    0    0  0.11934030479E+02 -0.28293515758E+02 -0.73978767297E+03  0.74042470596E+03  0.00000000000E+00 0. -1.
        -14    1    3    3    0    0  0.34834147074E+01  0.99539308710E+01 -0.13416407988E+02  0.17065020396E+02  0.00000000000E+00 0.  1.
          5    1    4    4  501    0 -0.53962049920E+02  0.94473304465E+01 -0.65557383203E+01  0.55331771967E+02  0.41800000000E+01 0.  1.
         -5    1    4    4    0  501  0.16634048236E+02  0.97065692468E+02 -0.12052397885E+03  0.15569824049E+03  0.41800000000E+01 0.  1.
</event>
<event>
11    1  0.6625361E-009  0.1816364E+03  0.7561462E-02  0.1068327E+00
         22   -1    0    0    0    0  0.00000000000E+00  0.00000000000E+00  0.14714659322E+04  0.14714659322E+04  0.00000000000E+00 0. -1.
         22   -1    0    0    0    0 -0.00000000000E+00 -0.00000000000E+00 -0.27730330990E+04  0.27730330990E+04  0.00000000000E+00 0.  1.
         24    2    1    2    0    0  0.52305241004E+02 -0.70574778785E+02 -0.26082479906E+04  0.26110272315E+04  0.82395300779E+02 0.  0.
         25    2    1    2    0    0 -0.17216603649E+03  0.12026226782E+03 -0.65345964477E+02  0.25302509735E+03  0.12508975831E+03 0.  0.
        -24    2    1    2    0    0  0.11986079548E+03 -0.49687489030E+02  0.13720267883E+04  0.13804467024E+04  0.79624955444E+02 0.  0.
        -11    1    3    3    0    0  0.41977337136E+02  0.66329539784E+01 -0.88661257313E+03  0.88763052434E+03  0.00000000000E+00 0.  1.
         12    1    3    3    0    0  0.10327903869E+02 -0.77207732763E+02 -0.17216354175E+04  0.17233967072E+04  0.00000000000E+00 0. -1.
         13    1    5    5    0    0  0.12783029825E+03 -0.32923365214E+02  0.12596107576E+04  0.12665085052E+04  0.00000000000E+00 0. -1.
        -14    1    5    5    0    0 -0.79695027656E+01 -0.16764123816E+02  0.11241603068E+03  0.11393819718E+03  0.00000000000E+00 0.  1.
          5    1    4    4  501    0 -0.22714581301E+02  0.63251066201E+02 -0.64161547335E+02  0.93009817416E+02  0.41800000000E+01 0.  1.
         -5    1    4    4    0  501 -0.14945145519E+03  0.57011201614E+02 -0.11844171419E+01  0.16001527993E+03  0.41800000000E+01 0.  1.
</event>
<event>
11    1  0.6625361E-009  0.1368906E+03  0.7561462E-02  0.1111081E+00
         22   -1    0    0    0    0  0.00000000000E+00  0.00000000000E+00  0.15195245857E+04  0.15195245857E+04  0.00000000000E+00 0.  1.
         22   -1    0    0    0    0 -0.00000000000E+00 -0.00000000000E+00 -0.63666695953E+03  0.63666695953E+03  0.00000000000E+00 0. -1.
         24    2    1    2    0    0 -0.54645144541E+02  0.30122325341E+01 -0.56471975240E+03  0.57308947084E+03  0.80795900095E+02 0.  0.
         25    2    1    2    0    0  0.73459255441E+02  0.19107478446E+02  0.13958659607E+02  0.14697943542E+03  0.12508697900E+03 0.  0.
        -24    2    1    2    0    0 -0.18814110900E+02 -0.22119710980E+02  0.14336187190E+04  0.14361226390E+04  0.79638875114E+02 0.  0.
        -11    1    3    3    0    0 -0.60567589269E+01  0.35376493125E+02 -0.14744193213E+03  0.15174750062E+03  0.00000000000E+00 0.  1.
         12    1    3    3    0    0 -0.48588385614E+02 -0.32364260591E+02 -0.41727782027E+03  0.42134197022E+03  0.00000000000E+00 0. -1.
         13    1    5    5    0    0 -0.25109801560E+02  0.24084500446E+02  0.42292743601E+03  0.42435619641E+03  0.00000000000E+00 0. -1.
        -14    1    5    5    0    0  0.62956906594E+01 -0.46204211425E+02  0.10106912829E+04  0.10117664426E+04  0.00000000000E+00 0.  1.
          5    1    4    4  501    0  0.57046389994E+02 -0.49502439089E+02  0.72722176850E+01  0.75994339507E+02  0.41800000000E+01 0. -1.
         -5    1    4    4    0  501  0.16412865447E+02  0.68609917535E+02  0.66864419219E+01  0.70985095914E+02  0.41800000000E+01 0. -1.
</event>
<event>
11    1  0.6625361E-009  0.3402261E+03  0.7561462E-02  0.9844713E-01
         22   -1    0    0    0    0  0.00000000000E+00  0.00000000000E+00  0.12727560600E+04  0.12727560600E+04  0.00000000000E+00 0. -1.
         22   -1    0    0    0    0 -0.00000000000E+00 -0.00000000000E+00 -0.44084279985E+03  0.44084279985E+03  0.00000000000E+00 0. -1.
        -24    2    1    2    0    0  0.35759225808E+02 -0.28676598125E+02 -0.30694383156E+03  0.32039246261E+03  0.79597392276E+02 0.  0.
         25    2    1    2    0    0 -0.30412607156E+03 -0.13206180676E+03  0.21497548729E+03  0.41448197140E+03  0.12509139167E+03 0.  0.
         24    2    1    2    0    0  0.26836684575E+03  0.16073840489E+03  0.92388160438E+03  0.97872442580E+03  0.80539953064E+02 0.  0.
        -13    1    5    5    0    0  0.15279527851E+02  0.13347468168E+02  0.19649246137E+02  0.28243791381E+02  0.00000000000E+00 0.  1.
         14    1    5    5    0    0  0.25308731790E+03  0.14739093672E+03  0.90423235824E+03  0.95048063441E+03  0.00000000000E+00 0. -1.
         13    1    3    3    0    0  0.83972038812E+01 -0.17076212828E+02 -0.27884215045E+03  0.27949070637E+03  0.00000000000E+00 0. -1.
        -14    1    3    3    0    0  0.27362021927E+02 -0.11600385297E+02 -0.28101681109E+02  0.40901756247E+02  0.00000000000E+00 0.  1.
          5    1    4    4  501    0 -0.10986485119E+03 -0.52906293487E+02  0.12070654214E+02  0.12260723678E+03  0.41800000000E+01 0. -1.
         -5    1    4    4    0  501 -0.19426122037E+03 -0.79155513277E+02  0.20290483308E+03  0.29187473462E+03  0.41800000000E+01 0. -1.
</event>
<event>
11    1  0.6625361E-009  0.1570494E+03  0.7561462E-02  0.1089886E+00
         22   -1    0    0    0    0  0.00000000000E+00  0.00000000000E+00  0.14432293196E+03  0.14432293196E+03  0.00000000000E+00 0.  1.
         22   -1    0    0    0    0 -0.00000000000E+00 -0.00000000000E+00 -0.44159234998E+03  0.44159234998E+03  0.00000000000E+00 0.  1.
        -24    2    1    2    0    0  0.39902674547E+01 -0.86865335721E+02 -0.19925589396E+03  0.23294571989E+03  0.83661749622E+02 0.  0.
         25    2    1    2    0    0 -0.23271718242E+02  0.10980196685E+03 -0.17047968621E+03  0.23939217987E+03  0.12508895866E+03 0.  0.
         24    2    1    2    0    0  0.19281450787E+02 -0.22936631130E+02  0.72466162164E+02  0.11357738218E+03  0.82162118351E+02 0.  0.
        -11    1    5    5    0    0  0.17252288025E+02 -0.38827560080E+02  0.83798579115E+02  0.93954365123E+02  0.00000000000E+00 0.  1.
         12    1    5    5    0    0  0.20291627617E+01  0.15890928951E+02 -0.11332416952E+02  0.19623017056E+02  0.00000000000E+00 0. -1.
         13    1    3    3    0    0 -0.23867252276E+02 -0.46356231154E+01 -0.90912488220E+02  0.94107466480E+02  0.00000000000E+00 0. -1.
        -14    1    3    3    0    0  0.27857519731E+02 -0.82229712606E+02 -0.10834340574E+03  0.13883825341E+03  0.00000000000E+00 0.  1.
          5    1    4    4  501    0  0.25235646974E+02  0.61713833525E+02 -0.13514182563E+02  0.68158203152E+02  0.41800000000E+01 0.  1.
         -5    1    4    4    0  501 -0.48507365216E+02  0.48088133326E+02 -0.15696550365E+03  0.17123397672E+03  0.41800000000E+01 0.  1.
</event>
<event>
11    1  0.6625361E-009  0.1312287E+03  0.7561462E-02  0.1117768E+00
         22   -1    0    0    0    0  0.00000000000E+00  0.00000000000E+00  0.23648757452E+03  0.23648757452E+03  0.00000000000E+00 0.  1.
         22   -1    0    0    0    0 -0.00000000000E+00 -0.00000000000E+00 -0.20153590909E+03  0.20153590909E+03  0.00000000000E+00 0. -1.
         24    2    1    2    0    0  0.30575049308E+02 -0.15361942784E+02 -0.10817798726E+03  0.14223995157E+03  0.85784054279E+02 0.  0.
         25    2    1    2    0    0 -0.57326228955E+02  0.30244337161E+02  0.15517722580E+02  0.14173784002E+03  0.12509116325E+03 0.  0.
        -24    2    1    2    0    0  0.26751179647E+02 -0.14882394377E+02  0.12761193010E+03  0.15404569202E+03  0.80673163139E+02 0.  0.
        -13    1    3    3    0    0 -0.21841127877E+02 -0.30614849303E+02 -0.40060421403E+02  0.54946712620E+02  0.00000000000E+00 0.  1.
         14    1    3    3    0    0  0.52416177185E+02  0.15252906519E+02 -0.68117565855E+02  0.87293238947E+02  0.00000000000E+00 0. -1.
         11    1    5    5    0    0 -0.10335772290E+02 -0.40011017674E+02  0.65973342995E+02  0.77847233156E+02  0.00000000000E+00 0. -1.
        -12    1    5    5    0    0  0.37086951937E+02  0.25128623297E+02  0.61638587107E+02  0.76198458864E+02  0.00000000000E+00 0.  1.
          5    1    4    4  501    0 -0.82162036298E+02 -0.10139715747E+02  0.35431643343E+02  0.90145925000E+02  0.41800000000E+01 0. -1.
         -5    1    4    4    0  501  0.24835807343E+02  0.40384052908E+02 -0.19913920763E+02  0.51591915023E+02  0.41800000000E+01 0. -1.
</event>
<event>
11    1  0.6625361E-009  0.1573700E+03  0.7561462E-02  0.1089577E+00
         22   -1    0    0    0    0  0.00000000000E+00  0.00000000000E+00  0.78732080221E+03  0.78732080221E+03  0.00000000000E+00 0.  1.
         22   -1    0    0    0    0 -0.00000000000E+00 -0.00000000000E+00 -0.28170543711E+03  0.28170543711E+03  0.00000000000E+00 0. -1.
         24    2    1    2    0    0  0.94386635694E+02  0.20613639974E+02 -0.15582791759E+03  0.20091235945E+03  0.82156418678E+02 0.  0.
         25    2    1    2    0    0 -0.98721082441E+02  0.51568009078E+02 -0.28316851854E+02  0.16986640192E+03  0.12509052212E+03 0.  0.
        -24    2    1    2    0    0  0.43344467466E+01 -0.72181649051E+02  0.68976013455E+03  0.69824747795E+03  0.80941456424E+02 0.  0.
        -13    1    3    3    0    0  0.27643275779E+02  0.16938197856E+02 -0.11857422633E+01  0.32441627997E+02  0.00000000000E+00 0.  1.
         14    1    3    3    0    0  0.66743359915E+02  0.36754421179E+01 -0.15464217533E+03  0.16847073146E+03  0.00000000000E+00 0. -1.
         13    1    5    5    0    0  0.20605733765E+02  0.10120782910E+02  0.10353841773E+03  0.10605296063E+03  0.00000000000E+00 0. -1.
        -14    1    5    5    0    0 -0.16271287018E+02 -0.82302431961E+02  0.58622171681E+03  0.59219451733E+03  0.00000000000E+00 0.  1.
          5    1    4    4  501    0 -0.88327969465E+02  0.39039091581E+02 -0.73647269026E+02  0.12152067107E+03  0.41800000000E+01 0.  1.
         -5    1    4    4    0  501 -0.10393112976E+02  0.12528917497E+02  0.45330417172E+02  0.48345730856E+02  0.41800000000E+01 0.  1.
</event>
<event>
11    1  0.6625361E-009  0.1505452E+03  0.7561462E-02  0.1096323E+00
         22   -1    0    0    0    0  0.00000000000E+00  0.00000000000E+00  0.11460627617E+03  0.11460627617E+03  0.00000000000E+00 0.  1.
         22   -1    0    0    0    0 -0.00000000000E+00 -0.00000000000E+00 -0.15382391700E+04  0.15382391700E+04  0.00000000000E+00 0.  1.
        -24    2    1    2    0    0 -0.15678455276E+02 -0.82297491210E+02 -0.13951332958E+04  0.13998701095E+04  0.78871537286E+02 0.  0.
         25    2    1    2    0    0  0.48774640879E+02  0.75305736822E+02 -0.46018804273E+02  0.16067199672E+03  0.12509132900E+03 0.  0.
         24    2    1    2    0    0 -0.33096185602E+02  0.69917543890E+01  0.17519206224E+02  0.92303339979E+02  0.84075810158E+02 0.  0.
        -11    1    5    5    0    0 -0.51909549814E+02  0.17045194714E+02 -0.11946187215E+02  0.55927197442E+02  0.00000000000E+00 0.  1.
         12    1    5    5    0    0  0.18813364212E+02 -0.10053440325E+02  0.29465393439E+02  0.36376142537E+02  0.00000000000E+00 0. -1.
         11    1    3    3    0    0 -0.28889241127E+02  0.19262565723E+01 -0.28447766817E+03  0.28594727207E+03  0.00000000000E+00 0. -1.
        -12    1    3    3    0    0  0.13210785851E+02 -0.84223747783E+02 -0.11106556276E+04  0.11139228374E+04  0.00000000000E+00 0.  1.
          5    1    4    4  501    0  0.72309647164E+02  0.50072779817E+01 -0.46866676361E+02  0.86415945629E+02  0.41800000000E+01 0.  1.
         -5    1    4    4    0  501 -0.23535006286E+02  0.70298458840E+02  0.84787208848E+00  0.74256051088E+02  0.41800000000E+01 0.  1.
</event>
<event>
11    1  0.6625361E-009  0.1414541E+03  0.7561462E-02  0.1105945E+00
         22   -1    0    0    0    0  0.00000000000E+00  0.00000000000E+00  0.63651767441E+03  0.63651767441E+03  0.00000000000E+00 0. -1.
         22   -1    0    0    0    0 -0.00000000000E+00 -0.00000000000E+00 -0.38482689677E+03  0.38482689677E+03  0.00000000000E+00 0.  1.
         24    2    1    2    0    0 -0.56569541204E+02 -0.31821844825E+02 -0.33426619257E+03  0.34986868076E+03  0.80383228834E+02 0.  0.
         25    2    1    2    0    0  0.81165134548E+02  0.34791508312E+02  0.10979855717E+03  0.18841765433E+03  0.12508901305E+03 0.  0.
        -24    2    1    2    0    0 -0.24595593344E+02 -0.29696634874E+01  0.47615841304E+03  0.48305823609E+03  0.77489760866E+02 0.  0.
        -13    1    3    3    0    0 -0.76701011918E+02 -0.20948625231E+02 -0.23838145077E+03  0.25129187452E+03  0.00000000000E+00 0.  1.
         14    1    3    3    0    0  0.20131470715E+02 -0.10873219594E+02 -0.95884741803E+02  0.98576806238E+02  0.00000000000E+00 0. -1.
         13    1    5    5    0    0 -0.26447708628E+02 -0.36407184333E+02  0.33347633989E+03  0.33649878697E+03  0.00000000000E+00 0. -1.
        -14    1    5    5    0    0  0.18521152833E+01  0.33437520846E+02  0.14268207314E+03  0.14655944912E+03  0.00000000000E+00 0.  1.
          5    1    4    4  501    0  0.12752031185E+02  0.73201568783E+02  0.49559297788E+02  0.89412976513E+02  0.41800000000E+01 0. -1.
         -5    1    4    4    0  501  0.68413103363E+02 -0.38410060471E+02  0.60239259387E+02  0.99004677812E+02  0.41800000000E+01 0. -1.
</event>
<event>
11    1  0.6625361E-009  0.1330886E+03  0.7561462E-02  0.1115531E+00
         22   -1    0    0    0    0  0.00000000000E+00  0.00000000000E+00  0.71327043855E+02  0.71327043855E+02  0.00000000000E+00 0.  1.
         22   -1    0    0    0    0 -0.00000000000E+00 -0.00000000000E+00 -0.87224353282E+03  0.87224353282E+03  0.00000000000E+00 0. -1.
        -24    2    1    2    0    0 -0.11645143661E+02 -0.33555344089E+02 -0.43859826481E+03  0.44800182354E+03  0.84116737396E+02 0.  0.
         25    2    1    2    0    0  0.26603969070E+02  0.68968139651E+02 -0.37801250245E+03  0.40497581477E+03  0.12509029970E+03 0.  0.
         24    2    1    2    0    0 -0.14958825409E+02 -0.35412795562E+02  0.15694278296E+02  0.90592938372E+02  0.80516691217E+02 0.  0.
        -11    1    5    5    0    0 -0.38787252224E+01 -0.61036359685E+02  0.83533631793E+01  0.61727306675E+02  0.00000000000E+00 0.  1.
         12    1    5    5    0    0 -0.11080100186E+02  0.25623564123E+02  0.73409151166E+01  0.28865631697E+02  0.00000000000E+00 0. -1.
         13    1    3    3    0    0  0.73376738027E+01  0.24576553623E+01 -0.35433888127E+03  0.35442336873E+03  0.00000000000E+00 0. -1.
        -14    1    3    3    0    0 -0.18982817464E+02 -0.36012999452E+02 -0.84259383544E+02  0.93578454804E+02  0.00000000000E+00 0.  1.
          5    1    4    4  501    0 -0.50245921008E+02  0.25971308792E+02 -0.13312045888E+03  0.14469861931E+03  0.41800000000E+01 0. -1.
         -5    1    4    4    0  501  0.76849890078E+02  0.42996830859E+02 -0.24489204357E+03  0.26027719546E+03  0.41800000000E+01 0. -1.
</event>
<event>
11    1  0.6625361E-009  0.2602890E+03  0.7561462E-02  0.1018557E+00
         22   -1    0    0    0    0  0.00000000000E+00  0.00000000000E+00  0.26271296907E+04  0.26271296907E+04  0.00000000000E+00 0. -1.
         22   -1    0    0    0    0 -0.00000000000E+00 -0.00000000000E+00 -0.48891146867E+03  0.48891146867E+03  0.00000000000E+00 0.  1.
         24    2    1    2    0    0 -0.29547467107E+02 -0.16482460414E+02 -0.45764532067E+03  0.46597282105E+03  0.80911718014E+02 0.  0.
         25    2    1    2    0    0  0.17488970082E+03 -0.15676720258E+03  0.91386343822E+03  0.95181590635E+03  0.12507906545E+03 0.  0.
        -24    2    1    2    0    0 -0.14534223371E+03  0.17324966300E+03  0.16820001045E+04  0.16982524320E+04  0.61621105223E+02 0.  0.
        -13    1    3    3    0    0 -0.83067315092E+01  0.16682619470E+02 -0.36276308081E+03  0.36324146842E+03  0.00000000000E+00 0.  1.
         14    1    3    3    0    0 -0.21240735598E+02 -0.33165079884E+02 -0.94882239864E+02  0.10273135263E+03  0.00000000000E+00 0. -1.
         11    1    5    5    0    0 -0.11387060260E+03  0.16566627412E+03  0.13895414072E+04  0.14040075323E+04  0.00000000000E+00 0. -1.
        -12    1    5    5    0    0 -0.31471631115E+02  0.75833888737E+01  0.29245869734E+03  0.29424489970E+03  0.00000000000E+00 0.  1.
          5    1    4    4  501    0  0.16108873347E+03 -0.66501234245E+02  0.57560917896E+03  0.60142779575E+03  0.41800000000E+01 0. -1.
         -5    1    4    4    0  501  0.13800967352E+02 -0.90265968336E+02  0.33825425926E+03  0.35038811059E+03  0.41800000000E+01 0. -1.
</event>
<event>
11    1  0.6625361E-009  0.1272986E+03  0.7561462E-02  0.1122633E+00
         22   -1    0    0    0    0  0.00000000000E+00  0.00000000000E+00  0.90726568652E+03  0.90726568652E+03  0.00000000000E+00 0.  1.
         22   -1    0    0    0    0 -0.00000000000E+00 -0.00000000000E+00 -0.34374583785E+03  0.34374583785E+03  0.00000000000E+00 0. -1.
        -24    2    1    2    0    0 -0.23178438363E+02 -0.68894114596E+01 -0.31775828120E+03  0.33191744369E+03  0.92812500029E+02 0.  0.
         25    2    1    2    0    0 -0.58088909254E+01  0.29546206402E+02  0.23646640078E+03  0.26920328066E+03  0.12508927250E+03 0.  0.
         24    2    1    2    0    0  0.28987329289E+02 -0.22656794942E+02  0.64481172909E+03  0.64989080002E+03  0.72265416085E+02 0.  0.
        -11    1    5    5    0    0  0.35311243796E+02 -0.40608958557E+02  0.57558403956E+03  0.57809424669E+03  0.00000000000E+00 0.  1.
         12    1    5    5    0    0 -0.63239145074E+01  0.17952163615E+02  0.69227689524E+02  0.71796553329E+02  0.00000000000E+00 0. -1.
         11    1    3    3    0    0 -0.68390804235E+01  0.60791121481E+00 -0.31332674395E+03  0.31340196402E+03  0.00000000000E+00 0. -1.
        -12    1    3    3    0    0 -0.16339357940E+02 -0.74973226744E+01 -0.44315372507E+01  0.18515479674E+02  0.00000000000E+00 0.  1.
          5    1    4    4  501    0 -0.20999678614E+02  0.73963589562E+02  0.17916287399E+03  0.19500873544E+03  0.41800000000E+01 0. -1.
         -5    1    4    4    0  501  0.15190787688E+02 -0.44417383160E+02  0.57303526784E+02  0.74194545212E+02  0.41800000000E+01 0. -1.
</event>
<event>
11    1  0.6625361E-009  0.1383537E+03  0.7561462E-02  0.1109411E+00
         22   -1    0    0    0    0  0.00000000000E+00  0.00000000000E+00  0.15895595177E+03  0.15895595177E+03  0.00000000000E+00 0. -1.
         22   -1    0    0    0    0 -0.00000000000E+00 -0.00000000000E+00 -0.31675514448E+03  0.31675514448E+03  0.00000000000E+00 0. -1.
        -24    2    1    2    0    0  0.31338232717E+02 -0.22666152906E+02 -0.20188576122E+03  0.22005355399E+03  0.78548499169E+02 0.  0.
         25    2    1    2    0    0 -0.67089922518E+02  0.55736822171E+02 -0.17817237436E+01  0.15250736989E+03  0.12509065625E+03 0.  0.
         24    2    1    2    0    0  0.35751689802E+02 -0.33070669265E+02  0.45868292262E+02  0.10315017237E+03  0.78512453383E+02 0.  0.
        -11    1    5    5    0    0  0.16922252831E+02 -0.36438269066E+02 -0.12220152186E+02  0.41993359151E+02  0.00000000000E+00 0.  1.
         12    1    5    5    0    0  0.18829436971E+02  0.33675998007E+01  0.58088444448E+02  0.61156813222E+02  0.00000000000E+00 0. -1.
         11    1    3    3    0    0  0.28441120277E+02 -0.37852170163E+02 -0.19870755926E+03  0.20427035570E+03  0.00000000000E+00 0. -1.
        -12    1    3    3    0    0  0.28971124395E+01  0.15186017257E+02 -0.31782019595E+01  0.15783198292E+02  0.00000000000E+00 0.  1.
          5    1    4    4  501    0 -0.51997351498E+02  0.27342234392E+02  0.59157938645E+02  0.83477281036E+02  0.41800000000E+01 0.  1.
         -5    1    4    4    0  501 -0.15092571020E+02  0.28394587779E+02 -0.60939662389E+02  0.69030088854E+02  0.41800000000E+01 0.  1.
</event>
<event>
11    1  0.6625361E-009  0.1252945E+03  0.7561462E-02  0.1125189E+00
         22   -1    0    0    0    0  0.00000000000E+00  0.00000000000E+00  0.13017441184E+03  0.13017441184E+03  0.00000000000E+00 0. -1.
         22   -1    0    0    0    0 -0.00000000000E+00 -0.00000000000E+00 -0.30304484460E+03  0.30304484460E+03  0.00000000000E+00 0.  1.
         24    2    1    2    0    0 -0.40060981170E+01  0.28374121450E+01 -0.17291732857E+03  0.19042640480E+03  0.79609756919E+02 0.  0.
         25    2    1    2    0    0  0.29886035336E+00 -0.89486667500E+01 -0.62759778330E+02  0.14023240372E+03  0.12508464863E+03 0.  0.
        -24    2    1    2    0    0  0.37072377636E+01  0.61112546050E+01  0.62806674135E+02  0.10256044792E+03  0.80764324529E+02 0.  0.
        -13    1    3    3    0    0 -0.38365519472E+02  0.15993190096E+02 -0.10929330018E+03  0.11693040955E+03  0.00000000000E+00 0.  1.
         14    1    3    3    0    0  0.34359421355E+02 -0.13155777951E+02 -0.63624028393E+02  0.73495995253E+02  0.00000000000E+00 0. -1.
         11    1    5    5    0    0  0.78748075325E+01  0.38038489348E+02  0.58289319495E+02  0.70047013018E+02  0.00000000000E+00 0. -1.
        -12    1    5    5    0    0 -0.41675697689E+01 -0.31927234743E+02  0.45173546400E+01  0.32513434901E+02  0.00000000000E+00 0.  1.
          5    1    4    4  501    0  0.34825712532E+02  0.43876123359E+02 -0.51064316321E+02  0.75914302049E+02  0.41800000000E+01 0.  1.
         -5    1    4    4    0  501 -0.34526852178E+02 -0.52824790109E+02 -0.11695462009E+02  0.64318101674E+02  0.41800000000E+01 0.  1.
</event>
<event>
11    1  0.6625361E-009  0.1274338E+03  0.7561462E-02  0.1122463E+00
         22   -1    0    0    0    0  0.00000000000E+00  0.00000000000E+00  0.73712275854E+03  0.73712275854E+03  0.00000000000E+00 0. -1.
         22   -1    0    0    0    0 -0.00000000000E+00 -0.00000000000E+00 -0.16009987349E+03  0.16009987349E+03  0.00000000000E+00 0.  1.
         24    2    1    2    0    0 -0.33897675411E+01 -0.97936501896E+01 -0.74616344178E+02  0.11144483696E+03  0.82127624823E+02 0.  0.
         25    2    1    2    0    0  0.41389337549E+01 -0.14891904479E+02 -0.26274897269E+01  0.12607321799E+03  0.12509457622E+03 0.  0.
        -24    2    1    2    0    0 -0.74916621381E+00  0.24685554668E+02  0.65426671895E+03  0.65970457708E+03  0.80840903198E+02 0.  0.
        -11    1    3    3    0    0  0.46995185578E+01  0.19792216746E+01 -0.90177584235E+02  0.90321644646E+02  0.00000000000E+00 0.  1.
         12    1    3    3    0    0 -0.80892860988E+01 -0.11772871864E+02  0.15561240057E+02  0.21123192316E+02  0.00000000000E+00 0. -1.
         11    1    5    5    0    0 -0.14760516211E+02  0.44286728171E+02  0.57411558187E+03  0.57601031977E+03  0.00000000000E+00 0. -1.
        -12    1    5    5    0    0  0.14011349997E+02 -0.19601173503E+02  0.80151137081E+02  0.83694257311E+02  0.00000000000E+00 0.  1.
          5    1    4    4  501    0 -0.49965419627E+02  0.27405063225E+02  0.13405749707E+01  0.57156366139E+02  0.41800000000E+01 0. -1.
         -5    1    4    4    0  501  0.54104353382E+02 -0.42296967704E+02 -0.39680646976E+01  0.68916851853E+02  0.41800000000E+01 0. -1.
</event>
<event>
11    1  0.6625361E-009  0.1558854E+03  0.7561462E-02  0.1091012E+00
         22   -1    0    0    0    0  0.00000000000E+00  0.00000000000E+00  0.20351407731E+04  0.20351407731E+04  0.00000000000E+00 0. -1.
         22   -1    0    0    0    0 -0.00000000000E+00 -0.00000000000E+00 -0.45957942218E+02  0.45957942218E+02  0.00000000000E+00 0.  1.
        -24    2    1    2    0    0  0.34652257201E+02 -0.71339925994E+02  0.10857154682E+03  0.16477835687E+03  0.95257346925E+02 0.  0.
         25    2    1    2    0    0 -0.81155513566E+02  0.14794079620E+03  0.73873019328E+03  0.76801205203E+03  0.12509003576E+03 0.  0.
         24    2    1    2    0    0  0.46503256365E+02 -0.76600870205E+02  0.11418810907E+04  0.11483083064E+04  0.81788109936E+02 0.  0.
        -13    1    5    5    0    0  0.56952211984E+02 -0.15726673237E+02  0.50757918631E+03  0.51100637283E+03  0.00000000000E+00 0.  1.
         14    1    5    5    0    0 -0.10448955619E+02 -0.60874196968E+02  0.63430190443E+03  0.63730193354E+03  0.00000000000E+00 0. -1.
         13    1    3    3    0    0  0.84281597323E+01 -0.54880866080E+02  0.11964128803E+03  0.13189761613E+03  0.00000000000E+00 0. -1.
        -14    1    3    3    0    0  0.26224097469E+02 -0.16459059914E+02 -0.11069741209E+02  0.32880740742E+02  0.00000000000E+00 0.  1.
          5    1    4    4  501    0 -0.56462699357E+02  0.11179662423E+03  0.27506068042E+03  0.30226209144E+03  0.41800000000E+01 0. -1.
         -5    1    4    4    0  501 -0.24692814210E+02  0.36144171970E+02  0.46366951285E+03  0.46574996059E+03  0.41800000000E+01 0. -1.
</event>
<event>
11    1  0.6625361E-009  0.1383428E+03  0.7561462E-02  0.1109423E+00
         22   -1    0    0    0    0  0.00000000000E+00  0.00000000000E+00  0.49007640748E+03  0.49007640748E+03  0.00000000000E+00 0. -1.
         22   -1    0    0    0    0 -0.00000000000E+00 -0.00000000000E+00 -0.56612715144E+03  0.56612715144E+03  0.00000000000E+00 0.  1.
        -24    2    1    2    0    0  0.59912311228E+02 -0.13557100082E+02 -0.36704069182E+03  0.38043539209E+03  0.78986948934E+02 0.  0.
         25    2    1    2    0    0 -0.31727726022E+01 -0.83823672874E+01 -0.16580795473E+03  0.20789497765E+03  0.12509082027E+03 0.  0.
         24    2    1    2    0    0 -0.56739538626E+02  0.21939467370E+02  0.45679790259E+03  0.46787318918E+03  0.80872009215E+02 0.  0.
        -11    1    5    5    0    0 -0.51847282246E+02 -0.58774992675E+01  0.13336337202E+03  0.14320780241E+03  0.00000000000E+00 0.  1.
         12    1    5    5    0    0 -0.48922563793E+01  0.27816966637E+02  0.32343453057E+03  0.32466538677E+03  0.00000000000E+00 0. -1.
         13    1    3    3    0    0  0.15794970684E+02 -0.13210817136E+02 -0.14595479695E+02  0.25239548646E+02  0.00000000000E+00 0. -1.
        -14    1    3    3    0    0  0.44117340544E+02 -0.34628294570E+00 -0.35244521213E+03  0.35519584344E+03  0.00000000000E+00 0.  1.
          5    1    4    4  501    0  0.83022515752E+01  0.42463928470E+02 -0.11496461740E+02  0.44963914808E+02  0.41800000000E+01 0. -1.
         -5    1    4    4    0  501 -0.11475024177E+02 -0.50846295757E+02 -0.15431149299E+03  0.16293106285E+03  0.41800000000E+01 0. -1.
</event>
<event>
11    1  0.6625361E-009  0.1793677E+03  0.7561462E-02  0.1070155E+00
         22   -1    0    0    0    0  0.00000000000E+00  0.00000000000E+00  0.27595857830E+03  0.27595857830E+03  0.00000000000E+00 0. -1.
         22   -1    0    0    0    0 -0.00000000000E+00 -0.00000000000E+00 -0.41603503371E+03  0.41603503371E+03  0.00000000000E+00 0.  1.
        -24    2    1    2    0    0 -0.42561487794E+02 -0.97342252886E+02 -0.14285467155E+03  0.19493568216E+03  0.79406980515E+02 0.  0.
         25    2    1    2    0    0  0.11026778152E+03  0.13543307090E+03 -0.18191410029E+03  0.28150032937E+03  0.12509434525E+03 0.  0.
         24    2    1    2    0    0 -0.67706293722E+02 -0.38090818016E+02  0.18469231643E+03  0.21555760048E+03  0.79490721160E+02 0.  0.
        -13    1    5    5    0    0 -0.17205746972E+02 -0.45762573606E+02  0.43613594760E+02  0.65516383598E+02  0.00000000000E+00 0.  1.
         14    1    5    5    0    0 -0.50500546750E+02  0.76717555899E+01  0.14107872167E+03  0.15004121689E+03  0.00000000000E+00 0. -1.
         13    1    3    3    0    0  0.91684006194E+01 -0.94735583824E+01  0.60177427134E+01  0.14492104944E+02  0.00000000000E+00 0. -1.
        -14    1    3    3    0    0 -0.51729888413E+02 -0.87868694504E+02 -0.14887241427E+03  0.18044357722E+03  0.00000000000E+00 0.  1.
          5    1    4    4  501    0  0.13117195053E+03  0.13558334466E+03 -0.14167311467E+03  0.23596115735E+03  0.41800000000E+01 0.  1.
         -5    1    4    4    0  501 -0.20904169018E+02 -0.15027375686E+00 -0.40240985623E+02  0.45539172022E+02  0.41800000000E+01 0.  1.
</event>
<event>
11    1  0.6625361E-009  0.1577339E+03  0.7561462E-02  0.1089228E+00
         22   -1    0    0    0    0  0.00000000000E+00  0.00000000000E+00  0.27659735202E+03  0.27659735202E+03  0.00000000000E+00 0. -1.
         22   -1    0    0    0    0 -0.00000000000E+00 -0.00000000000E+00 -0.22427610270E+04  0.22427610270E+04  0.00000000000E+00 0.  1.
         24    2    1    2    0    0 -0.21976423345E+02 -0.94633296654E+02 -0.20630898265E+04  0.20667427737E+04  0.75150757588E+02 0.  0.
         25    2    1    2    0    0  0.99800647376E+02  0.47584495733E+02 -0.11864667822E+03  0.20482282942E+03  0.12510357208E+03 0.  0.
        -24    2    1    2    0    0 -0.77824224030E+02  0.47048800921E+02  0.21557282977E+03  0.24779277589E+03  0.81605240846E+02 0.  0.
        -11    1    3    3    0    0  0.16873312657E+02 -0.54752236343E+02 -0.14495963907E+04  0.14507281661E+04  0.00000000000E+00 0.  1.
         12    1    3    3    0    0 -0.38849736002E+02 -0.39881060311E+02 -0.61349343586E+03  0.61601460762E+03  0.00000000000E+00 0. -1.
         13    1    5    5    0    0 -0.89825270754E+02  0.23798107119E+02  0.18840076039E+03  0.21007088252E+03  0.00000000000E+00 0. -1.
        -14    1    5    5    0    0  0.12001046724E+02  0.23250693802E+02  0.27172069382E+02  0.37721893368E+02  0.00000000000E+00 0.  1.
          5    1    4    4  501    0  0.99133397536E+02  0.39487591779E+02 -0.14319414555E+03  0.17863016579E+03  0.41800000000E+01 0. -1.
         -5    1    4    4    0  501  0.66724983931E+00  0.80969039536E+01  0.24547467325E+02  0.26192663630E+02  0.41800000000E+01 0. -1.
</event>
<event>
11    1  0.6625361E-009  0.1526815E+03  0.7561462E-02  0.1094170E+00
         22   -1    0    0    0    0  0.00000000000E+00  0.00000000000E+00  0.10736069629E+04  0.10736069629E+04  0.00000000000E+00 0.  1.
         22   -1    0    0    0    0 -0.00000000000E+00 -0.00000000000E+00 -0.49676990624E+03  0.49676990624E+03  0.00000000000E+00 0.  1.
        -24    2    1    2    0    0  0.82848949214E+02  0.29096794429E+02 -0.42776680049E+03  0.44380493108E+03  0.79169497986E+02 0.  0.
         25    2    1    2    0    0 -0.84928310393E+02 -0.12489031834E+02  0.37872435019E+02  0.15636488829E+03  0.12508742196E+03 0.  0.
         24    2    1    2    0    0  0.20793611789E+01 -0.16607762595E+02  0.96673142208E+03  0.97020704973E+03  0.80323940268E+02 0.  0.
        -13    1    5    5    0    0 -0.30910463020E+02  0.15067017972E+02  0.52162565222E+03  0.52275787207E+03  0.00000000000E+00 0.  1.
         14    1    5    5    0    0  0.32989824199E+02 -0.31674780567E+02  0.44510576986E+03  0.44744917766E+03  0.00000000000E+00 0. -1.
         11    1    3    3    0    0  0.31067599564E+02  0.48692564353E+02 -0.15353612392E+03  0.16404116226E+03  0.00000000000E+00 0. -1.
        -12    1    3    3    0    0  0.51781349650E+02 -0.19595769924E+02 -0.27423067657E+03  0.27976376882E+03  0.00000000000E+00 0.  1.
          5    1    4    4  501    0 -0.48930804145E+02 -0.61348114733E+02 -0.96469992585E+01  0.79172923214E+02  0.41800000000E+01 0. -1.
         -5    1    4    4    0  501 -0.35997506247E+02  0.48859082899E+02  0.47519434278E+02  0.77191965073E+02  0.41800000000E+01 0. -1.
</event>
<event>
11    1  0.6625361E-009  0.1585731E+03  0.7561462E-02  0.1088427E+00
         22   -1    0    0    0    0  0.00000000000E+00  0.00000000000E+00  0.27020597138E+03  0.27020597138E+03  0.00000000000E+00 0. -1.
         22   -1    0    0    0    0 -0.00000000000E+00 -0.00000000000E+00 -0.19448613845E+04  0.19448613845E+04  0.00000000000E+00 0. -1.
         24    2    1    2    0    0 -0.58144042360E+01 -0.81844110388E+02 -0.15534455661E+04  0.15577592577E+04  0.81783325024E+02 0.  0.
         25    2    1    2    0    0 -0.75212119224E+02  0.23916567532E+02 -0.35838386747E+03  0.38770468810E+03  0.12508822338E+03 0.  0.
        -24    2    1    2    0    0  0.81026523460E+02  0.57927542856E+02  0.23717402048E+03  0.26960341009E+03  0.80706784195E+02 0.  0.
        -11    1    3    3    0    0  0.33140534800E+02 -0.19690301852E+02 -0.35906113043E+03  0.36112449158E+03  0.00000000000E+00 0.  1.
         12    1    3    3    0    0 -0.38954939036E+02 -0.62153808536E+02 -0.11943844357E+04  0.11966347661E+04  0.00000000000E+00 0. -1.
         13    1    5    5    0    0  0.66197620318E+02  0.73323708944E+02  0.22314960135E+03  0.24403736561E+03  0.00000000000E+00 0. -1.
        -14    1    5    5    0    0  0.14828903142E+02 -0.15396166088E+02  0.14024419133E+02  0.25566044485E+02  0.00000000000E+00 0.  1.
          5    1    4    4  501    0 -0.39883649748E+02 -0.51038533479E+02 -0.16104206939E+03  0.17363080927E+03  0.41800000000E+01 0. -1.
         -5    1    4    4    0  501 -0.35328469476E+02  0.74955101011E+02 -0.19734179809E+03  0.21407387882E+03  0.41800000000E+01 0. -1.
</event>
<event>
11    1  0.6625361E-009  0.1902623E+03  0.7561462E-02  0.1061631E+00
         22   -1    0    0    0    0  0.00000000000E+00  0.00000000000E+00  0.57787298996E+02  0.57787298996E+02  0.00000000000E+00 0.  1.
         22   -1    0    0    0    0 -0.00000000000E+00 -0.00000000000E+00 -0.39282977675E+04  0.39282977675E+04  0.00000000000E+00 0.  1.
         24    2    1    2    0    0  0.11936860628E+03 -0.33396268879E+02 -0.22052858899E+04  0.22101957298E+04  0.79467808697E+02 0.  0.
         25    2    1    2    0    0 -0.21918525271E+03  0.42277456280E+02 -0.16212593616E+04  0.16413282516E+04  0.12508778419E+03 0.  0.
        -24    2    1    2    0    0  0.99816646425E+02 -0.88811874017E+01 -0.43965217031E+02  0.13456108514E+03  0.78303939443E+02 0.  0.
        -13    1    3    3    0    0  0.77276496621E+02  0.70689843007E+01 -0.16555876402E+04  0.16574052195E+04  0.00000000000E+00 0.  1.
         14    1    3    3    0    0  0.42092109662E+02 -0.40465253180E+02 -0.54969824974E+03  0.55279051021E+03  0.00000000000E+00 0. -1.
         13    1    5    5    0    0  0.23197341644E+02  0.25701504961E+02 -0.36278657937E+02  0.50148031251E+02  0.00000000000E+00 0. -1.
        -14    1    5    5    0    0  0.76619304781E+02 -0.34582692363E+02 -0.76865590934E+01  0.84413053889E+02  0.00000000000E+00 0.  1.
          5    1    4    4  501    0 -0.56499939198E+02 -0.32156429388E+02 -0.24618633494E+03  0.25465950402E+03  0.41800000000E+01 0. -1.
         -5    1    4    4    0  501 -0.16268531351E+03  0.74433885669E+02 -0.13750730267E+04  0.13866687476E+04  0.41800000000E+01 0. -1.
</event>
<event>
11    1  0.6625361E-009  0.1324411E+03  0.7561462E-02  0.1116306E+00
         22   -1    0    0    0    0  0.00000000000E+00  0.00000000000E+00  0.29327160666E+04  0.29327160666E+04  0.00000000000E+00 0. -1.
         22   -1    0    0    0    0 -0.00000000000E+00 -0.00000000000E+00 -0.11982197239E+03  0.11982197239E+03  0.00000000000E+00 0. -1.
         24    2    1    2    0    0  0.22432030114E+02  0.25800987699E+02 -0.97621245073E+02  0.13016758420E+03  0.79024082060E+02 0.  0.
         25    2    1    2    0    0  0.19858823693E+02 -0.41970124067E+02  0.91565693657E+03  0.92532716904E+03  0.12508748970E+03 0.  0.
        -24    2    1    2    0    0 -0.42290853807E+02  0.16169136368E+02  0.19948584027E+04  0.19970432858E+04  0.81681582876E+02 0.  0.
        -11    1    3    3    0    0  0.34169185479E+02 -0.17071537030E+02 -0.27201264219E+02  0.46892210312E+02  0.00000000000E+00 0.  1.
         12    1    3    3    0    0 -0.11737155364E+02  0.42872524729E+02 -0.70419980854E+02  0.83275373887E+02  0.00000000000E+00 0. -1.
         13    1    5    5    0    0  0.19104744298E+01  0.33505572706E+02  0.13591553140E+04  0.13595695793E+04  0.00000000000E+00 0. -1.
        -14    1    5    5    0    0 -0.44201328237E+02 -0.17336436338E+02  0.63570308877E+03  0.63747370653E+03  0.00000000000E+00 0.  1.
          5    1    4    4  501    0 -0.51600719671E+02 -0.27860546253E+02  0.33710325794E+03  0.34219135469E+03  0.41800000000E+01 0.  1.
         -5    1    4    4    0  501  0.71459543364E+02 -0.14109577813E+02  0.57855367863E+03  0.58313581435E+03  0.41800000000E+01 0.  1.
</event>
<event>
11    1  0.6625361E-009  0.1465688E+03  0.7561462E-02  0.1100437E+00
         22   -1    0    0    0    0  0.00000000000E+00  0.00000000000E+00  0.13758404626E+03  0.13758404626E+03  0.00000000000E+00 0. -1.
         22   -1    0    0    0    0 -0.00000000000E+00 -0.00000000000E+00 -0.27989716615E+03  0.27989716615E+03  0.00000000000E+00 0. -1.
        -24    2    1    2    0    0 -0.71472414522E+02  0.10259749177E+02 -0.10085477673E+03  0.14747991824E+03  0.79781400105E+02 0.  0.
         25    2    1    2    0    0  0.71901525613E+02 -0.63538720955E+02 -0.65306304694E+02  0.17064362842E+03  0.12508931226E+03 0.  0.
         24    2    1    2    0    0 -0.42911109046E+00  0.53278971778E+02  0.23847961531E+02  0.99357665759E+02  0.80401414825E+02 0.  0.
        -11    1    5    5    0    0 -0.15894932437E+01 -0.30236680653E+01 -0.24742857645E+02  0.24977551157E+02  0.00000000000E+00 0.  1.
         12    1    5    5    0    0  0.11603821532E+01  0.56302639843E+02  0.48590819176E+02  0.74380114602E+02  0.00000000000E+00 0. -1.
         11    1    3    3    0    0 -0.42659970665E+02 -0.97231019229E+00 -0.10766666121E+03  0.11581419783E+03  0.00000000000E+00 0. -1.
        -12    1    3    3    0    0 -0.28812443857E+02  0.11232059369E+02  0.68118844740E+01  0.31665720405E+02  0.00000000000E+00 0.  1.
          5    1    4    4  501    0  0.21235548979E+01 -0.38537326541E+02  0.30549872503E+02  0.49400426439E+02  0.41800000000E+01 0. -1.
         -5    1    4    4    0  501  0.69777970715E+02 -0.25001394414E+02 -0.95856177197E+02  0.12124320198E+03  0.41800000000E+01 0. -1.
</event>
<event>
11    1  0.6625361E-009  0.1337835E+03  0.7561462E-02  0.1114706E+00
         22   -1    0    0    0    0  0.00000000000E+00  0.00000000000E+00  0.60515656124E+03  0.60515656124E+03  0.00000000000E+00 0.  1.
         22   -1    0    0    0    0 -0.00000000000E+00 -0.00000000000E+00 -0.12055549735E+04  0.12055549735E+04  0.00000000000E+00 0. -1.
         24    2    1    2    0    0 -0.40990307803E+02 -0.35605591805E+02 -0.88987099437E+03  0.89520927049E+03  0.81125137026E+02 0.  0.
         25    2    1    2    0    0  0.46743205574E+01  0.16397418266E+02 -0.29668093546E+03  0.32242342575E+03  0.12508622389E+03 0.  0.
        -24    2    1    2    0    0  0.36315987245E+02  0.19208173540E+02  0.58615351761E+03  0.59307883847E+03  0.80490729773E+02 0.  0.
        -13    1    3    3    0    0 -0.52127872146E+02 -0.50240860495E+01 -0.30734421576E+03  0.31177399420E+03  0.00000000000E+00 0.  1.
         14    1    3    3    0    0  0.11137564343E+02 -0.30581505756E+02 -0.58252677860E+03  0.58343527629E+03  0.00000000000E+00 0. -1.
         11    1    5    5    0    0 -0.13342888306E+02  0.15429539973E+02  0.42424617001E+02  0.47073894037E+02  0.00000000000E+00 0. -1.
        -12    1    5    5    0    0  0.49658875552E+02  0.37786335668E+01  0.54372890061E+03  0.54600494443E+03  0.00000000000E+00 0.  1.
          5    1    4    4  501    0  0.46310648736E+02 -0.36270434732E+02 -0.13973611431E+03  0.15167028273E+03  0.41800000000E+01 0. -1.
         -5    1    4    4    0  501 -0.41636328179E+02  0.52667852998E+02 -0.15694482116E+03  0.17075314302E+03  0.41800000000E+01 0. -1.
</event>
<event>
11    1  0.6625361E-009  0.1303863E+03  0.7561462E-02  0.1118795E+00
         22   -1    0    0    0    0  0.00000000000E+00  0.00000000000E+00  0.40900269329E+03  0.40900269329E+03  0.00000000000E+00 0.  1.
         22   -1    0    0    0    0 -0.00000000000E+00 -0.00000000000E+00 -0.16216461996E+03  0.16216461996E+03  0.00000000000E+00 0.  1.
        -24    2    1    2    0    0 -0.70250483594E+01 -0.36428692199E+02 -0.11475469117E+03  0.14403418979E+03  0.78745207881E+02 0.  0.
         25    2    1    2    0    0  0.12402009429E+02  0.31204111094E+02  0.13721377826E+03  0.18869044408E+03  0.12509578872E+03 0.  0.
         24    2    1    2    0    0 -0.53769610700E+01  0.52245811056E+01  0.22437898623E+03  0.23844267938E+03  0.80329159900E+02 0.  0.
        -11    1    5    5    0    0 -0.31958447708E+02  0.12521122345E+02  0.19561397788E+03  0.19860249048E+03  0.00000000000E+00 0.  1.
         12    1    5    5    0    0  0.26581486638E+02 -0.72965412397E+01  0.28765008356E+02  0.39840188901E+02  0.00000000000E+00 0. -1.
         11    1    3    3    0    0 -0.22207483147E+01  0.16597689624E+02  0.84006167889E+00  0.16766655229E+02  0.00000000000E+00 0. -1.
        -12    1    3    3    0    0 -0.48043000446E+01 -0.53026381823E+02 -0.11559475284E+03  0.12726753456E+03  0.00000000000E+00 0.  1.
          5    1    4    4  501    0  0.24329039559E+02  0.13922547177E+02  0.15700021710E+03  0.15953770731E+03  0.41800000000E+01 0. -1.
         -5    1    4    4    0  501 -0.11927030129E+02  0.17281563917E+02 -0.19786438837E+02  0.29152736767E+02  0.41800000000E+01 0. -1.
</event>
<event>
11    1  0.6625361E-009  0.2585385E+03  0.7561462E-02  0.1019446E+00
         22   -1    0    0    0    0  0.00000000000E+00  0.00000000000E+00  0.33335612036E+03  0.33335612036E+03  0.00000000000E+00 0. -1.
         22   -1    0    0    0    0 -0.00000000000E+00 -0.00000000000E+00 -0.14552073742E+04  0.14552073742E+04  0.00000000000E+00 0.  1.
         24    2    1    2    0    0  0.90632282454E+02 -0.19618036308E+02 -0.12559659260E+04  0.12628996669E+04  0.94159882518E+02 0.  0.
         25    2    1    2    0    0 -0.43522448384E+02 -0.21541485226E+03  0.41412684442E+02  0.25624149906E+03  0.12508770252E+03 0.  0.
        -24    2    1    2    0    0 -0.47109834070E+02  0.23503288857E+03  0.92701987721E+02  0.26942232857E+03  0.80838959864E+02 0.  0.
        -13    1    3    3    0    0  0.83026666241E+02 -0.81535385612E+01 -0.12350507075E+04  0.12378651613E+04  0.00000000000E+00 0.  1.
         14    1    3    3    0    0  0.76056162130E+01 -0.11464497747E+02 -0.20915218531E+02  0.25034505642E+02  0.00000000000E+00 0. -1.
         11    1    5    5    0    0 -0.45009683728E+02  0.22231246357E+03  0.10646287152E+03  0.25056545273E+03  0.00000000000E+00 0. -1.
        -12    1    5    5    0    0 -0.21001503422E+01  0.12720424997E+02 -0.13760883803E+02  0.18856875844E+02  0.00000000000E+00 0.  1.
          5    1    4    4  501    0 -0.31316436594E+02 -0.19591107436E+03 -0.11104918027E+02  0.19875276064E+03  0.41800000000E+01 0. -1.
         -5    1    4    4    0  501 -0.12206011790E+02 -0.19503777897E+02  0.52517602469E+02  0.57488738420E+02  0.41800000000E+01 0. -1.
</event>
<event>
11    1  0.6625361E-009  0.1677417E+03  0.7561462E-02  0.1080014E+00
         22   -1    0    0    0    0  0.00000000000E+00  0.00000000000E+00  0.17910309357E+03  0.17910309357E+03  0.00000000000E+00 0.  1.
         22   -1    0    0    0    0 -0.00000000000E+00 -0.00000000000E+00 -0.20969925873E+04  0.20969925873E+04  0.00000000000E+00 0. -1.
         24    2    1    2    0    0  0.66921414432E+02  0.89436861542E+02 -0.19343396976E+04  0.19393419460E+04  0.83064370679E+02 0.  0.
         25    2    1    2    0    0 -0.54822540145E+02 -0.99715030476E+02 -0.97650213127E+02  0.19527604458E+03  0.12509424948E+03 0.  0.
        -24    2    1    2    0    0 -0.12098874286E+02  0.10278168933E+02  0.11410041701E+03  0.14147769034E+03  0.82127998789E+02 0.  0.
        -13    1    3    3    0    0 -0.43879869538E+01  0.12842698761E+02 -0.42594777958E+02  0.44704635668E+02  0.00000000000E+00 0.  1.
         14    1    3    3    0    0  0.71309401386E+02  0.76594162782E+02 -0.18917449197E+04  0.18946373103E+04  0.00000000000E+00 0. -1.
         13    1    5    5    0    0  0.42920072608E+00  0.45562978165E+02  0.53852289806E+02  0.70542457498E+02  0.00000000000E+00 0. -1.
        -14    1    5    5    0    0 -0.12528075013E+02 -0.35284809232E+02  0.60248127204E+02  0.70935232837E+02  0.00000000000E+00 0.  1.
          5    1    4    4  501    0 -0.30054743170E+02 -0.11266554580E+03 -0.11358178896E+03  0.16283460314E+03  0.41800000000E+01 0. -1.
         -5    1    4    4    0  501 -0.24767796976E+02  0.12950515327E+02  0.15931575828E+02  0.32441441439E+02  0.41800000000E+01 0. -1.
</event>
<event>
11    1  0.6625361E-009  0.1697299E+03  0.7561462E-02  0.1078267E+00
         22   -1    0    0    0    0  0.00000000000E+00  0.00000000000E+00  0.10312547858E+03  0.10312547858E+03  0.00000000000E+00 0. -1.
         22   -1    0    0    0    0 -0.00000000000E+00 -0.00000000000E+00 -0.16303695629E+04  0.16303695629E+04  0.00000000000E+00 0. -1.
        -24    2    1    2    0    0 -0.13480639297E+02  0.42196786066E+02 -0.12265407956E+04  0.12301224480E+04  0.82683839307E+02 0.  0.
         25    2    1    2    0    0  0.72324626143E+01 -0.15018176605E+03 -0.31034157557E+03  0.36683327335E+03  0.12509150867E+03 0.  0.
         24    2    1    2    0    0  0.62481766824E+01  0.10798497998E+03  0.96382868567E+01  0.13653932018E+03  0.82766501490E+02 0.  0.
        -11    1    5    5    0    0  0.28747956084E+02  0.26904335183E+02  0.30549445530E+02  0.49835297259E+02  0.00000000000E+00 0.  1.
         12    1    5    5    0    0 -0.22499779402E+02  0.81080644799E+02 -0.20911158674E+02  0.86704022924E+02  0.00000000000E+00 0. -1.
         11    1    3    3    0    0 -0.42028153027E+02  0.46223069935E+02 -0.95900978498E+03  0.96104250974E+03  0.00000000000E+00 0. -1.
        -12    1    3    3    0    0  0.28547513730E+02 -0.40262838689E+01 -0.26753101062E+03  0.26907993821E+03  0.00000000000E+00 0.  1.
          5    1    4    4  501    0  0.22296827516E+02 -0.12141508863E+03 -0.31042194528E+03  0.33409284455E+03  0.41800000000E+01 0.  1.
         -5    1    4    4    0  501 -0.15064364902E+02 -0.28766677414E+02  0.80369705265E-01  0.32740428809E+02  0.41800000000E+01 0.  1.
</event>
<event>
11    1  0.6625361E-009  0.5040313E+03  0.7561462E-02  0.9384558E-01
         22   -1    0    0    0    0  0.00000000000E+00  0.00000000000E+00  0.20918177546E+04  0.20918177546E+04  0.00000000000E+00 0.  1.
         22   -1    0    0    0    0 -0.00000000000E+00 -0.00000000000E+00 -0.25521599723E+03  0.25521599723E+03  0.00000000000E+00 0. -1.
        -24    2    1    2    0    0 -0.24978632652E+03 -0.21137910129E+03 -0.95668513175E+02  0.35010713636E+03  0.79675649606E+02 0.  0.
         25    2    1    2    0    0 -0.36533069607E+02  0.14970116955E+03  0.67575795670E+03  0.70430192570E+03  0.12508909292E+03 0.  0.
         24    2    1    2    0    0  0.28631939613E+03  0.61677931747E+02  0.12565123138E+04  0.12926246898E+04  0.79198673411E+02 0.  0.
        -13    1    5    5    0    0  0.17144724354E+03  0.66209664423E+02  0.65871891754E+03  0.68387753970E+03  0.00000000000E+00 0.  1.
         14    1    5    5    0    0  0.11487215259E+03 -0.45317326759E+01  0.59779339631E+03  0.60874715007E+03  0.00000000000E+00 0. -1.
         13    1    3    3    0    0 -0.25409820434E+03 -0.21111847995E+03 -0.88957802240E+02  0.34212629336E+03  0.00000000000E+00 0. -1.
        -14    1    3    3    0    0  0.43118778228E+01 -0.26062134096E+00 -0.67107109341E+01  0.79808430058E+01  0.00000000000E+00 0.  1.
          5    1    4    4  501    0 -0.44048825461E+02  0.78091233445E+02  0.15941297505E+03  0.18294400449E+03  0.41800000000E+01 0.  1.
         -5    1    4    4    0  501  0.75157558533E+01  0.71609936101E+02  0.51634498165E+03  0.52135792122E+03  0.41800000000E+01 0.  1.
</event>
<event>
11    1  0.6625361E-009  0.1583358E+03  0.7561462E-02  0.1088653E+00
         22   -1    0    0    0    0  0.00000000000E+00  0.00000000000E+00  0.17007225870E+03  0.17007225870E+03  0.00000000000E+00 0.  1.
         22   -1    0    0    0    0 -0.00000000000E+00 -0.00000000000E+00 -0.10082728953E+04  0.10082728953E+04  0.00000000000E+00 0. -1.
        -24    2    1    2    0    0  0.82339560937E+02 -0.52170527649E+02 -0.91496516768E+03  0.92427758648E+03  0.87328297557E+02 0.  0.
         25    2    1    2    0    0 -0.62031513968E+02  0.63734948142E+02  0.72990492711E+02  0.16995438353E+03  0.12508728199E+03 0.  0.
         24    2    1    2    0    0 -0.20308046969E+02 -0.11564420493E+02  0.37740383518E+01  0.84113184003E+02  0.80713268827E+02 0.  0.
        -13    1    5    5    0    0 -0.84124529157E+01 -0.46431230778E+02  0.23346825435E+01  0.47244886477E+02  0.00000000000E+00 0.  1.
         14    1    5    5    0    0 -0.11895594054E+02  0.34866810285E+02  0.14393558084E+01  0.36868297526E+02  0.00000000000E+00 0. -1.
         11    1    3    3    0    0  0.80637042668E+02 -0.67540427869E+02 -0.87697725643E+03  0.88326278668E+03  0.00000000000E+00 0. -1.
        -12    1    3    3    0    0  0.17025182689E+01  0.15369900220E+02 -0.37987911249E+02  0.41014799796E+02  0.00000000000E+00 0.  1.
          5    1    4    4  501    0 -0.31696495843E+02  0.10059893336E+03  0.50622885389E+02  0.11706819452E+03  0.41800000000E+01 0.  1.
         -5    1    4    4    0  501 -0.30335018125E+02 -0.36863985221E+02  0.22367607322E+02  0.52886189013E+02  0.41800000000E+01 0.  1.
</event>
<event>
11    1  0.6625361E-009  0.1506986E+03  0.7561462E-02  0.1096167E+00
         22   -1    0    0    0    0  0.00000000000E+00  0.00000000000E+00  0.55120495781E+03  0.55120495781E+03  0.00000000000E+00 0.  1.
         22   -1    0    0    0    0 -0.00000000000E+00 -0.00000000000E+00 -0.36007088725E+03  0.36007088725E+03  0.00000000000E+00 0.  1.
        -24    2    1    2    0    0 -0.78778108653E+02 -0.27607671225E+02 -0.28127423438E+03  0.30358569146E+03  0.77980146338E+02 0.  0.
         25    2    1    2    0    0  0.73771583528E+02  0.56693787947E+02  0.33178500442E+02  0.15938917621E+03  0.12509062504E+03 0.  0.
         24    2    1    2    0    0  0.50065251253E+01 -0.29086116722E+02  0.43922980450E+03  0.44830097738E+03  0.84734158903E+02 0.  0.
        -13    1    5    5    0    0  0.26815213115E+02  0.26291375649E+01  0.35110451348E+03  0.35213683051E+03  0.00000000000E+00 0.  1.
         14    1    5    5    0    0 -0.21808687990E+02 -0.31715254287E+02  0.88125291020E+02  0.96164146872E+02  0.00000000000E+00 0. -1.
         11    1    3    3    0    0 -0.64585549055E+02 -0.17562827664E+02 -0.93383973212E+02  0.11489261297E+03  0.00000000000E+00 0. -1.
        -12    1    3    3    0    0 -0.14192559598E+02 -0.10044843561E+02 -0.18789026117E+03  0.18869307849E+03  0.00000000000E+00 0.  1.
          5    1    4    4  501    0 -0.20569047077E+02  0.34513882476E+02  0.46365336268E+02  0.61493988230E+02  0.41800000000E+01 0. -1.
         -5    1    4    4    0  501  0.94340630605E+02  0.22179905471E+02 -0.13186835826E+02  0.97895187976E+02  0.41800000000E+01 0. -1.
</event>
<event>
11    1  0.6625361E-009  0.1687635E+03  0.7561462E-02  0.1079113E+00
         22   -1    0    0    0    0  0.00000000000E+00  0.00000000000E+00  0.86606186322E+03  0.86606186322E+03  0.00000000000E+00 0. -1.
         22   -1    0    0    0    0 -0.00000000000E+00 -0.00000000000E+00 -0.64326337772E+03  0.64326337772E+03  0.00000000000E+00 0.  1.
         24    2    1    2    0    0 -0.35206822985E+02  0.42175123513E+02 -0.47048031459E+03  0.48004154274E+03  0.77909530262E+02 0.  0.
         25    2    1    2    0    0 -0.35682403927E+02 -0.13002344790E+03 -0.10973804104E+03  0.21417116862E+03  0.12509005102E+03 0.  0.
        -24    2    1    2    0    0  0.70889226913E+02  0.87848324385E+02  0.80301684113E+03  0.81511252958E+03  0.82642471862E+02 0.  0.
        -11    1    3    3    0    0  0.15557655022E+02  0.37559630044E+02 -0.27662835813E+03  0.27959974063E+03  0.00000000000E+00 0.  1.
         12    1    3    3    0    0 -0.50764478007E+02  0.46154934694E+01 -0.19385195647E+03  0.20044180211E+03  0.00000000000E+00 0. -1.
         11    1    5    5    0    0  0.31611545702E+02  0.86552203261E+02  0.67322237886E+03  0.67949903982E+03  0.00000000000E+00 0. -1.
        -12    1    5    5    0    0  0.39277681210E+02  0.12961211242E+01  0.12979446226E+03  0.13561348976E+03  0.00000000000E+00 0.  1.
          5    1    4    4  501    0 -0.44707213873E+00 -0.61311784457E+02 -0.12129952409E+03  0.13597934303E+03  0.41800000000E+01 0. -1.
         -5    1    4    4    0  501 -0.35235331789E+02 -0.68711663442E+02  0.11561483049E+02  0.78191825592E+02  0.41800000000E+01 0. -1.
</event>
<event>
11    1  0.6625361E-009  0.1610893E+03  0.7561462E-02  0.1086057E+00
         22   -1    0    0    0    0  0.00000000000E+00  0.00000000000E+00  0.24369501184E+03  0.24369501184E+03  0.00000000000E+00 0.  1.
         22   -1    0    0    0    0 -0.00000000000E+00 -0.00000000000E+00 -0.22075983385E+03  0.22075983385E+03  0.00000000000E+00 0. -1.
         24    2    1    2    0    0  0.34484825544E+02 -0.50984143263E+02 -0.68536458483E+02  0.12163153317E+03  0.79425422020E+02 0.  0.
         25    2    1    2    0    0  0.13101923456E+02  0.13231400098E+03 -0.81866234426E+01  0.18273669342E+03  0.12508806125E+03 0.  0.
        -24    2    1    2    0    0 -0.47586749000E+02 -0.81329857713E+02  0.99658259912E+02  0.16008661909E+03  0.82564595370E+02 0.  0.
        -13    1    3    3    0    0  0.15025747919E+02 -0.41966740902E+02  0.51642476833E+01  0.44873710529E+02  0.00000000000E+00 0.  1.
         14    1    3    3    0    0  0.19459077625E+02 -0.90174023608E+01 -0.73700706166E+02  0.76757822642E+02  0.00000000000E+00 0. -1.
         11    1    5    5    0    0  0.52850559461E+01  0.63737148977E+01 -0.79914306063E+01  0.11507346396E+02  0.00000000000E+00 0. -1.
        -12    1    5    5    0    0 -0.52871804946E+02 -0.87703572610E+02  0.10764969052E+03  0.14857927270E+03  0.00000000000E+00 0.  1.
          5    1    4    4  501    0 -0.18900354087E+02 -0.19335740029E+02  0.13898813482E+01  0.27395225811E+02  0.41800000000E+01 0. -1.
         -5    1    4    4    0  501  0.32002277543E+02  0.15164974100E+03 -0.95765047908E+01  0.15534146761E+03  0.41800000000E+01 0. -1.
</event>
<event>
11    1  0.6625361E-009  0.2765959E+03  0.7561462E-02  0.1010614E+00
         22   -1    0    0    0    0  0.00000000000E+00  0.00000000000E+00  0.45210217752E+03  0.45210217752E+03  0.00000000000E+00 0. -1.
         22   -1    0    0    0    0 -0.00000000000E+00 -0.00000000000E+00 -0.24030335601E+04  0.24030335601E+04  0.00000000000E+00 0. -1.
        -24    2    1    2    0    0  0.23365238089E+02 -0.53254606555E+02 -0.20529800027E+04  0.20553729801E+04  0.80306961652E+02 0.  0.
         25    2    1    2    0    0 -0.25553916983E+03 -0.28162679771E+02 -0.23816954981E+03  0.37210735804E+03  0.12508296287E+03 0.  0.
         24    2    1    2    0    0  0.23217393174E+03  0.81417286326E+02  0.34021817003E+03  0.42765539946E+03  0.81284859502E+02 0.  0.
        -13    1    5    5    0    0  0.87387889657E+02  0.34816785569E+00  0.16252685841E+03  0.18453114692E+03  0.00000000000E+00 0.  1.
         14    1    5    5    0    0  0.14478604208E+03  0.81069118470E+02  0.17769131162E+03  0.24312425254E+03  0.00000000000E+00 0. -1.
         13    1    3    3    0    0  0.42493935798E+02 -0.58111473705E+02 -0.11953221798E+04  0.11974881175E+04  0.00000000000E+00 0. -1.
        -14    1    3    3    0    0 -0.19128697709E+02  0.48568671502E+01 -0.85765782296E+03  0.85788486262E+03  0.00000000000E+00 0.  1.
          5    1    4    4  501    0 -0.11580344703E+03  0.29121299209E+02 -0.46875058417E+02  0.12834808886E+03  0.41800000000E+01 0. -1.
         -5    1    4    4    0  501 -0.13973572279E+03 -0.57283978980E+02 -0.19129449139E+03  0.24375926918E+03  0.41800000000E+01 0. -1.
</event>
<event>
11    1  0.6625361E-009  0.1345547E+03  0.7561462E-02  0.1113796E+00
         22   -1    0    0    0    0  0.00000000000E+00  0.00000000000E+00  0.41818812588E+03  0.41818812588E+03  0.00000000000E+00 0.  1.
         22   -1    0    0    0    0 -0.00000000000E+00 -0.00000000000E+00 -0.67433764883E+03  0.67433764883E+03  0.00000000000E+00 0.  1.
         24    2    1    2    0    0 -0.29265636604E+02  0.33108817419E+02 -0.47490419109E+03  0.48332089486E+03  0.78182001875E+02 0.  0.
         25    2    1    2    0    0 -0.20687564846E+02 -0.38850251980E+02 -0.16627196700E+03  0.21268186717E+03  0.12509952916E+03 0.  0.
        -24    2    1    2    0    0  0.49953201450E+02  0.57414345609E+01  0.38502663514E+03  0.39652301268E+03  0.80353614826E+02 0.  0.
        -13    1    3    3    0    0 -0.50691006894E+01  0.12043953781E+02 -0.41634324214E+03  0.41654825397E+03  0.00000000000E+00 0.  1.
         14    1    3    3    0    0 -0.24196535915E+02  0.21064863638E+02 -0.58560948946E+02  0.66772640893E+02  0.00000000000E+00 0. -1.
         11    1    5    5    0    0  0.27554121469E+02 -0.15629638557E+02  0.44676391414E+02  0.54767647029E+02  0.00000000000E+00 0. -1.
        -12    1    5    5    0    0  0.22399079982E+02  0.21371073118E+02  0.34035024372E+03  0.34175536565E+03  0.00000000000E+00 0.  1.
          5    1    4    4  501    0  0.67158406974E+01 -0.72426935581E+02 -0.14896448576E+03  0.16582718092E+03  0.41800000000E+01 0. -1.
         -5    1    4    4    0  501 -0.27403405544E+02  0.33576683601E+02 -0.17307481239E+02  0.46854686253E+02  0.41800000000E+01 0. -1.
</event>
<event>
11    1  0.6625361E-009  0.1686936E+03  0.7561462E-02  0.1079174E+00
         22   -1    0    0    0    0  0.00000000000E+00  0.00000000000E+00  0.10642930223E+04  0.10642930223E+04  0.00000000000E+00 0.  1.
         22   -1    0    0    0    0 -0.00000000000E+00 -0.00000000000E+00 -0.88881069485E+03  0.88881069485E+03  0.00000000000E+00 0. -1.
         24    2    1    2    0    0  0.10679808232E+01 -0.27436815883E+02 -0.85707402554E+03  0.86115179055E+03  0.79073394104E+02 0.  0.
         25    2    1    2    0    0 -0.91978582353E+02  0.88514059582E+02  0.32141414309E+03  0.36776205867E+03  0.12508829705E+03 0.  0.
        -24    2    1    2    0    0  0.90910601530E+02 -0.61077243699E+02  0.71114220988E+03  0.72418986792E+03  0.82052147705E+02 0.  0.
        -13    1    3    3    0    0  0.29633988200E+02 -0.31885662106E+01 -0.14187586924E+03  0.14497276463E+03  0.00000000000E+00 0.  1.
         14    1    3    3    0    0 -0.28566007377E+02 -0.24248249673E+02 -0.71519815630E+03  0.71617902592E+03  0.00000000000E+00 0. -1.
         13    1    5    5    0    0 -0.15065362307E+01  0.13086193802E+02  0.29260548013E+02  0.32088904464E+02  0.00000000000E+00 0. -1.
        -14    1    5    5    0    0  0.92417137761E+02 -0.74163437501E+02  0.68188166187E+03  0.69210096345E+03  0.00000000000E+00 0.  1.
          5    1    4    4  501    0 -0.19653456166E+02 -0.17591833077E+02  0.62661217611E+01  0.27431143108E+02  0.41800000000E+01 0.  1.
         -5    1    4    4    0  501 -0.72325126188E+02  0.10610589266E+03  0.31514802133E+03  0.34033091556E+03  0.41800000000E+01 0.  1.
</event>
<event>
11    1  0.6625361E-009  0.1461517E+03  0.7561462E-02  0.1100877E+00
         22   -1    0    0    0    0  0.00000000000E+00  0.00000000000E+00  0.16304905275E+04  0.16304905275E+04  0.00000000000E+00 0. -1.
         22   -1    0    0    0    0 -0.00000000000E+00 -0.00000000000E+00 -0.10191151931E+03  0.10191151931E+03  0.00000000000E+00 0. -1.
         24    2    1    2    0    0 -0.52261285935E+02 -0.50280728737E+02 -0.13043673177E+02  0.10942783721E+03  0.80900682666E+02 0.  0.
         25    2    1    2    0    0  0.58952741820E+02  0.60943111541E+02  0.10461763135E+03  0.18379761948E+03  0.12508887850E+03 0.  0.
        -24    2    1    2    0    0 -0.66914558851E+01 -0.10662382804E+02  0.14370050500E+04  0.14391765901E+04  0.78021034276E+02 0.  0.
        -11    1    3    3    0    0 -0.11711925027E+02 -0.14982412424E+02  0.33366862030E+02  0.38405590109E+02  0.00000000000E+00 0.  1.
         12    1    3    3    0    0 -0.40549360908E+02 -0.35298316313E+02 -0.46410535207E+02  0.71022247097E+02  0.00000000000E+00 0. -1.
         11    1    5    5    0    0  0.14499163159E+02 -0.39459548414E+02  0.64831636460E+03  0.64967791274E+03  0.00000000000E+00 0. -1.
        -12    1    5    5    0    0 -0.21190619044E+02  0.28797165610E+02  0.78868868539E+03  0.78949867735E+03  0.00000000000E+00 0.  1.
          5    1    4    4  501    0  0.48189083594E+02  0.76084369502E+02  0.12614844681E+03  0.15505457779E+03  0.41800000000E+01 0.  1.
         -5    1    4    4    0  501  0.10763658226E+02 -0.15141257961E+02 -0.21530815461E+02  0.28743041688E+02  0.41800000000E+01 0.  1.
</event>
<event>
11    1  0.6625361E-009  0.1596566E+03  0.7561462E-02  0.1087401E+00
         22   -1    0    0    0    0  0.00000000000E+00  0.00000000000E+00  0.94176885076E+03  0.94176885076E+03  0.00000000000E+00 0.  1.
         22   -1    0    0    0    0 -0.00000000000E+00 -0.00000000000E+00 -0.10954253802E+04  0.10954253802E+04  0.00000000000E+00 0. -1.
         24    2    1    2    0    0 -0.59319030275E+02 -0.77606377300E+02 -0.99402087054E+03  0.10021058736E+04  0.81223110584E+02 0.  0.
         25    2    1    2    0    0  0.53439297546E+02  0.12743302170E+03 -0.30982079407E+01  0.18641769179E+03  0.12508806250E+03 0.  0.
        -24    2    1    2    0    0  0.58797327281E+01 -0.49826644403E+02  0.84346254903E+03  0.84867066557E+03  0.79344572841E+02 0.  0.
        -13    1    3    3    0    0  0.18664596084E+02 -0.33476560519E+01 -0.17912396484E+03  0.18012486982E+03  0.00000000000E+00 0.  1.
         14    1    3    3    0    0 -0.77983626358E+02 -0.74258721248E+02 -0.81489690570E+03  0.82198100379E+03  0.00000000000E+00 0. -1.
         13    1    5    5    0    0 -0.50764618821E+01 -0.67052396543E+02  0.48655857593E+03  0.49118330810E+03  0.00000000000E+00 0. -1.
        -14    1    5    5    0    0  0.10956194610E+02  0.17225752140E+02  0.35690397309E+03  0.35748735747E+03  0.00000000000E+00 0.  1.
          5    1    4    4  501    0 -0.31854865953E+02  0.82095043938E+02  0.10498601806E+02  0.88780751090E+02  0.41800000000E+01 0.  1.
         -5    1    4    4    0  501  0.85294163500E+02  0.45337977764E+02 -0.13596809747E+02  0.97636940704E+02  0.41800000000E+01 0.  1.
</event>
<event>
11    1  0.6625361E-009  0.2186795E+03  0.7561462E-02  0.1042048E+00
         22   -1    0    0    0    0  0.00000000000E+00  0.00000000000E+00  0.96426958807E+03  0.96426958807E+03  0.00000000000E+00 0.  1.
         22   -1    0    0    0    0 -0.00000000000E+00 -0.00000000000E+00 -0.29619316015E+04  0.29619316015E+04  0.00000000000E+00 0.  1.
        -24    2    1    2    0    0  0.30352042298E+02 -0.84743956306E+01 -0.28920655043E+04  0.28935487470E+04  0.87111468185E+02 0.  0.
         25    2    1    2    0    0 -0.13500074902E+03 -0.13454921746E+03  0.17479501819E+03  0.28727857615E+03  0.12508792019E+03 0.  0.
         24    2    1    2    0    0  0.10464870672E+03  0.14302361309E+03  0.71960847271E+03  0.74537386645E+03  0.79616211096E+02 0.  0.
        -11    1    5    5    0    0  0.11547651976E+03  0.12707656539E+03  0.67971620496E+03  0.70106875510E+03  0.00000000000E+00 0.  1.
         12    1    5    5    0    0 -0.10827813042E+02  0.15947047701E+02  0.39892267745E+02  0.44305111347E+02  0.00000000000E+00 0. -1.
         13    1    3    3    0    0  0.27120046327E+02  0.13718765996E+02 -0.33277893435E+03  0.33416391277E+03  0.00000000000E+00 0. -1.
        -14    1    3    3    0    0  0.32319959710E+01 -0.22193161627E+02 -0.25592865700E+04  0.25593848342E+04  0.00000000000E+00 0.  1.
          5    1    4    4  501    0 -0.92131512938E+02 -0.79535938728E+02  0.28381827597E+02  0.12504871756E+03  0.41800000000E+01 0. -1.
         -5    1    4    4    0  501 -0.42869236083E+02 -0.55013278730E+02  0.14641319059E+03  0.16222985859E+03  0.41800000000E+01 0. -1.
</event>
<event>
11    1  0.7582086E-009  0.1693427E+03  0.7561462E-02  0.1078605E+00
         22   -1    0    0    0    0  0.00000000000E+00  0.00000000000E+00  0.44378946307E+03  0.44378946307E+03  0.00000000000E+00 0. -1.
         22   -1    0    0    0    0 -0.00000000000E+00 -0.00000000000E+00 -0.12936610015E+04  0.12936610015E+04  0.00000000000E+00 0.  1.
         24    2    1    2    0    0 -0.42779874578E+02 -0.56487930421E+01 -0.10118165652E+04  0.10164204764E+04  0.86462689170E+02 0.  0.
         25    2    1    2    0    0  0.14655153224E+03 -0.38039491400E+02 -0.23193922841E+03  0.30392165868E+03  0.12509282325E+03 0.  0.
        -24    2    1    2    0    0 -0.10377165766E+03  0.43688284443E+02  0.39388425523E+03  0.41710832950E+03  0.78468649066E+02 0.  0.
        -11    1    3    3    0    0 -0.50849974531E+02 -0.36691598673E+02 -0.75711821966E+03  0.75971046581E+03  0.00000000000E+00 0.  1.
         12    1    3    3    0    0  0.80700999533E+01  0.31042805631E+02 -0.25469834558E+03  0.25671001058E+03  0.00000000000E+00 0. -1.
         11    1    5    5    0    0 -0.10052013746E+03  0.21361941796E+02  0.37101036596E+03  0.38497963874E+03  0.00000000000E+00 0. -1.
        -12    1    5    5    0    0 -0.32515202011E+01  0.22326342646E+02  0.22873889268E+02  0.32128690758E+02  0.00000000000E+00 0.  1.
          5    1    4    4  501    0  0.14300984494E+03 -0.30462688210E+02 -0.11358688060E+03  0.18520054797E+03  0.41800000000E+01 0.  1.
         -5    1    4    4    0  501  0.35416872957E+01 -0.75768031909E+01 -0.11835234781E+03  0.11872111071E+03  0.41800000000E+01 0.  1.
</event>
<event>
11    1  0.6625361E-009  0.1361233E+03  0.7561462E-02  0.1111966E+00
         22   -1    0    0    0    0  0.00000000000E+00  0.00000000000E+00  0.84435757624E+02  0.84435757624E+02  0.00000000000E+00 0. -1.
         22   -1    0    0    0    0 -0.00000000000E+00 -0.00000000000E+00 -0.92151117353E+03  0.92151117353E+03  0.00000000000E+00 0.  1.
         24    2    1    2    0    0 -0.41998539320E+02  0.33710740705E+02 -0.76318659743E+03  0.76946691310E+03  0.82007661258E+02 0.  0.
         25    2    1    2    0    0  0.17394935593E+02 -0.58519231587E+02 -0.42854831242E+02  0.14564175856E+03  0.12509157057E+03 0.  0.
        -24    2    1    2    0    0  0.24603603728E+02  0.24808490883E+02 -0.31033987231E+02  0.90838259495E+02  0.77895330338E+02 0.  0.
        -11    1    3    3    0    0 -0.48207281297E+02  0.53423332465E+02 -0.46181696847E+03  0.46738945943E+03  0.00000000000E+00 0.  1.
         12    1    3    3    0    0  0.62087419765E+01 -0.19712591760E+02 -0.30136962897E+03  0.30207745367E+03  0.00000000000E+00 0. -1.
         11    1    5    5    0    0  0.37049300095E+02  0.27965587626E+02  0.10306735716E+02  0.47549485065E+02  0.00000000000E+00 0. -1.
        -12    1    5    5    0    0 -0.12445696367E+02 -0.31570967428E+01 -0.41340722947E+02  0.43288774431E+02  0.00000000000E+00 0.  1.
          5    1    4    4  501    0 -0.31048897455E+02  0.21430666208E+02  0.85047869076E+01  0.38898731183E+02  0.41800000000E+01 0.  1.
         -5    1    4    4    0  501  0.48443833047E+02 -0.79949897796E+02 -0.51359618150E+02  0.10674302738E+03  0.41800000000E+01 0.  1.
</event>
<event>
11    1  0.6625361E-009  0.2153148E+03  0.7561462E-02  0.1044193E+00
         22   -1    0    0    0    0  0.00000000000E+00  0.00000000000E+00  0.93632526533E+03  0.93632526533E+03  0.00000000000E+00 0. -1.
         22   -1    0    0    0    0 -0.00000000000E+00 -0.00000000000E+00 -0.87482839925E+03  0.87482839925E+03  0.00000000000E+00 0.  1.
        -24    2    1    2    0    0  0.16664269060E+03 -0.40687551080E+02 -0.62067891013E+03  0.64827561018E+03  0.74791002942E+02 0.  0.
         25    2    1    2    0    0 -0.19136152411E+03  0.15453533801E+02 -0.18298511197E+03  0.29323810973E+03  0.12508794177E+03 0.  0.
         24    2    1    2    0    0  0.24718833505E+02  0.25234017279E+02  0.86516088819E+03  0.86963994468E+03  0.80761962365E+02 0.  0.
        -11    1    5    5    0    0 -0.28745382864E+02  0.55619538682E+01  0.38492100257E+03  0.38603291386E+03  0.00000000000E+00 0.  1.
         12    1    5    5    0    0  0.53464216369E+02  0.19672063411E+02  0.48023988562E+03  0.48360703081E+03  0.00000000000E+00 0. -1.
         13    1    3    3    0    0  0.51816064867E+01 -0.16288098385E+02 -0.22784175943E+02  0.28482799514E+02  0.00000000000E+00 0. -1.
        -14    1    3    3    0    0  0.16146108411E+03 -0.24399452696E+02 -0.59789473419E+03  0.61979281066E+03  0.00000000000E+00 0.  1.
          5    1    4    4  501    0 -0.16555099240E+03  0.61090623451E+02 -0.13894563220E+03  0.22463872432E+03  0.41800000000E+01 0. -1.
         -5    1    4    4    0  501 -0.25810531703E+02 -0.45637089649E+02 -0.44039479778E+02  0.68599385402E+02  0.41800000000E+01 0. -1.
</event>
<event>
11    1  0.6625361E-009  0.2580407E+03  0.7561462E-02  0.1019701E+00
         22   -1    0    0    0    0  0.00000000000E+00  0.00000000000E+00  0.10606420916E+04  0.10606420916E+04  0.00000000000E+00 0. -1.
         22   -1    0    0    0    0 -0.00000000000E+00 -0.00000000000E+00 -0.34479736802E+03  0.34479736802E+03  0.00000000000E+00 0. -1.
         24    2    1    2    0    0  0.21558472055E+03  0.33114709718E+02 -0.73030462990E+02  0.23726572760E+03  0.58208429210E+02 0.  0.
         25    2    1    2    0    0 -0.31148691998E+03  0.16360729618E+03  0.30595677244E+02  0.37466657243E+03  0.12508995303E+03 0.  0.
        -24    2    1    2    0    0  0.95902199421E+02 -0.19672200590E+03  0.75827950929E+03  0.79350715955E+03  0.82274045659E+02 0.  0.
        -13    1    3    3    0    0  0.45459948130E+02 -0.68418663836E+01 -0.36582735284E+02  0.58751293947E+02  0.00000000000E+00 0.  1.
         14    1    3    3    0    0  0.17012477242E+03  0.39956576102E+02 -0.36447727706E+02  0.17851443365E+03  0.00000000000E+00 0. -1.
         11    1    5    5    0    0  0.10146206264E+03 -0.19324387618E+03  0.75548019930E+03  0.78637654935E+03  0.00000000000E+00 0. -1.
        -12    1    5    5    0    0 -0.55598632218E+01 -0.34781297222E+01  0.27993099936E+01  0.71306102018E+01  0.00000000000E+00 0.  1.
          5    1    4    4  501    0 -0.29954445596E+03  0.11410690250E+03  0.38840098647E+02  0.32291375313E+03  0.41800000000E+01 0.  1.
         -5    1    4    4    0  501 -0.11942464015E+02  0.49500393684E+02 -0.82444214029E+01  0.51752819304E+02  0.41800000000E+01 0.  1.
</event>
<event>
11    1  0.6625361E-009  0.2013315E+03  0.7561462E-02  0.1053586E+00
         22   -1    0    0    0    0  0.00000000000E+00  0.00000000000E+00  0.48490852691E+03  0.48490852691E+03  0.00000000000E+00 0. -1.
         22   -1    0    0    0    0 -0.00000000000E+00 -0.00000000000E+00 -0.40350589789E+03  0.40350589789E+03  0.00000000000E+00 0. -1.
        -24    2    1    2    0    0  0.23844365430E+02  0.15731526871E+03 -0.27045891944E+03  0.32376292997E+03  0.79735564109E+02 0.  0.
         25    2    1    2    0    0 -0.16919602723E+03 -0.11532410662E+03  0.98358281026E+02  0.25932312861E+03  0.12508872207E+03 0.  0.
         24    2    1    2    0    0  0.14535166180E+03 -0.41991162093E+02  0.25350326744E+03  0.30532836622E+03  0.77917529068E+02 0.  0.
        -13    1    5    5    0    0  0.10834881845E+03 -0.61352562452E+02  0.15855687338E+03  0.20160328736E+03  0.00000000000E+00 0.  1.
         14    1    5    5    0    0  0.37002843348E+02  0.19361400359E+02  0.94946394060E+02  0.10372507886E+03  0.00000000000E+00 0. -1.
         11    1    3    3    0    0  0.21423169188E+02  0.15628904836E+03 -0.27584639049E+03  0.31776791840E+03  0.00000000000E+00 0. -1.
        -12    1    3    3    0    0  0.24211962424E+01  0.10262203489E+01  0.53874710481E+01  0.59950115716E+01  0.00000000000E+00 0.  1.
          5    1    4    4  501    0 -0.81843103101E+02 -0.11404601849E+03  0.99060307692E+02  0.17185809500E+03  0.41800000000E+01 0.  1.
         -5    1    4    4    0  501 -0.87352924129E+02 -0.12780881313E+01 -0.70202666668E+00  0.87465033611E+02  0.41800000000E+01 0.  1.
</event>
<event>
11    1  0.6625361E-009  0.2172489E+03  0.7561462E-02  0.1042955E+00
         22   -1    0    0    0    0  0.00000000000E+00  0.00000000000E+00  0.85470033665E+03  0.85470033665E+03  0.00000000000E+00 0.  1.
         22   -1    0    0    0    0 -0.00000000000E+00 -0.00000000000E+00 -0.31274634448E+03  0.31274634448E+03  0.00000000000E+00 0.  1.
        -24    2    1    2    0    0  0.48213684983E+01 -0.15622272904E+03 -0.12321788601E+03  0.21473490418E+03  0.80620375706E+02 0.  0.
         25    2    1    2    0    0  0.83780709382E+01  0.23897829656E+03 -0.74582263437E+01  0.26997112254E+03  0.12509182053E+03 0.  0.
         24    2    1    2    0    0 -0.13199439437E+02 -0.82755567528E+02  0.67263010451E+03  0.68274065442E+03  0.81736372175E+02 0.  0.
        -11    1    5    5    0    0 -0.21164750305E+02 -0.81374283554E+02  0.66830244339E+03  0.67357098847E+03  0.00000000000E+00 0.  1.
         12    1    5    5    0    0  0.79653108686E+01 -0.13812839743E+01  0.43276611289E+01  0.91696659425E+01  0.00000000000E+00 0. -1.
         11    1    3    3    0    0  0.14285560207E+02 -0.53331149569E+02 -0.91113692531E+02  0.10653634925E+03  0.00000000000E+00 0. -1.
        -12    1    3    3    0    0 -0.94641917087E+01 -0.10289157947E+03 -0.32104193475E+02  0.10819855493E+03  0.00000000000E+00 0.  1.
          5    1    4    4  501    0 -0.19569630454E+02  0.58073177057E+01 -0.27202305813E+02  0.34265627334E+02  0.41800000000E+01 0. -1.
         -5    1    4    4    0  501  0.27947701392E+02  0.23317097886E+03  0.19744079470E+02  0.23570549520E+03  0.41800000000E+01 0. -1.
</event>
<event>
11    1  0.6625361E-009  0.1786165E+03  0.7561462E-02  0.1070767E+00
         22   -1    0    0    0    0  0.00000000000E+00  0.00000000000E+00  0.29458319042E+03  0.29458319042E+03  0.00000000000E+00 0. -1.
         22   -1    0    0    0    0 -0.00000000000E+00 -0.00000000000E+00 -0.15648288671E+04  0.15648288671E+04  0.00000000000E+00 0. -1.
         24    2    1    2    0    0 -0.12549907355E+02  0.72223239527E+01 -0.13482674113E+04  0.13506565196E+04  0.78983285831E+02 0.  0.
         25    2    1    2    0    0  0.12453882120E+03  0.52000082713E+02 -0.14885908774E+03  0.23668658021E+03  0.12509029803E+03 0.  0.
        -24    2    1    2    0    0 -0.11198891384E+03 -0.59222406665E+02  0.22688082235E+03  0.27206895772E+03  0.80608932071E+02 0.  0.
        -13    1    3    3    0    0 -0.29072155979E+02  0.36275707209E+02 -0.71778202026E+03  0.71928585819E+03  0.00000000000E+00 0.  1.
         14    1    3    3    0    0  0.16522248624E+02 -0.29053383257E+02 -0.63048539107E+03  0.63137066144E+03  0.00000000000E+00 0. -1.
         11    1    5    5    0    0 -0.11074051078E+03 -0.66926001273E+02  0.22981006609E+03  0.26373323046E+03  0.00000000000E+00 0. -1.
        -12    1    5    5    0    0 -0.12484030608E+01  0.77035946073E+01 -0.29292437362E+01  0.83357272594E+01  0.00000000000E+00 0.  1.
          5    1    4    4  501    0  0.14499781717E+03  0.37465388016E+02 -0.14892515250E+03  0.21124439810E+03  0.41800000000E+01 0. -1.
         -5    1    4    4    0  501 -0.20458995970E+02  0.14534694697E+02  0.66064758746E-01  0.25442182111E+02  0.41800000000E+01 0. -1.
</event>
<event>
11    1  0.6625361E-009  0.1582219E+03  0.7561462E-02  0.1088762E+00
         22   -1    0    0    0    0  0.00000000000E+00  0.00000000000E+00  0.11860063382E+04  0.11860063382E+04  0.00000000000E+00 0. -1.
         22   -1    0    0    0    0 -0.00000000000E+00 -0.00000000000E+00 -0.88652106474E+02  0.88652106474E+02  0.00000000000E+00 0.  1.
        -24    2    1    2    0    0 -0.92146394172E+02 -0.17831339097E+02 -0.77116022500E+01  0.13712754396E+03  0.99677379036E+02 0.  0.
         25    2    1    2    0    0  0.12902894755E+03  0.24962883120E+02  0.74762529426E+03  0.76933571260E+03  0.12514888427E+03 0.  0.
         24    2    1    2    0    0 -0.36882553382E+02 -0.71315440230E+01  0.35744053971E+03  0.36819518810E+03  0.79954833783E+02 0.  0.
        -13    1    5    5    0    0 -0.35691402873E+02  0.27410080998E+02  0.11830850608E+03  0.12657840017E+03  0.00000000000E+00 0.  1.
         14    1    5    5    0    0 -0.11911505085E+01 -0.34541625021E+02  0.23913203363E+03  0.24161678793E+03  0.00000000000E+00 0. -1.
         11    1    3    3    0    0 -0.51751270312E+02  0.62052809355E+01  0.43299850490E+02  0.67761172827E+02  0.00000000000E+00 0. -1.
        -12    1    3    3    0    0 -0.40395123860E+02 -0.24036620032E+02 -0.51011452740E+02  0.69366371138E+02  0.00000000000E+00 0.  1.
          5    1    4    4  501    0  0.83893102771E+02  0.71856182616E+02  0.37145839170E+03  0.38755667049E+03  0.41800000000E+01 0.  1.
         -5    1    4    4    0  501  0.45135844783E+02 -0.46893299496E+02  0.37616690255E+03  0.38177904212E+03  0.41800000000E+01 0.  1.
</event>
<event>
11    1  0.6625361E-009  0.1390140E+03  0.7561462E-02  0.1108664E+00
         22   -1    0    0    0    0  0.00000000000E+00  0.00000000000E+00  0.16280488907E+03  0.16280488907E+03  0.00000000000E+00 0. -1.
         22   -1    0    0    0    0 -0.00000000000E+00 -0.00000000000E+00 -0.88738216202E+03  0.88738216202E+03  0.00000000000E+00 0. -1.
        -24    2    1    2    0    0  0.55534602760E+02  0.28888296442E+02 -0.56275554546E+03  0.57196000533E+03  0.80782535109E+02 0.  0.
         25    2    1    2    0    0 -0.39754426721E+02 -0.39875626348E+02 -0.29811530160E+03  0.32816349859E+03  0.12509224092E+03 0.  0.
         24    2    1    2    0    0 -0.15780176039E+02  0.10987329906E+02  0.13629357411E+03  0.15006354716E+03  0.59777876087E+02 0.  0.
        -13    1    5    5    0    0  0.19471259413E+02  0.14110013444E+02  0.80306792268E+02  0.83829608772E+02  0.00000000000E+00 0.  1.
         14    1    5    5    0    0 -0.35251435452E+02 -0.31226835371E+01  0.55986781841E+02  0.66233938391E+02  0.00000000000E+00 0. -1.
         11    1    3    3    0    0  0.57427591796E+02  0.28477004707E+02 -0.21873267622E+03  0.22793168218E+03  0.00000000000E+00 0. -1.
        -12    1    3    3    0    0 -0.18929890365E+01  0.41129173472E+00 -0.34402286924E+03  0.34402832315E+03  0.00000000000E+00 0.  1.
          5    1    4    4  501    0  0.97684942787E+00 -0.56643847390E+02 -0.48610274545E+02  0.74765706533E+02  0.41800000000E+01 0. -1.
         -5    1    4    4    0  501 -0.40731276149E+02  0.16768221042E+02 -0.24950502705E+03  0.25339779205E+03  0.41800000000E+01 0. -1.
</event>
<event>
11    1  0.6625361E-009  0.1463622E+03  0.7561462E-02  0.1100655E+00
         22   -1    0    0    0    0  0.00000000000E+00  0.00000000000E+00  0.13261576347E+04  0.13261576347E+04  0.00000000000E+00 0.  1.
         22   -1    0    0    0    0 -0.00000000000E+00 -0.00000000000E+00 -0.24579497788E+03  0.24579497788E+03  0.00000000000E+00 0.  1.
        -24    2    1    2    0    0  0.42906974789E+02  0.10127175449E+02 -0.19205692266E+03  0.21318950695E+03  0.81365448211E+02 0.  0.
         25    2    1    2    0    0 -0.59102419950E+02  0.64056071665E+02  0.10598593513E+03  0.18569578289E+03  0.12511446350E+03 0.  0.
         24    2    1    2    0    0  0.16195445161E+02 -0.74183247114E+02  0.11664336444E+04  0.11730673228E+04  0.98762596126E+02 0.  0.
        -11    1    5    5    0    0 -0.21806528473E+01 -0.18524010081E+02  0.90295636600E+03  0.90314898721E+03  0.00000000000E+00 0.  1.
         12    1    5    5    0    0  0.18376098009E+02 -0.55659237033E+02  0.26347727838E+03  0.26991833555E+03  0.00000000000E+00 0. -1.
         11    1    3    3    0    0 -0.13804951074E+02 -0.15135175160E+02 -0.14517462540E+02  0.25107905526E+02  0.00000000000E+00 0. -1.
        -12    1    3    3    0    0  0.56711925863E+02  0.25262350610E+02 -0.17753946012E+03  0.18808160143E+03  0.00000000000E+00 0.  1.
          5    1    4    4  501    0  0.27807736470E+01  0.51413746780E+02 -0.10876689927E+02  0.52790916300E+02  0.41800000000E+01 0.  1.
         -5    1    4    4    0  501 -0.61883193597E+02  0.12642324885E+02  0.11686262505E+03  0.13290486659E+03  0.41800000000E+01 0.  1.
</event>
<event>
11    1  0.6625361E-009  0.2373509E+03  0.7561462E-02  0.1030862E+00
         22   -1    0    0    0    0  0.00000000000E+00  0.00000000000E+00  0.12661975563E+04  0.12661975563E+04  0.00000000000E+00 0. -1.
         22   -1    0    0    0    0 -0.00000000000E+00 -0.00000000000E+00 -0.58400985321E+03  0.58400985321E+03  0.00000000000E+00 0.  1.
        -24    2    1    2    0    0 -0.15549255114E+03  0.12834775867E+03 -0.52722766854E+03  0.56993678132E+03  0.78789844564E+02 0.  0.
         25    2    1    2    0    0  0.14782192058E+03 -0.14079618567E+03  0.40062424920E+03  0.46671249335E+03  0.12508347732E+03 0.  0.
         24    2    1    2    0    0  0.76706305594E+01  0.12448426996E+02  0.80879112241E+03  0.81355813483E+03  0.86717686511E+02 0.  0.
        -11    1    5    5    0    0  0.39174460081E+02 -0.47316567066E+01  0.20885696207E+03  0.21255177605E+03  0.00000000000E+00 0.  1.
         12    1    5    5    0    0 -0.31503829522E+02  0.17180083702E+02  0.59993416034E+03  0.60100635878E+03  0.00000000000E+00 0. -1.
         11    1    3    3    0    0 -0.60500758431E+01  0.27163064918E+02 -0.29763296667E+02  0.40746648230E+02  0.00000000000E+00 0. -1.
        -12    1    3    3    0    0 -0.14944247529E+03  0.10118469375E+03 -0.49746437188E+03  0.52919013309E+03  0.00000000000E+00 0.  1.
          5    1    4    4  501    0  0.74650948759E+02 -0.49080456225E+02  0.29681586919E+03  0.30999804505E+03  0.41800000000E+01 0.  1.
         -5    1    4    4    0  501  0.73170971817E+02 -0.91715729442E+02  0.10380838001E+03  0.15671444829E+03  0.41800000000E+01 0.  1.
</event>
<event>
11    1  0.6625361E-009  0.2217964E+03  0.7561462E-02  0.1040098E+00
         22   -1    0    0    0    0  0.00000000000E+00  0.00000000000E+00  0.29236702083E+03  0.29236702083E+03  0.00000000000E+00 0.  1.
         22   -1    0    0    0    0 -0.00000000000E+00 -0.00000000000E+00 -0.61440335837E+03  0.61440335837E+03  0.00000000000E+00 0.  1.
        -24    2    1    2    0    0 -0.57259477457E+02  0.17681080870E+03 -0.50576884005E+03  0.54476422142E+03  0.80157517095E+02 0.  0.
         25    2    1    2    0    0  0.39117961310E+02 -0.15952428232E+03  0.63088807839E+02  0.21588509895E+03  0.12509183318E+03 0.  0.
         24    2    1    2    0    0  0.18141516146E+02 -0.17286526383E+02  0.12064369467E+03  0.14612105883E+03  0.78539952682E+02 0.  0.
        -11    1    5    5    0    0 -0.56877321507E+01 -0.12466554685E+02  0.12103290219E+03  0.12180611108E+03  0.00000000000E+00 0.  1.
         12    1    5    5    0    0  0.23829248297E+02 -0.48199716983E+01 -0.38920752502E+00  0.24314947750E+02  0.00000000000E+00 0. -1.
         13    1    3    3    0    0  0.51013507650E+01  0.67921207706E+02 -0.26053217862E+03  0.26928856332E+03  0.00000000000E+00 0. -1.
        -14    1    3    3    0    0 -0.62360828222E+02  0.10888960100E+03 -0.24523666142E+03  0.27547565810E+03  0.00000000000E+00 0.  1.
          5    1    4    4  501    0 -0.10514090385E+02  0.16430269037E+02 -0.53097185282E+01  0.20643772623E+02  0.41800000000E+01 0. -1.
         -5    1    4    4    0  501  0.49632051696E+02 -0.17595455135E+03  0.68398526367E+02  0.19524132633E+03  0.41800000000E+01 0. -1.
</event>
<event>
11    1  0.6625361E-009  0.1467351E+03  0.7561462E-02  0.1100262E+00
         22   -1    0    0    0    0  0.00000000000E+00  0.00000000000E+00  0.20165215394E+04  0.20165215394E+04  0.00000000000E+00 0. -1.
         22   -1    0    0    0    0 -0.00000000000E+00 -0.00000000000E+00 -0.23763202779E+03  0.23763202779E+03  0.00000000000E+00 0.  1.
         24    2    1    2    0    0 -0.59961217773E+02  0.13300029358E+02 -0.14191819478E+03  0.17393743565E+03  0.79631771866E+02 0.  0.
         25    2    1    2    0    0  0.71794209784E+02  0.62561451669E+02  0.10486893717E+01  0.15721407667E+03  0.12508725899E+03 0.  0.
        -24    2    1    2    0    0 -0.11832992011E+02 -0.75861481027E+02  0.19197590170E+04  0.19230020549E+04  0.81038482398E+02 0.  0.
        -11    1    3    3    0    0 -0.19763479168E+02 -0.23037870941E+01 -0.12663566153E+03  0.12818928706E+03  0.00000000000E+00 0.  1.
         12    1    3    3    0    0 -0.40197738605E+02  0.15603816452E+02 -0.15282533250E+02  0.45748148589E+02  0.00000000000E+00 0. -1.
         13    1    5    5    0    0 -0.42530573469E+02 -0.65369268432E+02  0.14759594719E+04  0.14780183875E+04  0.00000000000E+00 0. -1.
        -14    1    5    5    0    0  0.30697581458E+02 -0.10492212595E+02  0.44379954507E+03  0.44498366738E+03  0.00000000000E+00 0.  1.
          5    1    4    4  501    0 -0.14269453515E+02  0.48629604358E+02 -0.36090153383E+02  0.62357255351E+02  0.41800000000E+01 0. -1.
         -5    1    4    4    0  501  0.86063663299E+02  0.13931847311E+02  0.37138842755E+02  0.94856821321E+02  0.41800000000E+01 0. -1.
</event>
<event>
11    1  0.6625361E-009  0.1484683E+03  0.7561462E-02  0.1098454E+00
         22   -1    0    0    0    0  0.00000000000E+00  0.00000000000E+00  0.12382909262E+03  0.12382909262E+03  0.00000000000E+00 0.  1.
         22   -1    0    0    0    0 -0.00000000000E+00 -0.00000000000E+00 -0.16269471711E+04  0.16269471711E+04  0.00000000000E+00 0.  1.
        -24    2    1    2    0    0  0.20161549313E+02 -0.75116545049E+02 -0.11508420668E+04  0.11557961589E+04  0.73336994835E+02 0.  0.
         25    2    1    2    0    0 -0.38478655787E+02  0.84380090338E+02 -0.44499363262E+03  0.47145237922E+03  0.12508959268E+03 0.  0.
         24    2    1    2    0    0  0.18317106474E+02 -0.92635452896E+01  0.92717620847E+02  0.12352772569E+03  0.79001342627E+02 0.  0.
        -11    1    5    5    0    0  0.81684713659E+01 -0.40935948796E+02  0.75025186436E+02  0.85856009854E+02  0.00000000000E+00 0.  1.
         12    1    5    5    0    0  0.10148635108E+02  0.31672403506E+02  0.17692434410E+02  0.37671715833E+02  0.00000000000E+00 0. -1.
         13    1    3    3    0    0  0.57344234667E+01 -0.49124375180E+02 -0.27254535411E+03  0.27699649437E+03  0.00000000000E+00 0. -1.
        -14    1    3    3    0    0  0.14427125846E+02 -0.25992169868E+02 -0.87829671265E+03  0.87879966449E+03  0.00000000000E+00 0.  1.
          5    1    4    4  501    0  0.33824276832E+02  0.12838389123E+02 -0.23810498437E+03  0.24087416200E+03  0.41800000000E+01 0.  1.
         -5    1    4    4    0  501 -0.72302932619E+02  0.71541701216E+02 -0.20688864826E+03  0.23057821722E+03  0.41800000000E+01 0.  1.
</event>
<event>
11    1  0.6625361E-009  0.3111092E+03  0.7561462E-02  0.9955962E-01
         22   -1    0    0    0    0  0.00000000000E+00  0.00000000000E+00  0.53405502777E+03  0.53405502777E+03  0.00000000000E+00 0. -1.
         22   -1    0    0    0    0 -0.00000000000E+00 -0.00000000000E+00 -0.23454524705E+04  0.23454524705E+04  0.00000000000E+00 0.  1.
        -24    2    1    2    0    0  0.18674153142E+03  0.21919337727E+03 -0.19212733156E+04  0.19444485020E+04  0.81674278429E+02 0.  0.
         25    2    1    2    0    0 -0.17250727444E+03 -0.20815424763E+03 -0.35462860363E+03  0.46313764378E+03  0.12509228607E+03 0.  0.
         24    2    1    2    0    0 -0.14234256978E+02 -0.11039129647E+02  0.46450447645E+03  0.47192135247E+03  0.81368776734E+02 0.  0.
        -13    1    5    5    0    0  0.26622700658E+02 -0.25402689938E+02  0.27969749358E+03  0.28210769710E+03  0.00000000000E+00 0.  1.
         14    1    5    5    0    0 -0.40856957636E+02  0.14363560291E+02  0.18480698287E+03  0.18981365538E+03  0.00000000000E+00 0. -1.
         11    1    3    3    0    0  0.38912943214E+02  0.24023498425E+02 -0.51450200259E+03  0.51653040211E+03  0.00000000000E+00 0. -1.
        -12    1    3    3    0    0  0.14782858820E+03  0.19516987885E+03 -0.14067713130E+04  0.14279180999E+04  0.00000000000E+00 0.  1.
          5    1    4    4  501    0 -0.12628734364E+03 -0.10375761242E+03 -0.12210094396E+03  0.20405942324E+03  0.41800000000E+01 0. -1.
         -5    1    4    4    0  501 -0.46219930805E+02 -0.10439663521E+03 -0.23252765967E+03  0.25907822054E+03  0.41800000000E+01 0. -1.
</event>
<event>
11    1  0.6625361E-009  0.1988521E+03  0.7561462E-02  0.1055338E+00
         22   -1    0    0    0    0  0.00000000000E+00  0.00000000000E+00  0.47887051780E+03  0.47887051780E+03  0.00000000000E+00 0. -1.
         22   -1    0    0    0    0 -0.00000000000E+00 -0.00000000000E+00 -0.98679710950E+03  0.98679710950E+03  0.00000000000E+00 0. -1.
        -24    2    1    2    0    0 -0.14421290171E+03  0.58697792415E+02 -0.66107085688E+03  0.68344134342E+03  0.76384554878E+02 0.  0.
         25    2    1    2    0    0  0.11418268309E+03 -0.11252497847E+03 -0.27610951923E+03  0.34290516457E+03  0.12509168390E+03 0.  0.
         24    2    1    2    0    0  0.30030218625E+02  0.53827186051E+02  0.42925378442E+03  0.43932111931E+03  0.70321081067E+02 0.  0.
        -13    1    5    5    0    0  0.28824440631E+02 -0.70636759904E+01  0.19663227798E+03  0.19885923825E+03  0.00000000000E+00 0.  1.
         14    1    5    5    0    0  0.12057779936E+01  0.60890862041E+02  0.23262150644E+03  0.24046188105E+03  0.00000000000E+00 0. -1.
         13    1    3    3    0    0 -0.64790121499E+02  0.64218800292E+02 -0.41103544098E+03  0.42103675362E+03  0.00000000000E+00 0. -1.
        -14    1    3    3    0    0 -0.79422780216E+02 -0.55210078769E+01 -0.25003541590E+03  0.26240458980E+03  0.00000000000E+00 0.  1.
          5    1    4    4  501    0  0.13194008302E+03 -0.94709458505E+02 -0.17567737899E+03  0.23928660833E+03  0.41800000000E+01 0.  1.
         -5    1    4    4    0  501 -0.17757399927E+02 -0.17815519961E+02 -0.10043214024E+03  0.10361855624E+03  0.41800000000E+01 0.  1.
</event>
<event>
11    1  0.6625361E-009  0.1365487E+03  0.7561462E-02  0.1111475E+00
         22   -1    0    0    0    0  0.00000000000E+00  0.00000000000E+00  0.38361020701E+02  0.38361020701E+02  0.00000000000E+00 0. -1.
         22   -1    0    0    0    0 -0.00000000000E+00 -0.00000000000E+00 -0.15664515249E+04  0.15664515249E+04  0.00000000000E+00 0.  1.
        -24    2    1    2    0    0 -0.45685602208E+02 -0.30231626166E+02 -0.11492360859E+04  0.11533739659E+04  0.80788604745E+02 0.  0.
         25    2    1    2    0    0  0.74896563450E+02 -0.18148574924E+02 -0.20279860564E+03  0.25042088444E+03  0.12507789144E+03 0.  0.
         24    2    1    2    0    0 -0.29210961242E+02  0.48380201090E+02 -0.17605581269E+03  0.20101769527E+03  0.78857723242E+02 0.  0.
        -11    1    5    5    0    0  0.19910658549E+01  0.18155302164E+02 -0.14840189703E+03  0.14952157831E+03  0.00000000000E+00 0.  1.
         12    1    5    5    0    0 -0.31202027097E+02  0.30224898926E+02 -0.27653915663E+02  0.51496116956E+02  0.00000000000E+00 0. -1.
         13    1    3    3    0    0 -0.23652476566E+02  0.12465382159E+02 -0.11681952880E+03  0.11984000880E+03  0.00000000000E+00 0. -1.
        -14    1    3    3    0    0 -0.22033125641E+02 -0.42697008324E+02 -0.10324165571E+04  0.10335339571E+04  0.00000000000E+00 0.  1.
          5    1    4    4  501    0  0.76342739653E+02 -0.60128782200E+02 -0.10102280553E+03  0.14023824009E+03  0.41800000000E+01 0. -1.
         -5    1    4    4    0  501 -0.14461762038E+01  0.41980207276E+02 -0.10177580010E+03  0.11018264435E+03  0.41800000000E+01 0. -1.
</event>
<event>
11    1  0.8832850E-009  0.1503132E+03  0.7561462E-02  0.1096559E+00
         22   -1    0    0    0    0  0.00000000000E+00  0.00000000000E+00  0.82466256934E+03  0.82466256934E+03  0.00000000000E+00 0. -1.
         22   -1    0    0    0    0 -0.00000000000E+00 -0.00000000000E+00 -0.53679269175E+03  0.53679269175E+03  0.00000000000E+00 0. -1.
        -24    2    1    2    0    0  0.97408306545E+00 -0.13205661629E+02 -0.37879204327E+03  0.38645694616E+03  0.75433552568E+02 0.  0.
         25    2    1    2    0    0  0.81452000350E+02  0.25341355250E+02 -0.11186258293E+03  0.18825035829E+03  0.12509335430E+03 0.  0.
         24    2    1    2    0    0 -0.82426083415E+02 -0.12135693621E+02  0.77852450379E+03  0.78674795664E+03  0.77010453731E+02 0.  0.
        -11    1    5    5    0    0 -0.11360497010E+02  0.21633723081E+02  0.76009914342E+02  0.79841004158E+02  0.00000000000E+00 0.  1.
         12    1    5    5    0    0 -0.71065586405E+02 -0.33769416702E+02  0.70251458945E+03  0.70690695248E+03  0.00000000000E+00 0. -1.
         13    1    3    3    0    0 -0.17644317461E+02 -0.32932965973E+01 -0.35152955931E+03  0.35198749809E+03  0.00000000000E+00 0. -1.
        -14    1    3    3    0    0  0.18618400527E+02 -0.99123650313E+01 -0.27262483961E+02  0.34469448072E+02  0.00000000000E+00 0.  1.
          5    1    4    4  501    0  0.63060569700E+02 -0.45011949485E+02 -0.46975023511E+02  0.90701908917E+02  0.41800000000E+01 0.  1.
         -5    1    4    4    0  501  0.18391430649E+02  0.70353304734E+02 -0.64887559416E+02  0.97548449374E+02  0.41800000000E+01 0.  1.
</event>
<event>
11    1  0.6625361E-009  0.2125562E+03  0.7561462E-02  0.1045983E+00
         22   -1    0    0    0    0  0.00000000000E+00  0.00000000000E+00  0.11835904494E+04  0.11835904494E+04  0.00000000000E+00 0.  1.
         22   -1    0    0    0    0 -0.00000000000E+00 -0.00000000000E+00 -0.27948095122E+03  0.27948095122E+03  0.00000000000E+00 0. -1.
         24    2    1    2    0    0  0.62460135257E+01  0.16415458008E+03 -0.14321795239E+03  0.23232532400E+03  0.80485622552E+02 0.  0.
         25    2    1    2    0    0  0.14746384305E+02 -0.19842596253E+03  0.64399169154E+02  0.24369103081E+03  0.12509095512E+03 0.  0.
        -24    2    1    2    0    0 -0.20992397830E+02  0.34271382451E+02  0.98292828145E+03  0.98705504585E+03  0.80712134407E+02 0.  0.
        -13    1    3    3    0    0 -0.32797903281E+02  0.40186221443E+02 -0.52657749108E+02  0.73915312315E+02  0.00000000000E+00 0.  1.
         14    1    3    3    0    0  0.39043916807E+02  0.12396835864E+03 -0.90560203285E+02  0.15841001169E+03  0.00000000000E+00 0. -1.
         13    1    5    5    0    0 -0.49570528718E+02  0.14738293023E+02  0.44090825725E+03  0.44393078955E+03  0.00000000000E+00 0. -1.
        -14    1    5    5    0    0  0.28578130888E+02  0.19533089428E+02  0.54202002420E+03  0.54312425630E+03  0.00000000000E+00 0.  1.
          5    1    4    4  501    0 -0.32320175844E+02 -0.16526638224E+03  0.76017889313E+02  0.18480736663E+03  0.41800000000E+01 0.  1.
         -5    1    4    4    0  501  0.47066560148E+02 -0.33159580297E+02 -0.11618720159E+02  0.58883664185E+02  0.41800000000E+01 0.  1.
</event>
<event>
11    1  0.6625361E-009  0.1499265E+03  0.7561462E-02  0.1096954E+00
         22   -1    0    0    0    0  0.00000000000E+00  0.00000000000E+00  0.15085836679E+04  0.15085836679E+04  0.00000000000E+00 0.  1.
         22   -1    0    0    0    0 -0.00000000000E+00 -0.00000000000E+00 -0.30169584136E+02  0.30169584136E+02  0.00000000000E+00 0.  1.
        -24    2    1    2    0    0  0.30237440875E+02  0.69551962140E+02  0.17663377608E+03  0.20821689359E+03  0.80018783147E+02 0.  0.
         25    2    1    2    0    0 -0.11887371688E+02 -0.11967576250E+03  0.93196629577E+03  0.94798335656E+03  0.12509064761E+03 0.  0.
         24    2    1    2    0    0 -0.18350069187E+02  0.50123800358E+02  0.36981401187E+03  0.38255300185E+03  0.82068723911E+02 0.  0.
        -13    1    5    5    0    0 -0.12929307356E+00  0.81571884670E+01  0.29323147431E+03  0.29334494024E+03  0.00000000000E+00 0.  1.
         14    1    5    5    0    0 -0.18220776113E+02  0.41966611891E+02  0.76582537561E+02  0.89208061603E+02  0.00000000000E+00 0. -1.
         13    1    3    3    0    0  0.17636873002E+00 -0.56390921219E+01 -0.61214591203E+01  0.83248259832E+01  0.00000000000E+00 0. -1.
        -14    1    3    3    0    0  0.30061072145E+02  0.75191054262E+02  0.18275523520E+03  0.19989206761E+03  0.00000000000E+00 0.  1.
          5    1    4    4  501    0 -0.39574546193E+01 -0.34954928551E+02  0.69952386190E+03  0.70042031256E+03  0.41800000000E+01 0.  1.
         -5    1    4    4    0  501 -0.79299170690E+01 -0.84720833947E+02  0.23244243387E+03  0.24756304400E+03  0.41800000000E+01 0.  1.
</event>
<event>
11    1  0.6625361E-009  0.1332668E+03  0.7561462E-02  0.1115319E+00
         22   -1    0    0    0    0  0.00000000000E+00  0.00000000000E+00  0.10776194513E+03  0.10776194513E+03  0.00000000000E+00 0.  1.
         22   -1    0    0    0    0 -0.00000000000E+00 -0.00000000000E+00 -0.15325316755E+04  0.15325316755E+04  0.00000000000E+00 0. -1.
        -24    2    1    2    0    0 -0.71662927897E+01  0.23607977517E+02 -0.11935569513E+04  0.11964336538E+04  0.79161856469E+02 0.  0.
         25    2    1    2    0    0 -0.33137252517E+02 -0.44931268964E+02 -0.29948385027E+03  0.32932686469E+03  0.12509480723E+03 0.  0.
         24    2    1    2    0    0  0.40303545307E+02  0.21323291447E+02  0.68271071239E+02  0.11453310214E+03  0.79861341054E+02 0.  0.
        -13    1    5    5    0    0  0.11802487403E+02  0.12693708479E+02  0.80497197294E+02  0.82342138156E+02  0.00000000000E+00 0.  1.
         14    1    5    5    0    0  0.28501057904E+02  0.86295829680E+01 -0.12226126055E+02  0.32190963983E+02  0.00000000000E+00 0. -1.
         13    1    3    3    0    0  0.29903700661E+02  0.88088948718E+01 -0.84905238381E+03  0.84962449258E+03  0.00000000000E+00 0. -1.
        -14    1    3    3    0    0 -0.37069993451E+02  0.14799082645E+02 -0.34450456748E+03  0.34680916117E+03  0.00000000000E+00 0.  1.
          5    1    4    4  501    0 -0.41147716509E+02 -0.85148742375E+02 -0.18846501522E+03  0.21090276732E+03  0.41800000000E+01 0. -1.
         -5    1    4    4    0  501  0.80104639919E+01  0.40217473411E+02 -0.11101883506E+03  0.11842409737E+03  0.41800000000E+01 0. -1.
</event>
<event>
11    1  0.6625361E-009  0.2100874E+03  0.7561462E-02  0.1047611E+00
         22   -1    0    0    0    0  0.00000000000E+00  0.00000000000E+00  0.11116881538E+04  0.11116881538E+04  0.00000000000E+00 0.  1.
         22   -1    0    0    0    0 -0.00000000000E+00 -0.00000000000E+00 -0.12056188744E+04  0.12056188744E+04  0.00000000000E+00 0. -1.
        -24    2    1    2    0    0  0.99300649450E+02  0.13660044626E+03 -0.11740839590E+04  0.11889392126E+04  0.81135735535E+02 0.  0.
         25    2    1    2    0    0 -0.57305775427E+02 -0.15851168444E+03  0.52320468849E+03  0.56373825218E+03  0.12509102653E+03 0.  0.
         24    2    1    2    0    0 -0.41994874023E+02  0.21911238184E+02  0.55694854988E+03  0.56462956340E+03  0.79819702170E+02 0.  0.
        -11    1    5    5    0    0  0.19296960766E+02  0.23433804912E+02  0.22850208694E+03  0.23050969534E+03  0.00000000000E+00 0.  1.
         12    1    5    5    0    0 -0.61291834789E+02 -0.15225667286E+01  0.32844646294E+03  0.33411986807E+03  0.00000000000E+00 0. -1.
         11    1    3    3    0    0  0.77924074801E+02  0.13794570874E+03 -0.11127628797E+04  0.11239850561E+04  0.00000000000E+00 0. -1.
        -12    1    3    3    0    0  0.21376574649E+02 -0.13452624806E+01 -0.61321079313E+02  0.64954156472E+02  0.00000000000E+00 0.  1.
          5    1    4    4  501    0 -0.52329183342E+01 -0.12074171529E+03  0.19645503249E+03  0.23069026298E+03  0.41800000000E+01 0. -1.
         -5    1    4    4    0  501 -0.52072857093E+02 -0.37769969151E+02  0.32674965600E+03  0.33304798920E+03  0.41800000000E+01 0. -1.
</event>
<event>
11    1  0.6625361E-009  0.1362347E+03  0.7561462E-02  0.1111837E+00
         22   -1    0    0    0    0  0.00000000000E+00  0.00000000000E+00  0.39579485036E+03  0.39579485036E+03  0.00000000000E+00 0. -1.
         22   -1    0    0    0    0 -0.00000000000E+00 -0.00000000000E+00 -0.12152620352E+04  0.12152620352E+04  0.00000000000E+00 0.  1.
         24    2    1    2    0    0 -0.35602977162E+02 -0.40381957040E+02 -0.10936288414E+04  0.10982229896E+04  0.84684222936E+02 0.  0.
         25    2    1    2    0    0  0.95621346605E+01  0.67824129131E+02 -0.68929643855E+02  0.15837722326E+03  0.12506199316E+03 0.  0.
        -24    2    1    2    0    0  0.26040842502E+02 -0.27442172091E+02  0.34309130045E+03  0.35445667270E+03  0.80602072509E+02 0.  0.
        -11    1    3    3    0    0 -0.47505817732E+02  0.30885967805E+01 -0.77007217215E+03  0.77154228172E+03  0.00000000000E+00 0.  1.
         12    1    3    3    0    0  0.11902840570E+02 -0.43470553821E+02 -0.32355666929E+03  0.32668070788E+03  0.00000000000E+00 0. -1.
         11    1    5    5    0    0  0.49845571817E+01 -0.39369950475E+02  0.31452116171E+03  0.31701482611E+03  0.00000000000E+00 0. -1.
        -12    1    5    5    0    0  0.21056285320E+02  0.11927778384E+02  0.28570138739E+02  0.37441846592E+02  0.00000000000E+00 0.  1.
          5    1    4    4  501    0 -0.18028825148E+02 -0.31457949618E+02 -0.44961687993E+01  0.36774027033E+02  0.41800000000E+01 0. -1.
         -5    1    4    4    0  501  0.27590959809E+02  0.99282078749E+02 -0.64433475055E+02  0.12160319622E+03  0.41800000000E+01 0. -1.
</event>
<event>
11    1  0.6625361E-009  0.1501586E+03  0.7561462E-02  0.1096717E+00
         22   -1    0    0    0    0  0.00000000000E+00  0.00000000000E+00  0.16591941170E+04  0.16591941170E+04  0.00000000000E+00 0. -1.
         22   -1    0    0    0    0 -0.00000000000E+00 -0.00000000000E+00 -0.28166980428E+03  0.28166980428E+03  0.00000000000E+00 0.  1.
         24    2    1    2    0    0  0.93552857058E+01 -0.64142666909E+02 -0.23284011874E+03  0.25463831190E+03  0.80152017474E+02 0.  0.
         25    2    1    2    0    0  0.37443888642E+02 -0.87828759434E+01  0.84580771795E+02  0.15582058741E+03  0.12508782833E+03 0.  0.
        -24    2    1    2    0    0 -0.46799174348E+02  0.72925542852E+02  0.15257836597E+04  0.15304050220E+04  0.81335463537E+02 0.  0.
        -11    1    3    3    0    0 -0.32722242599E+02 -0.34693397584E+02 -0.14768297039E+03  0.15519225735E+03  0.00000000000E+00 0.  1.
         12    1    3    3    0    0  0.42077528305E+02 -0.29449269324E+02 -0.85157148349E+02  0.99446054557E+02  0.00000000000E+00 0. -1.
         13    1    5    5    0    0 -0.46110765998E+02  0.36875757194E+01  0.79634772951E+03  0.79769010728E+03  0.00000000000E+00 0. -1.
        -14    1    5    5    0    0 -0.68840835018E+00  0.69237967133E+02  0.72943593015E+03  0.73271491467E+03  0.00000000000E+00 0.  1.
          5    1    4    4  501    0 -0.92472171606E+01 -0.47530987588E+02  0.81539530997E+02  0.94925619943E+02  0.41800000000E+01 0. -1.
         -5    1    4    4    0  501  0.46691105803E+02  0.38748111644E+02  0.30412407980E+01  0.60894967466E+02  0.41800000000E+01 0. -1.
</event>
<event>
11    1  0.6625361E-009  0.1661849E+03  0.7561462E-02  0.1081400E+00
         22   -1    0    0    0    0  0.00000000000E+00  0.00000000000E+00  0.14200465960E+03  0.14200465960E+03  0.00000000000E+00 0. -1.
         22   -1    0    0    0    0 -0.00000000000E+00 -0.00000000000E+00 -0.27955810765E+04  0.27955810765E+04  0.00000000000E+00 0.  1.
         24    2    1    2    0    0 -0.10616645202E+03  0.46928103101E+02 -0.25895028988E+04  0.25932957979E+04  0.78640130786E+02 0.  0.
         25    2    1    2    0    0  0.28956007374E+02  0.27775332543E+02 -0.13508861099E+03  0.18842943056E+03  0.12508716169E+03 0.  0.
        -24    2    1    2    0    0  0.77210444650E+02 -0.74703435645E+02  0.71015092925E+02  0.15586050760E+03  0.87791220203E+02 0.  0.
        -11    1    3    3    0    0 -0.10446834392E+03  0.54896598729E+02 -0.18562675593E+04  0.18600151943E+04  0.00000000000E+00 0.  1.
         12    1    3    3    0    0 -0.16981081036E+01 -0.79684956275E+01 -0.73323533953E+03  0.73328060360E+03  0.00000000000E+00 0. -1.
         13    1    5    5    0    0  0.70984527736E+02 -0.91075601454E+02  0.75267137792E+02  0.13783580953E+03  0.00000000000E+00 0. -1.
        -14    1    5    5    0    0  0.62259169136E+01  0.16372165809E+02 -0.42520448674E+01  0.18024698063E+02  0.00000000000E+00 0.  1.
          5    1    4    4  501    0  0.72081201053E+02  0.93866634958E+01 -0.41840677416E+02  0.83975732706E+02  0.41800000000E+01 0.  1.
         -5    1    4    4    0  501 -0.43125193679E+02  0.18388669047E+02 -0.93247933577E+02  0.10445369785E+03  0.41800000000E+01 0.  1.
</event>
<event>
11    1  0.6625361E-009  0.1654560E+03  0.7561462E-02  0.1082055E+00
         22   -1    0    0    0    0  0.00000000000E+00  0.00000000000E+00  0.29175205772E+03  0.29175205772E+03  0.00000000000E+00 0. -1.
         22   -1    0    0    0    0 -0.00000000000E+00 -0.00000000000E+00 -0.10556845832E+04  0.10556845832E+04  0.00000000000E+00 0. -1.
        -24    2    1    2    0    0  0.70899411192E+02 -0.88473035505E+02 -0.93867652956E+03  0.94893757430E+03  0.80713618825E+02 0.  0.
         25    2    1    2    0    0 -0.65601721674E+02  0.20807176383E+02 -0.49123129767E+02  0.15098673768E+03  0.12508952235E+03 0.  0.
         24    2    1    2    0    0 -0.52976895186E+01  0.67665859122E+02  0.22386713386E+03  0.24751232893E+03  0.80864858528E+02 0.  0.
        -13    1    5    5    0    0 -0.29339964251E+02  0.11983411818E+02  0.27395462726E+02  0.41892088024E+02  0.00000000000E+00 0.  1.
         14    1    5    5    0    0  0.24042274733E+02  0.55682447304E+02  0.19647167113E+03  0.20562024090E+03  0.00000000000E+00 0. -1.
         13    1    3    3    0    0  0.65493760425E+02 -0.10299065089E+03 -0.77792177592E+03  0.78743812219E+03  0.00000000000E+00 0. -1.
        -14    1    3    3    0    0  0.54056507668E+01  0.14517615380E+02 -0.16075475364E+03  0.16149945212E+03  0.00000000000E+00 0.  1.
          5    1    4    4  501    0  0.62978304315E+01 -0.35321879768E+02 -0.47484804223E+02  0.59662189790E+02  0.41800000000E+01 0.  1.
         -5    1    4    4    0  501 -0.71899552105E+02  0.56129056151E+02 -0.16383255443E+01  0.91324547893E+02  0.41800000000E+01 0.  1.
</event>
<event>
11    1  0.6625361E-009  0.1567122E+03  0.7561462E-02  0.1090211E+00
         22   -1    0    0    0    0  0.00000000000E+00  0.00000000000E+00  0.96562604959E+03  0.96562604959E+03  0.00000000000E+00 0.  1.
         22   -1    0    0    0    0 -0.00000000000E+00 -0.00000000000E+00 -0.13517592701E+03  0.13517592701E+03  0.00000000000E+00 0. -1.
         24    2    1    2    0    0  0.67747449182E+01 -0.10458337624E+02 -0.51569723129E+02  0.79049341532E+02  0.58601092639E+02 0.  0.
         25    2    1    2    0    0 -0.98014974823E+02  0.32310940469E+02  0.35203066380E+02  0.16594262352E+03  0.12508703472E+03 0.  0.
        -24    2    1    2    0    0  0.91240229904E+02 -0.21852602845E+02  0.84681677933E+03  0.85581001155E+03  0.80683345864E+02 0.  0.
        -13    1    3    3    0    0  0.27471709655E+02 -0.57994736540E+01 -0.58967355042E+01  0.28689723171E+02  0.00000000000E+00 0.  1.
         14    1    3    3    0    0 -0.20696964737E+02 -0.46588639697E+01 -0.45672987625E+02  0.50359618360E+02  0.00000000000E+00 0. -1.
         11    1    5    5    0    0 -0.84763035066E+01 -0.14164607138E+02  0.48049768425E+02  0.50806141973E+02  0.00000000000E+00 0. -1.
        -12    1    5    5    0    0  0.99716533411E+02 -0.76879957073E+01  0.79876701091E+03  0.80500386957E+03  0.00000000000E+00 0.  1.
          5    1    4    4  501    0  0.71902739384E+01  0.34778390891E+02  0.47994694428E+02  0.59851479560E+02  0.41800000000E+01 0. -1.
         -5    1    4    4    0  501 -0.10520524876E+03 -0.24674504215E+01 -0.12791628048E+02  0.10609114396E+03  0.41800000000E+01 0. -1.
</event>
<event>
11    1  0.6625361E-009  0.1549522E+03  0.7561462E-02  0.1091923E+00
         22   -1    0    0    0    0  0.00000000000E+00  0.00000000000E+00  0.93637636634E+03  0.93637636634E+03  0.00000000000E+00 0. -1.
         22   -1    0    0    0    0 -0.00000000000E+00 -0.00000000000E+00 -0.13372089674E+03  0.13372089674E+03  0.00000000000E+00 0. -1.
        -24    2    1    2    0    0  0.30780385460E+02 -0.22401239897E+01 -0.88069756008E+02  0.12338676186E+03  0.80719023746E+02 0.  0.
         25    2    1    2    0    0 -0.26847232077E+02 -0.89647946014E+02  0.25381206055E+03  0.29803474666E+03  0.12508645028E+03 0.  0.
         24    2    1    2    0    0 -0.39331533827E+01  0.91888070003E+02  0.63691316506E+03  0.64867575456E+03  0.81627003017E+02 0.  0.
        -13    1    5    5    0    0 -0.32842078395E+02  0.11735959609E+02  0.25494575173E+03  0.25732017252E+03  0.00000000000E+00 0.  1.
         14    1    5    5    0    0  0.28908925013E+02  0.80152110394E+02  0.38196741333E+03  0.39135558203E+03  0.00000000000E+00 0. -1.
         11    1    3    3    0    0 -0.93124362022E+01  0.99422839927E+01 -0.79446397815E+02  0.80605834806E+02  0.00000000000E+00 0. -1.
        -12    1    3    3    0    0  0.40092821662E+02 -0.12182407982E+02 -0.86233581925E+01  0.42780927054E+02  0.00000000000E+00 0.  1.
          5    1    4    4  501    0 -0.72799917662E+02 -0.50843617338E+02  0.10563640108E+03  0.13806311263E+03  0.41800000000E+01 0. -1.
         -5    1    4    4    0  501  0.45952685585E+02 -0.38804328675E+02  0.14817565947E+03  0.15997163404E+03  0.41800000000E+01 0. -1.
</event>
<event>
11    1  0.6625361E-009  0.1682684E+03  0.7561462E-02  0.1079548E+00
         22   -1    0    0    0    0  0.00000000000E+00  0.00000000000E+00  0.15566513454E+04  0.15566513454E+04  0.00000000000E+00 0. -1.
         22   -1    0    0    0    0 -0.00000000000E+00 -0.00000000000E+00 -0.72369587431E+02  0.72369587431E+02  0.00000000000E+00 0. -1.
        -24    2    1    2    0    0  0.41496193593E+01 -0.13143336823E+01 -0.19855197328E+02  0.83809947549E+02  0.81307635763E+02 0.  0.
         25    2    1    2    0    0 -0.95996227111E+02  0.64870703457E+02  0.42892124271E+03  0.46156742253E+03  0.12509024465E+03 0.  0.
         24    2    1    2    0    0  0.91846607751E+02 -0.63556369774E+02  0.10752157125E+04  0.10836435627E+04  0.75626258693E+02 0.  0.
        -11    1    5    5    0    0  0.33258248959E+02  0.16691138053E+01  0.12392424217E+03  0.12832036028E+03  0.00000000000E+00 0.  1.
         12    1    5    5    0    0  0.58588358793E+02 -0.65225483580E+02  0.95129147038E+03  0.95532320243E+03  0.00000000000E+00 0. -1.
         11    1    3    3    0    0  0.41492790556E+02 -0.10656768777E+02 -0.12429680524E+02  0.44606225426E+02  0.00000000000E+00 0. -1.
        -12    1    3    3    0    0 -0.37343171196E+02  0.93424350945E+01 -0.74255168040E+01  0.39203722123E+02  0.00000000000E+00 0.  1.
          5    1    4    4  501    0 -0.93570743104E+02 -0.60000314361E+01  0.30041007845E+03  0.31473031626E+03  0.41800000000E+01 0. -1.
         -5    1    4    4    0  501 -0.24254840064E+01  0.70870734893E+02  0.12851116427E+03  0.14683710627E+03  0.41800000000E+01 0. -1.
</event>
<event>
11    1  0.6625361E-009  0.1309121E+03  0.7561462E-02  0.1118153E+00
         22   -1    0    0    0    0  0.00000000000E+00  0.00000000000E+00  0.29652057986E+03  0.29652057986E+03  0.00000000000E+00 0.  1.
         22   -1    0    0    0    0 -0.00000000000E+00 -0.00000000000E+00 -0.82062540537E+03  0.82062540537E+03  0.00000000000E+00 0.  1.
        -24    2    1    2    0    0  0.38816470468E+01 -0.22605343264E+02 -0.67891969021E+03  0.68408249104E+03  0.80689776697E+02 0.  0.
         25    2    1    2    0    0 -0.39505849775E+02  0.71330935909E+01 -0.99783407359E+02  0.16497607095E+03  0.12509509348E+03 0.  0.
         24    2    1    2    0    0  0.35624202728E+02  0.15472249673E+02  0.25459827207E+03  0.26808742324E+03  0.74445362691E+02 0.  0.
        -13    1    5    5    0    0 -0.23205803202E+02  0.27711107398E+01  0.83674359762E+02  0.86876848691E+02  0.00000000000E+00 0.  1.
         14    1    5    5    0    0  0.58830005930E+02  0.12701138933E+02  0.17092391231E+03  0.18121057454E+03  0.00000000000E+00 0. -1.
         11    1    3    3    0    0  0.13478444190E+02 -0.26337366841E+02 -0.83723515530E+02  0.88797254476E+02  0.00000000000E+00 0. -1.
        -12    1    3    3    0    0 -0.95967971427E+01  0.37320235768E+01 -0.59519617468E+03  0.59528523657E+03  0.00000000000E+00 0.  1.
          5    1    4    4  501    0 -0.16206886513E+02 -0.39450610216E+02 -0.10406974179E+03  0.11254775597E+03  0.41800000000E+01 0.  1.
         -5    1    4    4    0  501 -0.23298963261E+02  0.46583703807E+02  0.42863344300E+01  0.52428314986E+02  0.41800000000E+01 0.  1.
</event>
<event>
11    1  0.6625361E-009  0.1408882E+03  0.7561462E-02  0.1106571E+00
         22   -1    0    0    0    0  0.00000000000E+00  0.00000000000E+00  0.68065089448E+03  0.68065089448E+03  0.00000000000E+00 0.  1.
         22   -1    0    0    0    0 -0.00000000000E+00 -0.00000000000E+00 -0.28065777931E+03  0.28065777931E+03  0.00000000000E+00 0.  1.
        -24    2    1    2    0    0  0.27289547914E+02 -0.58923919774E+02 -0.19581690670E+03  0.22252400321E+03  0.83402178083E+02 0.  0.
         25    2    1    2    0    0 -0.60010187714E+02  0.41202925334E+02  0.84062301021E+01  0.14497143349E+03  0.12508856118E+03 0.  0.
         24    2    1    2    0    0  0.32720639800E+02  0.17720994440E+02  0.58740379177E+03  0.59381323709E+03  0.78652857849E+02 0.  0.
        -11    1    5    5    0    0  0.49004893861E+02 -0.11139993362E+02  0.26600690587E+03  0.27071249149E+03  0.00000000000E+00 0.  1.
         12    1    5    5    0    0 -0.16284254061E+02  0.28860987802E+02  0.32139688590E+03  0.32310074561E+03  0.00000000000E+00 0. -1.
         11    1    3    3    0    0  0.39533296621E+02  0.12824495127E+01 -0.11066474582E+03  0.11752111378E+03  0.00000000000E+00 0. -1.
        -12    1    3    3    0    0 -0.12243748707E+02 -0.60206369287E+02 -0.85152160884E+02  0.10500288943E+03  0.00000000000E+00 0.  1.
          5    1    4    4  501    0 -0.54901351028E+02  0.48936068390E+01 -0.50885546208E+02  0.75132662308E+02  0.41800000000E+01 0.  1.
         -5    1    4    4    0  501 -0.51088366860E+01  0.36309318495E+02  0.59291776310E+02  0.69838771180E+02  0.41800000000E+01 0.  1.
</event>
<event>
11    1  0.6625361E-009  0.1424027E+03  0.7561462E-02  0.1104905E+00
         22   -1    0    0    0    0  0.00000000000E+00  0.00000000000E+00  0.17685356845E+03  0.17685356845E+03  0.00000000000E+00 0. -1.
         22   -1    0    0    0    0 -0.00000000000E+00 -0.00000000000E+00 -0.20716602105E+04  0.20716602105E+04  0.00000000000E+00 0. -1.
        -24    2    1    2    0    0  0.17956050005E+02  0.53838671035E+02 -0.18377714691E+04  0.18404017488E+04  0.80334313392E+02 0.  0.
         25    2    1    2    0    0 -0.15350783594E+02  0.18434807084E+02 -0.19536638540E+03  0.23321867913E+03  0.12508972412E+03 0.  0.
         24    2    1    2    0    0 -0.26052664107E+01 -0.72273478120E+02  0.13833121246E+03  0.17489335108E+03  0.78879128143E+02 0.  0.
        -13    1    5    5    0    0  0.14377475421E+02  0.13068633757E+02  0.18728143759E+02  0.26986002972E+02  0.00000000000E+00 0.  1.
         14    1    5    5    0    0 -0.16982741831E+02 -0.85342111877E+02  0.11960306870E+03  0.14790734810E+03  0.00000000000E+00 0. -1.
         13    1    3    3    0    0 -0.30713067619E+01  0.59869024306E+02 -0.16856374911E+04  0.16867031406E+04  0.00000000000E+00 0. -1.
        -14    1    3    3    0    0  0.21027356767E+02 -0.60303532711E+01 -0.15213397800E+03  0.15369860818E+03  0.00000000000E+00 0.  1.
          5    1    4    4  501    0  0.41664699026E+02  0.34769655455E+02 -0.14641397294E+03  0.15620307282E+03  0.41800000000E+01 0.  1.
         -5    1    4    4    0  501 -0.57015482620E+02 -0.16334848371E+02 -0.48952412462E+02  0.77015606311E+02  0.41800000000E+01 0.  1.
</event>
<event>
11    1  0.6625361E-009  0.3549963E+03  0.7561462E-02  0.9792752E-01
         22   -1    0    0    0    0  0.00000000000E+00  0.00000000000E+00  0.70608384696E+03  0.70608384696E+03  0.00000000000E+00 0.  1.
         22   -1    0    0    0    0 -0.00000000000E+00 -0.00000000000E+00 -0.68881957726E+03  0.68881957726E+03  0.00000000000E+00 0. -1.
         24    2    1    2    0    0  0.12211683735E+03  0.77920426354E+01 -0.63535719046E+03  0.65197868730E+03  0.80151178027E+02 0.  0.
         25    2    1    2    0    0 -0.16869015447E+02 -0.21588278914E+02  0.71041523140E+02  0.14643664961E+03  0.12508467879E+03 0.  0.
        -24    2    1    2    0    0 -0.10524782190E+03  0.13796236279E+02  0.58157993701E+03  0.59648808731E+03  0.79343399357E+02 0.  0.
        -13    1    3    3    0    0 -0.58015353082E+01 -0.65550597537E+01 -0.90885575285E+01  0.12618577505E+02  0.00000000000E+00 0.  1.
         14    1    3    3    0    0  0.12791837266E+03  0.14347102389E+02 -0.62626863293E+03  0.63936010980E+03  0.00000000000E+00 0. -1.
         11    1    5    5    0    0 -0.62980117409E+02 -0.29891535908E+02  0.36187178015E+03  0.36852569026E+03  0.00000000000E+00 0. -1.
        -12    1    5    5    0    0 -0.42267704494E+02  0.43687772186E+02  0.21970815686E+03  0.22796239706E+03  0.00000000000E+00 0.  1.
          5    1    4    4  501    0  0.17943733083E+02 -0.67670356015E+02  0.37931640398E+02  0.79734160706E+02  0.41800000000E+01 0.  1.
         -5    1    4    4    0  501 -0.34812748530E+02  0.46082077101E+02  0.33109882742E+02  0.66702488900E+02  0.41800000000E+01 0.  1.
</event>
<event>
11    1  0.6625361E-009  0.1353900E+03  0.7561462E-02  0.1112818E+00
         22   -1    0    0    0    0  0.00000000000E+00  0.00000000000E+00  0.97970919260E+03  0.97970919260E+03  0.00000000000E+00 0.  1.
         22   -1    0    0    0    0 -0.00000000000E+00 -0.00000000000E+00 -0.13022548382E+03  0.13022548382E+03  0.00000000000E+00 0.  1.
         24    2    1    2    0    0 -0.19529331187E+02 -0.57549664017E+01 -0.10026920971E+03  0.12775538906E+03  0.76504971099E+02 0.  0.
         25    2    1    2    0    0  0.66715145222E+02  0.48590527533E+01  0.39359171065E+03  0.41837430093E+03  0.12509236584E+03 0.  0.
        -24    2    1    2    0    0 -0.47185814034E+02  0.89591364845E+00  0.55616120784E+03  0.56380498643E+03  0.79583100681E+02 0.  0.
        -11    1    3    3    0    0 -0.90960696497E+01  0.91281867732E+01 -0.10744449030E+03  0.10821451276E+03  0.00000000000E+00 0.  1.
         12    1    3    3    0    0 -0.10433261538E+02 -0.14883153175E+02  0.71752805921E+01  0.19540876293E+02  0.00000000000E+00 0. -1.
         13    1    5    5    0    0 -0.72365087116E+01  0.28393237464E+01  0.17695930691E+01  0.79724699623E+01  0.00000000000E+00 0. -1.
        -14    1    5    5    0    0 -0.39949305323E+02 -0.19434100979E+01  0.55439161477E+03  0.55583251647E+03  0.00000000000E+00 0.  1.
          5    1    4    4  501    0 -0.42263690667E+01 -0.39831852094E+02  0.47635449205E+02  0.62378257892E+02  0.41800000000E+01 0.  1.
         -5    1    4    4    0  501  0.70941514288E+02  0.44690904848E+02  0.34595626144E+03  0.35599604304E+03  0.41800000000E+01 0.  1.
</event>
<event>
11    1  0.6625361E-009  0.1278143E+03  0.7561462E-02  0.1121984E+00
         22   -1    0    0    0    0  0.00000000000E+00  0.00000000000E+00  0.40464602899E+03  0.40464602899E+03  0.00000000000E+00 0. -1.
         22   -1    0    0    0    0 -0.00000000000E+00 -0.00000000000E+00 -0.35996074262E+03  0.35996074262E+03  0.00000000000E+00 0.  1.
        -24    2    1    2    0    0 -0.14483728678E+02 -0.83800651835E+01 -0.22443807533E+03  0.23888787132E+03  0.80093454888E+02 0.  0.
         25    2    1    2    0    0  0.10738402847E+02 -0.18001416509E+02 -0.90817443062E+02  0.15599439582E+03  0.12508828591E+03 0.  0.
         24    2    1    2    0    0  0.37453258317E+01  0.26381481692E+02  0.35994080476E+03  0.36972450447E+03  0.80179899170E+02 0.  0.
        -11    1    5    5    0    0 -0.24417030666E+01 -0.22885880671E+02  0.41670812420E+02  0.47604433152E+02  0.00000000000E+00 0.  1.
         12    1    5    5    0    0  0.61870288983E+01  0.49267362363E+02  0.31826999234E+03  0.32212007131E+03  0.00000000000E+00 0. -1.
         11    1    3    3    0    0 -0.36051283607E+02 -0.27404508595E+01 -0.43419811330E+02  0.56502080816E+02  0.00000000000E+00 0. -1.
        -12    1    3    3    0    0  0.21567554928E+02 -0.56396143240E+01 -0.18101826400E+03  0.18238579050E+03  0.00000000000E+00 0.  1.
          5    1    4    4  501    0 -0.43068553979E+02  0.17132925737E+02 -0.23870259644E+01  0.46600512648E+02  0.41800000000E+01 0. -1.
         -5    1    4    4    0  501  0.53806956825E+02 -0.35134342246E+02 -0.88430417097E+02  0.10939388317E+03  0.41800000000E+01 0. -1.
</event>
<event>
11    1  0.6625361E-009  0.1885865E+03  0.7561462E-02  0.1062902E+00
         22   -1    0    0    0    0  0.00000000000E+00  0.00000000000E+00  0.28715679342E+04  0.28715679342E+04  0.00000000000E+00 0. -1.
         22   -1    0    0    0    0 -0.00000000000E+00 -0.00000000000E+00 -0.65763556096E+02  0.65763556096E+02  0.00000000000E+00 0. -1.
        -24    2    1    2    0    0 -0.77505965563E+02 -0.11259279555E+02  0.87843674289E+02  0.14210180253E+03  0.79639595028E+02 0.  0.
         25    2    1    2    0    0 -0.33326163379E+02 -0.83216643113E+02  0.12849761597E+03  0.20048430659E+03  0.12508667804E+03 0.  0.
         24    2    1    2    0    0  0.11083212894E+03  0.94475922668E+02  0.25894630878E+04  0.25947453811E+04  0.78581480139E+02 0.  0.
        -11    1    5    5    0    0  0.50386821925E+02  0.15112271315E+02  0.46978561043E+03  0.47272162246E+03  0.00000000000E+00 0.  1.
         12    1    5    5    0    0  0.60445307018E+02  0.79363651353E+02  0.21196774774E+04  0.21220237587E+04  0.00000000000E+00 0. -1.
         13    1    3    3    0    0 -0.40424382359E+02  0.25429026937E+02  0.10641545367E+02  0.48928607050E+02  0.00000000000E+00 0. -1.
        -14    1    3    3    0    0 -0.37081583204E+02 -0.36688306492E+02  0.77202128921E+02  0.93173195481E+02  0.00000000000E+00 0.  1.
          5    1    4    4  501    0  0.16955153185E+02 -0.37203908356E+01  0.10075719313E+03  0.10232694120E+03  0.41800000000E+01 0. -1.
         -5    1    4    4    0  501 -0.50281316564E+02 -0.79496252277E+02  0.27740422837E+02  0.98157365392E+02  0.41800000000E+01 0. -1.
</event>
<event>
11    1  0.6625361E-009  0.1455926E+03  0.7561462E-02  0.1101469E+00
         22   -1    0    0    0    0  0.00000000000E+00  0.00000000000E+00  0.15209311788E+04  0.15209311788E+04  0.00000000000E+00 0. -1.
         22   -1    0    0    0    0 -0.00000000000E+00 -0.00000000000E+00 -0.43641264403E+03  0.43641264403E+03  0.00000000000E+00 0.  1.
        -24    2    1    2    0    0  0.49926377884E+01 -0.75205348823E+02 -0.40020581299E+03  0.41519958548E+03  0.80902608791E+02 0.  0.
         25    2    1    2    0    0 -0.22814988773E+02  0.52778243895E+02  0.14614981120E+03  0.20078157098E+03  0.12508958866E+03 0.  0.
         24    2    1    2    0    0  0.17822350985E+02  0.22427104928E+02  0.13385745366E+04  0.13413626664E+04  0.81556125203E+02 0.  0.
        -11    1    5    5    0    0  0.25935861920E+02  0.16793019298E+02  0.17243819463E+03  0.17518448961E+03  0.00000000000E+00 0.  1.
         12    1    5    5    0    0 -0.81135109351E+01  0.56340856307E+01  0.11661363419E+04  0.11661781768E+04  0.00000000000E+00 0. -1.
         11    1    3    3    0    0 -0.72351601772E+01  0.91963733778E+00 -0.20769824230E+03  0.20782625707E+03  0.00000000000E+00 0. -1.
        -12    1    3    3    0    0  0.12227797966E+02 -0.76124986161E+02 -0.19250757069E+03  0.20737332841E+03  0.00000000000E+00 0.  1.
          5    1    4    4  501    0 -0.54673297825E+02  0.61917905754E+02  0.44785196409E+02  0.94054148050E+02  0.41800000000E+01 0. -1.
         -5    1    4    4    0  501  0.31858309051E+02 -0.91396618589E+01  0.10136461479E+03  0.10672742293E+03  0.41800000000E+01 0. -1.
</event>
<event>
11    1  0.6625361E-009  0.1357004E+03  0.7561462E-02  0.1112457E+00
         22   -1    0    0    0    0  0.00000000000E+00  0.00000000000E+00  0.20164606408E+04  0.20164606408E+04  0.00000000000E+00 0. -1.
         22   -1    0    0    0    0 -0.00000000000E+00 -0.00000000000E+00 -0.81001665470E+02  0.81001665470E+02  0.00000000000E+00 0.  1.
        -24    2    1    2    0    0  0.99937596729E+01  0.19502262734E+02 -0.34056642810E+02  0.89235640417E+02  0.79516860583E+02 0.  0.
         25    2    1    2    0    0 -0.48623198460E+02 -0.53117858363E+02  0.27069479539E+03  0.30677327977E+03  0.12509376733E+03 0.  0.
         24    2    1    2    0    0  0.38629438787E+02  0.33615595629E+02  0.16988208228E+04  0.17014533861E+04  0.79556240461E+02 0.  0.
        -11    1    5    5    0    0  0.41097097771E+01 -0.88169391192E+01  0.26349786378E+02  0.28088064584E+02  0.00000000000E+00 0.  1.
         12    1    5    5    0    0  0.34519729010E+02  0.42432534748E+02  0.16724710364E+04  0.16733653215E+04  0.00000000000E+00 0. -1.
         13    1    3    3    0    0 -0.44677423931E+01 -0.69977030581E+01 -0.52966407789E+02  0.53613141339E+02  0.00000000000E+00 0. -1.
        -14    1    3    3    0    0  0.14461502066E+02  0.26499965792E+02  0.18909764979E+02  0.35622499078E+02  0.00000000000E+00 0.  1.
          5    1    4    4  501    0 -0.81360409844E+02 -0.62936155187E+02  0.15507224353E+03  0.18613261142E+03  0.41800000000E+01 0.  1.
         -5    1    4    4    0  501  0.32737211384E+02  0.98182968242E+01  0.11562255187E+03  0.12064066836E+03  0.41800000000E+01 0.  1.
</event>
<event>
11    1  0.6625361E-009  0.1652153E+03  0.7561462E-02  0.1082272E+00
         22   -1    0    0    0    0  0.00000000000E+00  0.00000000000E+00  0.39805626024E+03  0.39805626024E+03  0.00000000000E+00 0.  1.
         22   -1    0    0    0    0 -0.00000000000E+00 -0.00000000000E+00 -0.59288775746E+03  0.59288775746E+03  0.00000000000E+00 0. -1.
        -24    2    1    2    0    0 -0.11935212251E+03  0.25278802313E+02 -0.49916871278E+03  0.52010485302E+03  0.80347416406E+02 0.  0.
         25    2    1    2    0    0  0.28740121922E+02 -0.10902585247E+02 -0.14356276530E+02  0.12961790860E+03  0.12509931487E+03 0.  0.
         24    2    1    2    0    0  0.90612000591E+02 -0.14376217066E+02  0.31869349209E+03  0.34122125608E+03  0.80306870379E+02 0.  0.
        -13    1    5    5    0    0  0.87675867656E+02 -0.70328463322E+01  0.32112037606E+03  0.33294866664E+03  0.00000000000E+00 0.  1.
         14    1    5    5    0    0  0.29361329350E+01 -0.73433707337E+01 -0.24268839621E+01  0.82725894440E+01  0.00000000000E+00 0. -1.
         11    1    3    3    0    0 -0.85210920340E+02  0.48198443109E+02 -0.41549922173E+03  0.42687655607E+03  0.00000000000E+00 0. -1.
        -12    1    3    3    0    0 -0.34141202173E+02 -0.22919640796E+02 -0.83669491051E+02  0.93228296953E+02  0.00000000000E+00 0.  1.
          5    1    4    4  501    0 -0.82035275575E+00  0.54824292797E+02 -0.16452520785E+02  0.57398030450E+02  0.41800000000E+01 0.  1.
         -5    1    4    4    0  501  0.29560474678E+02 -0.65726878044E+02  0.20962442553E+01  0.72219878154E+02  0.41800000000E+01 0.  1.
</event>
<event>
11    1  0.6625361E-009  0.1610569E+03  0.7561462E-02  0.1086087E+00
         22   -1    0    0    0    0  0.00000000000E+00  0.00000000000E+00  0.34462561986E+03  0.34462561986E+03  0.00000000000E+00 0. -1.
         22   -1    0    0    0    0 -0.00000000000E+00 -0.00000000000E+00 -0.83559912910E+03  0.83559912910E+03  0.00000000000E+00 0.  1.
        -24    2    1    2    0    0  0.98042137226E+02  0.20205090103E+02 -0.64593852853E+03  0.65857215661E+03  0.80375347483E+02 0.  0.
         25    2    1    2    0    0 -0.11235315071E+03  0.24232064383E+01 -0.13711883200E+03  0.21697397432E+03  0.12508808512E+03 0.  0.
         24    2    1    2    0    0  0.14311013486E+02 -0.22628296541E+02  0.29208385129E+03  0.30467861803E+03  0.82457499306E+02 0.  0.
        -13    1    5    5    0    0  0.25929597560E+02 -0.23327068105E+02  0.43198426094E+02  0.55521168512E+02  0.00000000000E+00 0.  1.
         14    1    5    5    0    0 -0.11618584073E+02  0.69877156345E+00  0.24888542520E+03  0.24915744952E+03  0.00000000000E+00 0. -1.
         13    1    3    3    0    0  0.14801565328E+01 -0.12393724976E+02 -0.15271919341E+02  0.19723762382E+02  0.00000000000E+00 0. -1.
        -14    1    3    3    0    0  0.96561980693E+02  0.32598815079E+02 -0.63066660919E+03  0.63884839423E+03  0.00000000000E+00 0.  1.
          5    1    4    4  501    0 -0.31949290265E+02  0.55246370975E+02 -0.23736566907E+02  0.68218880545E+02  0.41800000000E+01 0. -1.
         -5    1    4    4    0  501 -0.80403860448E+02 -0.52823164537E+02 -0.11338226509E+03  0.14875509377E+03  0.41800000000E+01 0. -1.
</event>
<event>
11    1  0.6625361E-009  0.1646149E+03  0.7561462E-02  0.1082815E+00
         22   -1    0    0    0    0  0.00000000000E+00  0.00000000000E+00  0.55763937677E+03  0.55763937677E+03  0.00000000000E+00 0. -1.
         22   -1    0    0    0    0 -0.00000000000E+00 -0.00000000000E+00 -0.12201804346E+03  0.12201804346E+03  0.00000000000E+00 0.  1.
         24    2    1    2    0    0 -0.29585222753E+02 -0.97469311070E+02 -0.12057218115E+02  0.13031572267E+03  0.80381957313E+02 0.  0.
         25    2    1    2    0    0  0.45165614715E+02  0.11305703901E+03  0.12151714132E+03  0.21270270951E+03  0.12511674618E+03 0.  0.
        -24    2    1    2    0    0 -0.15580391962E+02 -0.15587727945E+02  0.32616141010E+03  0.33663898804E+03  0.80366765254E+02 0.  0.
        -11    1    3    3    0    0 -0.27366168984E+02 -0.11140038828E+03 -0.15606834961E+02  0.11576928354E+03  0.00000000000E+00 0.  1.
         12    1    3    3    0    0 -0.22190537690E+01  0.13931077207E+02  0.35496168462E+01  0.14546439136E+02  0.00000000000E+00 0. -1.
         13    1    5    5    0    0 -0.85553435710E+01 -0.23871422802E+01  0.32054115771E+03  0.32066419528E+03  0.00000000000E+00 0. -1.
        -14    1    5    5    0    0 -0.70250483908E+01 -0.13200585665E+02  0.56202523896E+01  0.15974792759E+02  0.00000000000E+00 0.  1.
          5    1    4    4  501    0  0.61866407234E+02  0.13188964449E+03  0.86839615104E+02  0.16964940854E+03  0.41800000000E+01 0.  1.
         -5    1    4    4    0  501 -0.16700792519E+02 -0.18832605473E+02  0.34677526220E+02  0.43053300970E+02  0.41800000000E+01 0.  1.
</event>
<event>
11    1  0.6625361E-009  0.1365159E+03  0.7561462E-02  0.1111513E+00
         22   -1    0    0    0    0  0.00000000000E+00  0.00000000000E+00  0.56099670051E+03  0.56099670051E+03  0.00000000000E+00 0. -1.
         22   -1    0    0    0    0 -0.00000000000E+00 -0.00000000000E+00 -0.34167549781E+03  0.34167549781E+03  0.00000000000E+00 0.  1.
        -24    2    1    2    0    0 -0.66962629647E+01 -0.88071648152E+01 -0.26962220513E+03  0.28348035661E+03  0.86847987839E+02 0.  0.
         25    2    1    2    0    0 -0.44024334743E+02 -0.13526778689E+02  0.13866968887E+02  0.13401878385E+03  0.12509047049E+03 0.  0.
         24    2    1    2    0    0  0.50720597708E+02  0.22333943504E+02  0.47507643895E+03  0.48517305787E+03  0.81387278972E+02 0.  0.
        -13    1    5    5    0    0  0.38860000578E+02  0.61639229543E+00  0.76285872922E+02  0.85615500885E+02  0.00000000000E+00 0.  1.
         14    1    5    5    0    0  0.11860597129E+02  0.21717551208E+02  0.39879056602E+03  0.39955755699E+03  0.00000000000E+00 0. -1.
         11    1    3    3    0    0 -0.58491543911E+00 -0.24798621755E+02 -0.16527317297E+02  0.29807146527E+02  0.00000000000E+00 0. -1.
        -12    1    3    3    0    0 -0.61113475256E+01  0.15991456940E+02 -0.25309488784E+03  0.25367321008E+03  0.00000000000E+00 0.  1.
          5    1    4    4  501    0 -0.16229786209E+02  0.68277683810E+01  0.67640480284E+02  0.70019506957E+02  0.41800000000E+01 0.  1.
         -5    1    4    4    0  501 -0.27794548534E+02 -0.20354547070E+02 -0.53773511397E+02  0.63999276891E+02  0.41800000000E+01 0.  1.
</event>
<event>
11    1  0.6625361E-009  0.1466288E+03  0.7561462E-02  0.1100374E+00
         22   -1    0    0    0    0  0.00000000000E+00  0.00000000000E+00  0.58489082589E+03  0.58489082589E+03  0.00000000000E+00 0.  1.
         22   -1    0    0    0    0 -0.00000000000E+00 -0.00000000000E+00 -0.19830416897E+03  0.19830416897E+03  0.00000000000E+00 0. -1.
        -24    2    1    2    0    0 -0.85817644726E+01  0.15478799701E+02 -0.13045410914E+03  0.15509555956E+03  0.81994622281E+02 0.  0.
         25    2    1    2    0    0  0.36959194383E+02 -0.84282279672E+02  0.74078994464E+02  0.17206258832E+03  0.12509337377E+03 0.  0.
         24    2    1    2    0    0 -0.28377429910E+02  0.68803479972E+02  0.44296177160E+03  0.45603684697E+03  0.78837030086E+02 0.  0.
        -13    1    5    5    0    0  0.13436350408E+02  0.15365979614E+02  0.26164533739E+03  0.26244033879E+03  0.00000000000E+00 0.  1.
         14    1    5    5    0    0 -0.41813780318E+02  0.53437500357E+02  0.18131643420E+03  0.19359650818E+03  0.00000000000E+00 0. -1.
         13    1    3    3    0    0 -0.35240831881E+02  0.30576473433E+02 -0.10627787525E+03  0.11606818568E+03  0.00000000000E+00 0. -1.
        -14    1    3    3    0    0  0.26659067408E+02 -0.15097673732E+02 -0.24176233892E+02  0.39027373885E+02  0.00000000000E+00 0.  1.
          5    1    4    4  501    0  0.45672966046E+02 -0.43652517408E+02  0.10325146230E+03  0.12111935837E+03  0.41800000000E+01 0. -1.
         -5    1    4    4    0  501 -0.87137716635E+01 -0.40629762264E+02 -0.29172467838E+02  0.50943229953E+02  0.41800000000E+01 0. -1.
</event>
<event>
11    1  0.6625361E-009  0.1282129E+03  0.7561462E-02  0.1121484E+00
         22   -1    0    0    0    0  0.00000000000E+00  0.00000000000E+00  0.28648813512E+04  0.28648813512E+04  0.00000000000E+00 0. -1.
         22   -1    0    0    0    0 -0.00000000000E+00 -0.00000000000E+00 -0.67934565532E+03  0.67934565532E+03  0.00000000000E+00 0. -1.
         24    2    1    2    0    0  0.15497387877E+02  0.23237725405E+02 -0.65388187036E+03  0.65940987947E+03  0.80496756743E+02 0.  0.
         25    2    1    2    0    0 -0.61821122478E+01 -0.46982953086E+02  0.18101530105E+03  0.22507659901E+03  0.12508924741E+03 0.  0.
        -24    2    1    2    0    0 -0.93152756294E+01  0.23745227680E+02  0.26584022652E+04  0.26597405280E+04  0.80414318886E+02 0.  0.
        -13    1    3    3    0    0 -0.19627988238E+02  0.31339791811E+00 -0.45128273876E+02  0.49212978405E+02  0.00000000000E+00 0.  1.
         14    1    3    3    0    0  0.35125376116E+02  0.22924327487E+02 -0.60875359649E+03  0.61019690107E+03  0.00000000000E+00 0. -1.
         11    1    5    5    0    0 -0.29350317224E+02  0.32329345130E+02  0.24067549754E+04  0.24071510421E+04  0.00000000000E+00 0. -1.
        -12    1    5    5    0    0  0.20035041594E+02 -0.85841174502E+01  0.25164728977E+03  0.25258948595E+03  0.00000000000E+00 0.  1.
          5    1    4    4  501    0 -0.45534946936E+02 -0.51484186077E+02  0.17050409727E+03  0.18388358381E+03  0.41800000000E+01 0.  1.
         -5    1    4    4    0  501  0.39352834689E+02  0.45012329914E+01  0.10511203775E+02  0.41193015200E+02  0.41800000000E+01 0.  1.
</event>
<event>
11    1  0.6625361E-009  0.1299306E+03  0.7561462E-02  0.1119354E+00
         22   -1    0    0    0    0  0.00000000000E+00  0.00000000000E+00  0.10764876119E+03  0.10764876119E+03  0.00000000000E+00 0. -1.
         22   -1    0    0    0    0 -0.00000000000E+00 -0.00000000000E+00 -0.45461972855E+03  0.45461972855E+03  0.00000000000E+00 0.  1.
        -24    2    1    2    0    0 -0.76630721992E+01  0.80192908024E+01 -0.32356740086E+03  0.33391439764E+03  0.81730840880E+02 0.  0.
         25    2    1    2    0    0  0.10186848228E+02 -0.40095174992E+02 -0.32193519803E+02  0.13563355681E+03  0.12509454057E+03 0.  0.
         24    2    1    2    0    0 -0.25237760292E+01  0.32075884189E+02  0.87899532957E+01  0.92720535289E+02  0.86513597736E+02 0.  0.
        -11    1    5    5    0    0 -0.58958387524E+01 -0.10852785318E+02 -0.31447465749E+02  0.33785898919E+02  0.00000000000E+00 0.  1.
         12    1    5    5    0    0  0.33720627232E+01  0.42928669507E+02  0.40237419044E+02  0.58934636370E+02  0.00000000000E+00 0. -1.
         13    1    3    3    0    0  0.18272018891E+02  0.58432758553E+01 -0.15266391887E+02  0.24516795637E+02  0.00000000000E+00 0. -1.
        -14    1    3    3    0    0 -0.25935091090E+02  0.21760149472E+01 -0.30830100898E+03  0.30939760200E+03  0.00000000000E+00 0.  1.
          5    1    4    4  501    0 -0.58819197764E+01 -0.81639515132E+02 -0.26129675161E+01  0.81999435427E+02  0.41800000000E+01 0.  1.
         -5    1    4    4    0  501  0.16068768005E+02  0.41544340140E+02 -0.29580552287E+02  0.53634121382E+02  0.41800000000E+01 0.  1.
</event>
<event>
11    1  0.6625361E-009  0.1665539E+03  0.7561462E-02  0.1081070E+00
         22   -1    0    0    0    0  0.00000000000E+00  0.00000000000E+00  0.47084297813E+03  0.47084297813E+03  0.00000000000E+00 0. -1.
         22   -1    0    0    0    0 -0.00000000000E+00 -0.00000000000E+00 -0.66383399755E+03  0.66383399755E+03  0.00000000000E+00 0.  1.
         24    2    1    2    0    0 -0.10631664477E+03 -0.38182585351E+02 -0.55324807795E+03  0.57048135341E+03  0.81267460026E+02 0.  0.
         25    2    1    2    0    0  0.83175960413E+02  0.31374760240E+02 -0.36775976875E+02  0.15780748610E+03  0.12509242273E+03 0.  0.
        -24    2    1    2    0    0  0.23140684358E+02  0.68078251114E+01  0.39703303540E+03  0.40638813616E+03  0.83272133768E+02 0.  0.
        -13    1    3    3    0    0 -0.11981882942E+03 -0.36890386280E+02 -0.48881355489E+03  0.50463466382E+03  0.00000000000E+00 0.  1.
         14    1    3    3    0    0  0.13502184649E+02 -0.12921990706E+01 -0.64434523060E+02  0.65846689595E+02  0.00000000000E+00 0. -1.
         13    1    5    5    0    0  0.11463070092E+02  0.18492602014E+01  0.39286163762E+03  0.39303318950E+03  0.00000000000E+00 0. -1.
        -14    1    5    5    0    0  0.11677614265E+02  0.49585649100E+01  0.41713977813E+01  0.13354946662E+02  0.00000000000E+00 0.  1.
          5    1    4    4  501    0  0.61512899768E+02  0.30612574073E+02  0.38837967603E+02  0.79036868971E+02  0.41800000000E+01 0. -1.
         -5    1    4    4    0  501  0.21663060646E+02  0.76218616724E+00 -0.75613944477E+02  0.78770617134E+02  0.41800000000E+01 0. -1.
</event>
<event>
11    1  0.6625361E-009  0.1287429E+03  0.7561462E-02  0.1120823E+00
         22   -1    0    0    0    0  0.00000000000E+00  0.00000000000E+00  0.19432479818E+04  0.19432479818E+04  0.00000000000E+00 0. -1.
         22   -1    0    0    0    0 -0.00000000000E+00 -0.00000000000E+00 -0.19372253535E+04  0.19372253535E+04  0.00000000000E+00 0.  1.
         24    2    1    2    0    0  0.30735832054E+02 -0.37130435490E+01 -0.18773602821E+04  0.18793301830E+04  0.80261010922E+02 0.  0.
         25    2    1    2    0    0  0.19656076460E+01  0.17066590249E+01  0.92211919685E+01  0.12544729497E+03  0.12508084240E+03 0.  0.
        -24    2    1    2    0    0 -0.32701439700E+02  0.20063845241E+01  0.18741617185E+04  0.18756958573E+04  0.68406083726E+02 0.  0.
        -13    1    3    3    0    0  0.53437556562E+02  0.49618095550E+01 -0.16022548924E+04  0.16031534337E+04  0.00000000000E+00 0.  1.
         14    1    3    3    0    0 -0.22701724508E+02 -0.86748531040E+01 -0.27510538973E+03  0.27617674925E+03  0.00000000000E+00 0. -1.
         11    1    5    5    0    0  0.75728123406E+01 -0.18950221187E+02  0.11094244099E+04  0.11096120852E+04  0.00000000000E+00 0. -1.
        -12    1    5    5    0    0 -0.40274252040E+02  0.20956605711E+02  0.76473730859E+03  0.76608377209E+03  0.00000000000E+00 0.  1.
          5    1    4    4  501    0 -0.10474152932E+02  0.13844367168E+02 -0.55500561155E+02  0.58302307591E+02  0.41800000000E+01 0.  1.
         -5    1    4    4    0  501  0.12439760578E+02 -0.12137708143E+02  0.64721753124E+02  0.67144987375E+02  0.41800000000E+01 0.  1.
</event>
<event>
11    1  0.6625361E-009  0.2674125E+03  0.7561462E-02  0.1015012E+00
         22   -1    0    0    0    0  0.00000000000E+00  0.00000000000E+00  0.37509405113E+03  0.37509405113E+03  0.00000000000E+00 0.  1.
         22   -1    0    0    0    0 -0.00000000000E+00 -0.00000000000E+00 -0.12146093939E+04  0.12146093939E+04  0.00000000000E+00 0. -1.
         24    2    1    2    0    0  0.23591393690E+03  0.21034981486E+02 -0.10601958776E+04  0.10892575760E+04  0.79805463105E+02 0.  0.
         25    2    1    2    0    0 -0.23208834447E+03 -0.69719990488E+01 -0.79362255748E+00  0.26374656316E+03  0.12509201147E+03 0.  0.
        -24    2    1    2    0    0 -0.38255924336E+01 -0.14062982437E+02  0.22147415742E+03  0.23669930583E+03  0.82239627549E+02 0.  0.
        -11    1    3    3    0    0  0.21328263421E+02 -0.76553972283E+01 -0.36834440721E+02  0.43246687162E+02  0.00000000000E+00 0.  1.
         12    1    3    3    0    0  0.21458567348E+03  0.28690378714E+02 -0.10233614369E+04  0.10460108888E+04  0.00000000000E+00 0. -1.
         13    1    5    5    0    0 -0.23567316993E+02  0.82523012784E+01  0.17335908570E+02  0.30398234037E+02  0.00000000000E+00 0. -1.
        -14    1    5    5    0    0  0.19741724560E+02 -0.22315283715E+02  0.20413824885E+03  0.20630107179E+03  0.00000000000E+00 0.  1.
          5    1    4    4  501    0 -0.59315838840E+02 -0.77996503323E+01  0.55774593135E+02  0.81899211974E+02  0.41800000000E+01 0.  1.
         -5    1    4    4    0  501 -0.17277250563E+03  0.82765128348E+00 -0.56568215692E+02  0.18184735119E+03  0.41800000000E+01 0.  1.
</event>
<event>
11    1  0.6625361E-009  0.1891657E+03  0.7561462E-02  0.1062461E+00
         22   -1    0    0    0    0  0.00000000000E+00  0.00000000000E+00  0.15596886529E+04  0.15596886529E+04  0.00000000000E+00 0.  1.
         22   -1    0    0    0    0 -0.00000000000E+00 -0.00000000000E+00 -0.13399434818E+03  0.13399434818E+03  0.00000000000E+00 0. -1.
         24    2    1    2    0    0  0.24166901690E+02 -0.35144079964E+02 -0.61594626953E+02  0.10860871660E+03  0.78630844832E+02 0.  0.
         25    2    1    2    0    0 -0.13584130166E+03 -0.52757852059E+02  0.16653846928E+03  0.25420147411E+03  0.12508827882E+03 0.  0.
        -24    2    1    2    0    0  0.11167439997E+03  0.87901932023E+02  0.13207504624E+04  0.13308728104E+04  0.81502958159E+02 0.  0.
        -13    1    3    3    0    0 -0.10675246845E+01  0.24584581125E+02 -0.17480165834E+02  0.30184390596E+02  0.00000000000E+00 0.  1.
         14    1    3    3    0    0  0.25234426374E+02 -0.59728661089E+02 -0.44114461118E+02  0.78424326007E+02  0.00000000000E+00 0. -1.
         11    1    5    5    0    0  0.18599723862E+02 -0.14509204831E+02  0.13165031620E+03  0.13374704673E+03  0.00000000000E+00 0. -1.
        -12    1    5    5    0    0  0.93074676112E+02  0.10241113685E+03  0.11891001462E+04  0.11971257636E+04  0.00000000000E+00 0.  1.
          5    1    4    4  501    0 -0.10853915888E+03 -0.32990397500E+02  0.18385485292E+03  0.21607682588E+03  0.41800000000E+01 0. -1.
         -5    1    4    4    0  501 -0.27302142785E+02 -0.19767454559E+02 -0.17316383646E+02  0.38124648234E+02  0.41800000000E+01 0. -1.
</event>
<event>
11    1  0.6625361E-009  0.1474628E+03  0.7561462E-02  0.1099500E+00
         22   -1    0    0    0    0  0.00000000000E+00  0.00000000000E+00  0.11146475887E+04  0.11146475887E+04  0.00000000000E+00 0. -1.
         22   -1    0    0    0    0 -0.00000000000E+00 -0.00000000000E+00 -0.15007140675E+04  0.15007140675E+04  0.00000000000E+00 0.  1.
        -24    2    1    2    0    0 -0.71345087324E+02 -0.32656658482E+02 -0.14482273139E+04  0.14525909813E+04  0.80632668805E+02 0.  0.
         25    2    1    2    0    0  0.68304455549E+02 -0.48459448969E+01  0.56968925451E+02  0.15356135635E+03  0.12508656949E+03 0.  0.
         24    2    1    2    0    0  0.30406317745E+01  0.37502603379E+02  0.10051919098E+04  0.10092093186E+04  0.81712804674E+02 0.  0.
        -13    1    5    5    0    0 -0.23270186210E+02 -0.17410873381E+02  0.31965692710E+03  0.32097537464E+03  0.00000000000E+00 0.  1.
         14    1    5    5    0    0  0.26310817984E+02  0.54913476760E+02  0.68553498268E+03  0.68823394391E+03  0.00000000000E+00 0. -1.
         13    1    3    3    0    0 -0.10408722086E+02  0.22202493724E+02 -0.57503154826E+03  0.57555414491E+03  0.00000000000E+00 0. -1.
        -14    1    3    3    0    0 -0.60936365238E+02 -0.54859152206E+02 -0.87319576568E+03  0.87703683640E+03  0.00000000000E+00 0.  1.
          5    1    4    4  501    0  0.43421481199E+02 -0.48746875442E+02 -0.13493302218E+02  0.66792398517E+02  0.41800000000E+01 0.  1.
         -5    1    4    4    0  501  0.24882974351E+02  0.43900930545E+02  0.70462227669E+02  0.86768957833E+02  0.41800000000E+01 0.  1.
</event>
<event>
11    1  0.6625361E-009  0.1482998E+03  0.7561462E-02  0.1098629E+00
         22   -1    0    0    0    0  0.00000000000E+00  0.00000000000E+00  0.16017745818E+03  0.16017745818E+03  0.00000000000E+00 0. -1.
         22   -1    0    0    0    0 -0.00000000000E+00 -0.00000000000E+00 -0.73856594872E+03  0.73856594872E+03  0.00000000000E+00 0. -1.
         24    2    1    2    0    0  0.10136751866E+03 -0.11454490717E+02 -0.51797561623E+03  0.53353077453E+03  0.77134746776E+02 0.  0.
         25    2    1    2    0    0 -0.18079161388E+02 -0.15635662205E+02 -0.16331352139E+03  0.20710055873E+03  0.12509198675E+03 0.  0.
        -24    2    1    2    0    0 -0.83288357273E+02  0.27090152922E+02  0.10290064708E+03  0.15811207364E+03  0.82097855151E+02 0.  0.
        -13    1    3    3    0    0  0.73756114737E+01  0.11429510068E+02 -0.21623473026E+03  0.21666216079E+03  0.00000000000E+00 0.  1.
         14    1    3    3    0    0  0.93991907187E+02 -0.22884000785E+02 -0.30174088597E+03  0.31686861374E+03  0.00000000000E+00 0. -1.
         13    1    5    5    0    0 -0.90492975941E+00 -0.26486324277E+01  0.60920109378E+02  0.60984374049E+02  0.00000000000E+00 0. -1.
        -14    1    5    5    0    0 -0.82383427514E+02  0.29738785349E+02  0.41980537700E+02  0.97127699595E+02  0.00000000000E+00 0.  1.
          5    1    4    4  501    0  0.50633387997E+02  0.12698753178E+02 -0.76977986536E+02  0.93102530167E+02  0.41800000000E+01 0.  1.
         -5    1    4    4    0  501 -0.68712549386E+02 -0.28334415382E+02 -0.86335534853E+02  0.11399802856E+03  0.41800000000E+01 0.  1.
</event>
<event>
11    1  0.6625361E-009  0.1737406E+03  0.7561462E-02  0.1074822E+00
         22   -1    0    0    0    0  0.00000000000E+00  0.00000000000E+00  0.29769547245E+03  0.29769547245E+03  0.00000000000E+00 0. -1.
         22   -1    0    0    0    0 -0.00000000000E+00 -0.00000000000E+00 -0.62704597510E+03  0.62704597510E+03  0.00000000000E+00 0.  1.
        -24    2    1    2    0    0  0.10103186260E+03 -0.60958625453E+02 -0.51957230955E+03  0.53865961468E+03  0.79217449878E+02 0.  0.
         25    2    1    2    0    0 -0.15366932776E+03  0.42034061539E+02  0.40033369498E+02  0.20647393064E+03  0.12509072203E+03 0.  0.
         24    2    1    2    0    0  0.52637465162E+02  0.18924563914E+02  0.15018843739E+03  0.17960790222E+03  0.81077678540E+02 0.  0.
        -11    1    5    5    0    0 -0.11560012507E+02 -0.57201425887E+01 -0.15735329456E+01  0.12993457058E+02  0.00000000000E+00 0.  1.
         12    1    5    5    0    0  0.64197477668E+02  0.24644706503E+02  0.15176197034E+03  0.16661444517E+03  0.00000000000E+00 0. -1.
         13    1    3    3    0    0  0.31859615904E+02  0.69119847755E+00 -0.45087542229E+02  0.55212311536E+02  0.00000000000E+00 0. -1.
        -14    1    3    3    0    0  0.69172246695E+02 -0.61649823930E+02 -0.47448476732E+03  0.48344730314E+03  0.00000000000E+00 0.  1.
          5    1    4    4  501    0 -0.61575346033E+01  0.50027837268E+02 -0.77174770279E+01  0.51163772200E+02  0.41800000000E+01 0. -1.
         -5    1    4    4    0  501 -0.14751179316E+03 -0.79937757287E+01  0.47750846526E+02  0.15531015844E+03  0.41800000000E+01 0. -1.
</event>
<event>
11    1  0.6625361E-009  0.2225016E+03  0.7561462E-02  0.1039662E+00
         22   -1    0    0    0    0  0.00000000000E+00  0.00000000000E+00  0.18898507075E+04  0.18898507075E+04  0.00000000000E+00 0.  1.
         22   -1    0    0    0    0 -0.00000000000E+00 -0.00000000000E+00 -0.17750557350E+04  0.17750557350E+04  0.00000000000E+00 0. -1.
        -24    2    1    2    0    0 -0.94698789291E+02 -0.87125543007E+01 -0.16210904324E+04  0.16259170858E+04  0.81415051142E+02 0.  0.
         25    2    1    2    0    0  0.40854310267E+02 -0.16860710169E+03 -0.67546664713E+02  0.22429185567E+03  0.12508739024E+03 0.  0.
         24    2    1    2    0    0  0.53844479024E+02  0.17731965599E+03  0.18034320696E+04  0.18146975009E+04  0.80114304685E+02 0.  0.
        -11    1    5    5    0    0  0.51612586770E+02  0.15566917580E+03  0.17384194120E+04  0.17461382544E+04  0.00000000000E+00 0.  1.
         12    1    5    5    0    0  0.22318922539E+01  0.21650480195E+02  0.65012657624E+02  0.68559246547E+02  0.00000000000E+00 0. -1.
         11    1    3    3    0    0 -0.39853096912E+02 -0.43613779581E+02 -0.87990214745E+03  0.88188333706E+03  0.00000000000E+00 0. -1.
        -12    1    3    3    0    0 -0.54845692378E+02  0.34901225281E+02 -0.74118828499E+03  0.74403374877E+03  0.00000000000E+00 0.  1.
          5    1    4    4  501    0 -0.19759241140E+02 -0.26989634712E+02  0.27268936771E+02  0.43358220731E+02  0.41800000000E+01 0.  1.
         -5    1    4    4    0  501  0.60613551406E+02 -0.14161746698E+03 -0.94815601484E+02  0.18093363494E+03  0.41800000000E+01 0.  1.
</event>
<event>
11    1  0.6625361E-009  0.2021403E+03  0.7561462E-02  0.1053020E+00
         22   -1    0    0    0    0  0.00000000000E+00  0.00000000000E+00  0.62794359717E+03  0.62794359717E+03  0.00000000000E+00 0.  1.
         22   -1    0    0    0    0 -0.00000000000E+00 -0.00000000000E+00 -0.15244903551E+03  0.15244903551E+03  0.00000000000E+00 0.  1.
         24    2    1    2    0    0  0.18183514917E+03  0.22180181808E+02  0.90945326973E+02  0.21983610920E+03  0.80628037763E+02 0.  0.
         25    2    1    2    0    0 -0.85012432890E+02 -0.14726101437E+03  0.12254556918E+03  0.24408528000E+03  0.12508911738E+03 0.  0.
        -24    2    1    2    0    0 -0.96822716278E+02  0.12508083256E+03  0.26200366550E+03  0.31647124348E+03  0.80549824030E+02 0.  0.
        -13    1    3    3    0    0  0.16487151573E+03 -0.57024611099E+01  0.88239942735E+02  0.18708667044E+03  0.00000000000E+00 0.  1.
         14    1    3    3    0    0  0.16963633435E+02  0.27882642918E+02  0.27053842377E+01  0.32749438763E+02  0.00000000000E+00 0. -1.
         11    1    5    5    0    0 -0.28279668038E+02  0.10055810141E+03  0.16257271554E+03  0.19323964195E+03  0.00000000000E+00 0. -1.
        -12    1    5    5    0    0 -0.68543048240E+02  0.24522731155E+02  0.99430949963E+02  0.12323160153E+03  0.00000000000E+00 0.  1.
          5    1    4    4  501    0 -0.78574804072E+02 -0.74510187621E+02  0.13148503410E+03  0.17038648563E+03  0.41800000000E+01 0. -1.
         -5    1    4    4    0  501 -0.64376288177E+01 -0.72750826748E+02 -0.89394649222E+01  0.73698794362E+02  0.41800000000E+01 0. -1.
</event>
<event>
11    1  0.6625361E-009  0.1999448E+03  0.7561462E-02  0.1054563E+00
         22   -1    0    0    0    0  0.00000000000E+00  0.00000000000E+00  0.20705895520E+03  0.20705895520E+03  0.00000000000E+00 0.  1.
         22   -1    0    0    0    0 -0.00000000000E+00 -0.00000000000E+00 -0.14585066432E+04  0.14585066432E+04  0.00000000000E+00 0. -1.
         24    2    1    2    0    0  0.64941819807E+02 -0.14986487591E+03 -0.13438973504E+04  0.13561906406E+04  0.80722019028E+02 0.  0.
         25    2    1    2    0    0 -0.68090267450E+02  0.41032165943E+02  0.32162120287E+01  0.14826446673E+03  0.12510829274E+03 0.  0.
        -24    2    1    2    0    0  0.31484476433E+01  0.10883270997E+03  0.89233450326E+02  0.16111049108E+03  0.78355026615E+02 0.  0.
        -11    1    3    3    0    0  0.22771645810E+01  0.74324233644E+01 -0.19167190607E+02  0.20683510132E+02  0.00000000000E+00 0.  1.
         12    1    3    3    0    0  0.62664655226E+02 -0.15729729928E+03 -0.13247301598E+04  0.13355071305E+04  0.00000000000E+00 0. -1.
         11    1    5    5    0    0  0.44412890908E+01  0.90024678433E+02  0.24095600036E+02  0.93299333957E+02  0.00000000000E+00 0. -1.
        -12    1    5    5    0    0 -0.12928414475E+01  0.18808031535E+02  0.65137850291E+02  0.67811157118E+02  0.00000000000E+00 0.  1.
          5    1    4    4  501    0  0.25818578441E+02  0.40359474870E+02 -0.18933556659E+02  0.51685957206E+02  0.41800000000E+01 0. -1.
         -5    1    4    4    0  501 -0.93908845891E+02  0.67269107239E+00  0.22149768687E+02  0.96578509529E+02  0.41800000000E+01 0. -1.
</event>
<event>
11    1  0.6625361E-009  0.1486005E+03  0.7561462E-02  0.1098317E+00
         22   -1    0    0    0    0  0.00000000000E+00  0.00000000000E+00  0.14067644650E+04  0.14067644650E+04  0.00000000000E+00 0. -1.
         22   -1    0    0    0    0 -0.00000000000E+00 -0.00000000000E+00 -0.21059394519E+03  0.21059394519E+03  0.00000000000E+00 0.  1.
        -24    2    1    2    0    0 -0.67560130322E+02  0.55805853865E+02 -0.16507074169E+03  0.20352739445E+03  0.80600161254E+02 0.  0.
         25    2    1    2    0    0  0.40123373174E+01 -0.18428206922E+02  0.14525089845E+03  0.19262389910E+03  0.12510173997E+03 0.  0.
         24    2    1    2    0    0  0.63547793005E+02 -0.37377646944E+02  0.12159903631E+04  0.12212071167E+04  0.85316166260E+02 0.  0.
        -13    1    5    5    0    0 -0.17088297117E+02  0.84508177583E+01  0.27370377501E+03  0.27436687605E+03  0.00000000000E+00 0.  1.
         14    1    5    5    0    0  0.80636090122E+02 -0.45828464702E+02  0.94228658807E+03  0.94684024062E+03  0.00000000000E+00 0. -1.
         13    1    3    3    0    0 -0.55771362748E+02  0.18147148890E+02 -0.36599463027E+02  0.69132370200E+02  0.00000000000E+00 0. -1.
        -14    1    3    3    0    0 -0.11788767574E+02  0.37658704975E+02 -0.12847127866E+03  0.13439502425E+03  0.00000000000E+00 0.  1.
          5    1    4    4  501    0  0.50331894841E+02 -0.44464602044E+02  0.51327137020E+02  0.84630655604E+02  0.41800000000E+01 0.  1.
         -5    1    4    4    0  501 -0.46319557524E+02  0.26036395122E+02  0.93923761429E+02  0.10799324350E+03  0.41800000000E+01 0.  1.
</event>
<event>
11    1  0.6625361E-009  0.1612611E+03  0.7561462E-02  0.1085897E+00
         22   -1    0    0    0    0  0.00000000000E+00  0.00000000000E+00  0.24447112017E+03  0.24447112017E+03  0.00000000000E+00 0. -1.
         22   -1    0    0    0    0 -0.00000000000E+00 -0.00000000000E+00 -0.65485580188E+03  0.65485580188E+03  0.00000000000E+00 0. -1.
        -24    2    1    2    0    0 -0.13893310262E+02 -0.64484149909E+02 -0.20872829477E+03  0.23317107742E+03  0.80312020571E+02 0.  0.
         25    2    1    2    0    0  0.63819523684E+02  0.14988504288E+03 -0.38884623704E+03  0.43976122246E+03  0.12510027592E+03 0.  0.
         24    2    1    2    0    0 -0.49926213422E+02 -0.85400892971E+02  0.18718985011E+03  0.22639462217E+03  0.80178211847E+02 0.  0.
        -13    1    5    5    0    0 -0.31220337039E+02 -0.20616205475E+02  0.12998058863E+02  0.39606652310E+02  0.00000000000E+00 0.  1.
         14    1    5    5    0    0 -0.18705876383E+02 -0.64784687495E+02  0.17419179125E+03  0.18678796986E+03  0.00000000000E+00 0. -1.
         11    1    3    3    0    0 -0.20251141265E+02 -0.24553754264E+02 -0.18186109929E+03  0.18462517436E+03  0.00000000000E+00 0. -1.
        -12    1    3    3    0    0  0.63578310026E+01 -0.39930395645E+02 -0.26867195482E+02  0.48545903066E+02  0.00000000000E+00 0.  1.
          5    1    4    4  501    0  0.56821742853E+02  0.10575450948E+03 -0.37348499187E+03  0.39232797286E+03  0.41800000000E+01 0.  1.
         -5    1    4    4    0  501  0.69977808314E+01  0.44130533396E+02 -0.15361245172E+02  0.47433249600E+02  0.41800000000E+01 0.  1.
</event>
<event>
11    1  0.6625361E-009  0.1663281E+03  0.7561462E-02  0.1081272E+00
         22   -1    0    0    0    0  0.00000000000E+00  0.00000000000E+00  0.22222551798E+03  0.22222551798E+03  0.00000000000E+00 0.  1.
         22   -1    0    0    0    0 -0.00000000000E+00 -0.00000000000E+00 -0.58194727910E+03  0.58194727910E+03  0.00000000000E+00 0.  1.
         24    2    1    2    0    0  0.91597868265E+02 -0.83631679574E+02 -0.39685702293E+03  0.42389397677E+03  0.82499573296E+02 0.  0.
         25    2    1    2    0    0 -0.54247245706E+02  0.50552983058E+02 -0.12559648587E+03  0.19214793537E+03  0.12509190237E+03 0.  0.
        -24    2    1    2    0    0 -0.37350622559E+02  0.33078696517E+02  0.16273174768E+03  0.18813088495E+03  0.80139497121E+02 0.  0.
        -13    1    3    3    0    0  0.96302129426E+02 -0.93514787426E+02 -0.38512672043E+03  0.40785010284E+03  0.00000000000E+00 0.  1.
         14    1    3    3    0    0 -0.47042611617E+01  0.98831078518E+01 -0.11730302503E+02  0.16043873931E+02  0.00000000000E+00 0. -1.
         11    1    5    5    0    0 -0.57488274899E+02  0.34093251312E+02  0.86706450943E+02  0.10947721302E+03  0.00000000000E+00 0. -1.
        -12    1    5    5    0    0  0.20137652340E+02 -0.10145547950E+01  0.76025296738E+02  0.78653671925E+02  0.00000000000E+00 0.  1.
          5    1    4    4  501    0 -0.64323784538E+02  0.67796865627E+02 -0.35966906451E+02  0.10022502185E+03  0.41800000000E+01 0.  1.
         -5    1    4    4    0  501  0.10076538833E+02 -0.17243882569E+02 -0.89629579422E+02  0.91922913511E+02  0.41800000000E+01 0.  1.
</event>
<event>
11    1  0.6625361E-009  0.2802396E+03  0.7561462E-02  0.1008919E+00
         22   -1    0    0    0    0  0.00000000000E+00  0.00000000000E+00  0.90374304680E+03  0.90374304680E+03  0.00000000000E+00 0.  1.
         22   -1    0    0    0    0 -0.00000000000E+00 -0.00000000000E+00 -0.30547572384E+03  0.30547572384E+03  0.00000000000E+00 0.  1.
        -24    2    1    2    0    0  0.29639907043E+02 -0.85775635327E+02 -0.17228478979E+03  0.21052740364E+03  0.80023466466E+02 0.  0.
         25    2    1    2    0    0  0.20046370043E+03 -0.48709549999E+02  0.79212573468E+02  0.25392645496E+03  0.12508276173E+03 0.  0.
         24    2    1    2    0    0 -0.23010360747E+03  0.13448518533E+03  0.69133953929E+03  0.74476491204E+03  0.75435272751E+02 0.  0.
        -13    1    5    5    0    0 -0.21659930977E+03  0.14378920820E+03  0.66074348700E+03  0.71005109182E+03  0.00000000000E+00 0.  1.
         14    1    5    5    0    0 -0.13504297700E+02 -0.93040228780E+01  0.30596052289E+02  0.34713820213E+02  0.00000000000E+00 0. -1.
         13    1    3    3    0    0  0.44928719333E+02 -0.19907786190E+02 -0.46168480477E+02  0.67427282026E+02  0.00000000000E+00 0. -1.
        -14    1    3    3    0    0 -0.15288812290E+02 -0.65867849137E+02 -0.12611630931E+03  0.14310012162E+03  0.00000000000E+00 0.  1.
          5    1    4    4  501    0  0.17675653409E+03 -0.89194342417E+01  0.99625506330E+02  0.20313823511E+03  0.41800000000E+01 0. -1.
         -5    1    4    4    0  501  0.23707166342E+02 -0.39790115757E+02 -0.20412932862E+02  0.50788219854E+02  0.41800000000E+01 0. -1.
</event>
<event>
11    1  0.6625361E-009  0.1335724E+03  0.7561462E-02  0.1114956E+00
         22   -1    0    0    0    0  0.00000000000E+00  0.00000000000E+00  0.15646589093E+04  0.15646589093E+04  0.00000000000E+00 0.  1.
         22   -1    0    0    0    0 -0.00000000000E+00 -0.00000000000E+00 -0.15130726711E+03  0.15130726711E+03  0.00000000000E+00 0.  1.
        -24    2    1    2    0    0 -0.15041438056E+02  0.30445439619E+01 -0.72785900206E+02  0.11010810039E+03  0.81181847693E+02 0.  0.
         25    2    1    2    0    0 -0.28172070056E+02  0.15901689498E+02  0.13097663717E+02  0.12987659324E+03  0.12509936618E+03 0.  0.
         24    2    1    2    0    0  0.43213508112E+02 -0.18946233460E+02  0.14730398787E+04  0.14759814828E+04  0.80302467338E+02 0.  0.
        -13    1    5    5    0    0 -0.72686767890E+01  0.12667303166E+02  0.84434430531E+03  0.84447060348E+03  0.00000000000E+00 0.  1.
         14    1    5    5    0    0  0.50482184901E+02 -0.31613536626E+02  0.62869557335E+03  0.63151087927E+03  0.00000000000E+00 0. -1.
         13    1    3    3    0    0  0.31127117451E+02 -0.10055812923E+02 -0.41406780675E+02  0.52768724641E+02  0.00000000000E+00 0. -1.
        -14    1    3    3    0    0 -0.46168555508E+02  0.13100356885E+02 -0.31379119531E+02  0.57339375744E+02  0.00000000000E+00 0.  1.
          5    1    4    4  501    0 -0.37070666232E+02 -0.33184376066E+01 -0.50409681718E+02  0.62800117308E+02  0.41800000000E+01 0. -1.
         -5    1    4    4    0  501  0.88985961760E+01  0.19220127105E+02  0.63507345435E+02  0.67076475936E+02  0.41800000000E+01 0. -1.
</event>
<event>
11    1  0.6625361E-009  0.1595575E+03  0.7561462E-02  0.1087494E+00
         22   -1    0    0    0    0  0.00000000000E+00  0.00000000000E+00  0.62371859719E+03  0.62371859719E+03  0.00000000000E+00 0.  1.
         22   -1    0    0    0    0 -0.00000000000E+00 -0.00000000000E+00 -0.26269535388E+03  0.26269535388E+03  0.00000000000E+00 0.  1.
        -24    2    1    2    0    0 -0.86939858528E+02  0.45652322951E+02 -0.20550067780E+03  0.24142924104E+03  0.80092922654E+02 0.  0.
         25    2    1    2    0    0  0.89099622216E+02 -0.63566715128E+02  0.16355923538E+03  0.23319041250E+03  0.12508667015E+03 0.  0.
         24    2    1    2    0    0 -0.21597636876E+01  0.17914392177E+02  0.40296468573E+03  0.41179429754E+03  0.82875904325E+02 0.  0.
        -13    1    5    5    0    0  0.15043329843E+01 -0.20721511248E+02  0.31456945547E+03  0.31525479594E+03  0.00000000000E+00 0.  1.
         14    1    5    5    0    0 -0.36640966719E+01  0.38635903424E+02  0.88395230257E+02  0.96539501604E+02  0.00000000000E+00 0. -1.
         11    1    3    3    0    0 -0.33366140091E+02  0.31828403887E+02 -0.24614927386E+02  0.52270845113E+02  0.00000000000E+00 0. -1.
        -12    1    3    3    0    0 -0.53573718437E+02  0.13823919064E+02 -0.18088575042E+03  0.18915839593E+03  0.00000000000E+00 0.  1.
          5    1    4    4  501    0  0.94019922712E+02  0.55332290740E+00  0.13011530110E+03  0.16058491839E+03  0.41800000000E+01 0. -1.
         -5    1    4    4    0  501 -0.49203004961E+01 -0.64120038035E+02  0.33443934284E+02  0.72605494111E+02  0.41800000000E+01 0. -1.
</event>
<event>
11    1  0.6625361E-009  0.1306561E+03  0.7561462E-02  0.1118465E+00
         22   -1    0    0    0    0  0.00000000000E+00  0.00000000000E+00  0.44799335207E+03  0.44799335207E+03  0.00000000000E+00 0.  1.
         22   -1    0    0    0    0 -0.00000000000E+00 -0.00000000000E+00 -0.73487939221E+03  0.73487939221E+03  0.00000000000E+00 0.  1.
        -24    2    1    2    0    0  0.17798958105E+02 -0.13260488330E+02 -0.69405565410E+03  0.69836971686E+03  0.74258783873E+02 0.  0.
         25    2    1    2    0    0  0.64441853259E+01 -0.20071044688E+02  0.92354591118E+02  0.15691148496E+03  0.12508984472E+03 0.  0.
         24    2    1    2    0    0 -0.24243143430E+02  0.33331533018E+02  0.31481502284E+03  0.32759154246E+03  0.80678367522E+02 0.  0.
        -13    1    5    5    0    0  0.29390119615E+02  0.14335309256E+02  0.13919922755E+03  0.14298847916E+03  0.00000000000E+00 0.  1.
         14    1    5    5    0    0 -0.53633263046E+02  0.18996223762E+02  0.17561579529E+03  0.18460306330E+03  0.00000000000E+00 0. -1.
         11    1    3    3    0    0  0.27513585752E+01  0.76713288126E+01 -0.61819081520E+03  0.61824453354E+03  0.00000000000E+00 0. -1.
        -12    1    3    3    0    0  0.15047599529E+02 -0.20931817143E+02 -0.75864838901E+02  0.80125183319E+02  0.00000000000E+00 0.  1.
          5    1    4    4  501    0  0.57442947670E+02  0.19926379113E+02  0.54370199952E+02  0.81672173134E+02  0.41800000000E+01 0. -1.
         -5    1    4    4    0  501 -0.50998762344E+02 -0.39997423801E+02  0.37984391166E+02  0.75239311823E+02  0.41800000000E+01 0. -1.
</event>
<event>
11    1  0.6625361E-009  0.1888680E+03  0.7561462E-02  0.1062687E+00
         22   -1    0    0    0    0  0.00000000000E+00  0.00000000000E+00  0.29567185960E+03  0.29567185960E+03  0.00000000000E+00 0. -1.
         22   -1    0    0    0    0 -0.00000000000E+00 -0.00000000000E+00 -0.50571240094E+03  0.50571240094E+03  0.00000000000E+00 0. -1.
        -24    2    1    2    0    0 -0.66481374693E+02  0.12475929263E+03 -0.37967770425E+03  0.41282979075E+03  0.79300836985E+02 0.  0.
         25    2    1    2    0    0  0.64173402930E+02 -0.12687852756E+03 -0.12030629577E+02  0.18976949651E+03  0.12510531307E+03 0.  0.
         24    2    1    2    0    0  0.23079717631E+01  0.21192349315E+01  0.18166779249E+03  0.19878497328E+03  0.80637837785E+02 0.  0.
        -13    1    5    5    0    0  0.40301661936E+02  0.52947406122E+00  0.69438401438E+02  0.80288205185E+02  0.00000000000E+00 0.  1.
         14    1    5    5    0    0 -0.37993690173E+02  0.15897608702E+01  0.11222939105E+03  0.11849676810E+03  0.00000000000E+00 0. -1.
         11    1    3    3    0    0 -0.56764479287E+02  0.11988271574E+03 -0.37943897544E+03  0.40195523099E+03  0.00000000000E+00 0. -1.
        -12    1    3    3    0    0 -0.97168954064E+01  0.48765768945E+01 -0.23872881716E+00  0.10874559761E+02  0.00000000000E+00 0.  1.
          5    1    4    4  501    0  0.38321376225E+02 -0.44288895654E+02  0.54824879409E+02  0.80332272196E+02  0.41800000000E+01 0.  1.
         -5    1    4    4    0  501  0.25852026705E+02 -0.82589631908E+02 -0.66855508986E+02  0.10943722431E+03  0.41800000000E+01 0.  1.
</event>
<event>
11    1  0.6625361E-009  0.1348331E+03  0.7561462E-02  0.1113469E+00
         22   -1    0    0    0    0  0.00000000000E+00  0.00000000000E+00  0.11810161539E+04  0.11810161539E+04  0.00000000000E+00 0.  1.
         22   -1    0    0    0    0 -0.00000000000E+00 -0.00000000000E+00 -0.14232826850E+03  0.14232826850E+03  0.00000000000E+00 0. -1.
        -24    2    1    2    0    0  0.38782942324E+02 -0.18246149378E+02 -0.61180117897E+02  0.11044528654E+03  0.81351803369E+02 0.  0.
         25    2    1    2    0    0 -0.50660863570E+02 -0.30948841665E+02  0.33680388934E+02  0.14250417453E+03  0.12509483308E+03 0.  0.
         24    2    1    2    0    0  0.11877921246E+02  0.49194991043E+02  0.10661876144E+04  0.10703949614E+04  0.80175507730E+02 0.  0.
        -13    1    5    5    0    0  0.41134471289E+02  0.30456119083E+02  0.83966163490E+03  0.84122011450E+03  0.00000000000E+00 0.  1.
         14    1    5    5    0    0 -0.29256550043E+02  0.18738871960E+02  0.22652597950E+03  0.22917484685E+03  0.00000000000E+00 0. -1.
         13    1    3    3    0    0 -0.39625202194E+01 -0.41096331493E+02 -0.16299355830E+02  0.44387825236E+02  0.00000000000E+00 0. -1.
        -14    1    3    3    0    0  0.42745462544E+02  0.22850182115E+02 -0.44880762066E+02  0.66057461307E+02  0.00000000000E+00 0.  1.
          5    1    4    4  501    0 -0.89185197077E+02 -0.12330507652E+02  0.40786776298E+02  0.98929643269E+02  0.41800000000E+01 0.  1.
         -5    1    4    4    0  501  0.38524333506E+02 -0.18618334013E+02 -0.71063873638E+01  0.43574531264E+02  0.41800000000E+01 0.  1.
</event>
<event>
11    1  0.6625361E-009  0.1305319E+03  0.7561462E-02  0.1118617E+00
         22   -1    0    0    0    0  0.00000000000E+00  0.00000000000E+00  0.13876335497E+03  0.13876335497E+03  0.00000000000E+00 0. -1.
         22   -1    0    0    0    0 -0.00000000000E+00 -0.00000000000E+00 -0.19434013301E+04  0.19434013301E+04  0.00000000000E+00 0. -1.
        -24    2    1    2    0    0  0.34681693327E+02 -0.10436852915E+02 -0.15093603960E+04  0.15119065684E+04  0.79880653574E+02 0.  0.
         25    2    1    2    0    0 -0.46882395168E+02  0.42872867432E+01 -0.40825963665E+03  0.42958165466E+03  0.12509247498E+03 0.  0.
         24    2    1    2    0    0  0.12200701841E+02  0.61495661715E+01  0.11298205751E+03  0.14067646202E+03  0.82693695997E+02 0.  0.
        -13    1    5    5    0    0  0.25986178423E+02 -0.11254641256E+02  0.30016021234E+01  0.28477324912E+02  0.00000000000E+00 0.  1.
         14    1    5    5    0    0 -0.13785476582E+02  0.17404207428E+02  0.10998045538E+03  0.11219913710E+03  0.00000000000E+00 0. -1.
         11    1    3    3    0    0  0.21456566688E+02  0.20929638139E+02 -0.12453523701E+04  0.12457130326E+04  0.00000000000E+00 0. -1.
        -12    1    3    3    0    0  0.13225126639E+02 -0.31366491053E+02 -0.26400802589E+03  0.26619353574E+03  0.00000000000E+00 0.  1.
          5    1    4    4  501    0  0.29720877161E+02  0.54177627926E+01 -0.26781265840E+03  0.26954364228E+03  0.41800000000E+01 0. -1.
         -5    1    4    4    0  501 -0.76603272328E+02 -0.11304760493E+01 -0.14044697825E+03  0.16003801238E+03  0.41800000000E+01 0. -1.
</event>
<event>
11    1  0.6625361E-009  0.1505884E+03  0.7561462E-02  0.1096279E+00
         22   -1    0    0    0    0  0.00000000000E+00  0.00000000000E+00  0.17996059586E+03  0.17996059586E+03  0.00000000000E+00 0. -1.
         22   -1    0    0    0    0 -0.00000000000E+00 -0.00000000000E+00 -0.19125336981E+04  0.19125336981E+04  0.00000000000E+00 0.  1.
         24    2    1    2    0    0  0.19769176493E+02 -0.26155953501E+02 -0.12738919890E+04  0.12769116364E+04  0.81409908447E+02 0.  0.
         25    2    1    2    0    0 -0.24050855086E+02 -0.58369674805E+02 -0.60903687074E+03  0.62494692970E+03  0.12508913804E+03 0.  0.
        -24    2    1    2    0    0  0.42816785930E+01  0.84525628307E+02  0.15035575753E+03  0.19063572787E+03  0.81069182230E+02 0.  0.
        -13    1    3    3    0    0  0.51474016126E+01 -0.28604724148E+02 -0.12341859385E+04  0.12345281110E+04  0.00000000000E+00 0.  1.
         14    1    3    3    0    0  0.14621774880E+02  0.24487706466E+01 -0.39706050529E+02  0.42383525419E+02  0.00000000000E+00 0. -1.
         13    1    5    5    0    0  0.42469689451E+02  0.51110350943E+02  0.84888892249E+02  0.10780568873E+03  0.00000000000E+00 0. -1.
        -14    1    5    5    0    0 -0.38188010858E+02  0.33415277364E+02  0.65466865279E+02  0.82830039141E+02  0.00000000000E+00 0.  1.
          5    1    4    4  501    0  0.50753763883E+02 -0.13155337365E+02 -0.23265225934E+03  0.23852369615E+03  0.41800000000E+01 0. -1.
         -5    1    4    4    0  501 -0.74804618969E+02 -0.45214337440E+02 -0.37638461139E+03  0.38642323355E+03  0.41800000000E+01 0. -1.
</event>
<event>
11    1  0.6625361E-009  0.1653400E+03  0.7561462E-02  0.1082160E+00
         22   -1    0    0    0    0  0.00000000000E+00  0.00000000000E+00  0.10592369913E+04  0.10592369913E+04  0.00000000000E+00 0.  1.
         22   -1    0    0    0    0 -0.00000000000E+00 -0.00000000000E+00 -0.69006516600E+03  0.69006516600E+03  0.00000000000E+00 0. -1.
        -24    2    1    2    0    0  0.24467332063E+02  0.46316737864E+02 -0.66183865882E+03  0.66833462749E+03  0.76791102670E+02 0.  0.
         25    2    1    2    0    0  0.62793680615E+02  0.36829793149E+02  0.26145748075E+03  0.29884406699E+03  0.12509309392E+03 0.  0.
         24    2    1    2    0    0 -0.87261012678E+02 -0.83146531014E+02  0.76955300335E+03  0.78212346279E+03  0.70551088858E+02 0.  0.
        -13    1    5    5    0    0 -0.78227251345E+02 -0.45665808400E+02  0.37908610715E+03  0.38975780370E+03  0.00000000000E+00 0.  1.
         14    1    5    5    0    0 -0.90337613324E+01 -0.37480722614E+02  0.39046689619E+03  0.39236565909E+03  0.00000000000E+00 0. -1.
         13    1    3    3    0    0  0.27770000735E+02 -0.14928316336E+02 -0.23910897354E+03  0.24117862426E+03  0.00000000000E+00 0. -1.
        -14    1    3    3    0    0 -0.33026686719E+01  0.61245054200E+02 -0.42272968528E+03  0.42715600323E+03  0.00000000000E+00 0.  1.
          5    1    4    4  501    0 -0.29557623766E+02 -0.12207615910E+02  0.26884168542E+02  0.41987020936E+02  0.41800000000E+01 0.  1.
         -5    1    4    4    0  501  0.92351304381E+02  0.49037409059E+02  0.23457331220E+03  0.25685704605E+03  0.41800000000E+01 0.  1.
</event>
<event>
11    1  0.6625361E-009  0.2045848E+03  0.7561462E-02  0.1051328E+00
         22   -1    0    0    0    0  0.00000000000E+00  0.00000000000E+00  0.16430312486E+04  0.16430312486E+04  0.00000000000E+00 0. -1.
         22   -1    0    0    0    0 -0.00000000000E+00 -0.00000000000E+00 -0.12663226459E+04  0.12663226459E+04  0.00000000000E+00 0. -1.
        -24    2    1    2    0    0 -0.17515742122E+02 -0.84754545358E+02 -0.12359743687E+04  0.12417048424E+04  0.81903244010E+02 0.  0.
         25    2    1    2    0    0  0.16103068766E+03 -0.38935523325E+01  0.51032764179E+03  0.54957044495E+03  0.12508928760E+03 0.  0.
         24    2    1    2    0    0 -0.14351494553E+03  0.88648097690E+02  0.11023553296E+04  0.11180786072E+04  0.80358412019E+02 0.  0.
        -11    1    5    5    0    0 -0.32055470754E+02  0.53276025520E+02  0.54852131889E+03  0.55203398933E+03  0.00000000000E+00 0.  1.
         12    1    5    5    0    0 -0.11145947478E+03  0.35372072170E+02  0.55383401073E+03  0.56604461790E+03  0.00000000000E+00 0. -1.
         13    1    3    3    0    0  0.93034275612E+01 -0.90746167950E+02 -0.99307821394E+03  0.99725912368E+03  0.00000000000E+00 0. -1.
        -14    1    3    3    0    0 -0.26819169684E+02  0.59916225925E+01 -0.24289615474E+03  0.24444571870E+03  0.00000000000E+00 0.  1.
          5    1    4    4  501    0  0.16998358174E+03  0.26326812219E+02  0.42469114671E+03  0.45822217493E+03  0.41800000000E+01 0. -1.
         -5    1    4    4    0  501 -0.89528940888E+01 -0.30220364551E+02  0.85636495073E+02  0.91348270014E+02  0.41800000000E+01 0. -1.
</event>
<event>
11    1  0.6625361E-009  0.1701406E+03  0.7561462E-02  0.1077909E+00
         22   -1    0    0    0    0  0.00000000000E+00  0.00000000000E+00  0.31877041015E+03  0.31877041015E+03  0.00000000000E+00 0.  1.
         22   -1    0    0    0    0 -0.00000000000E+00 -0.00000000000E+00 -0.26564912058E+03  0.26564912058E+03  0.00000000000E+00 0. -1.
        -24    2    1    2    0    0 -0.11856900911E+02 -0.19619680036E+01 -0.10726574854E+03  0.13386827605E+03  0.79185472821E+02 0.  0.
         25    2    1    2    0    0 -0.47759618280E+01 -0.11265217501E+03 -0.68426697150E+02  0.18177955190E+03  0.12509304641E+03 0.  0.
         24    2    1    2    0    0  0.16632862739E+02  0.11461414301E+03  0.22881373526E+03  0.26877170278E+03  0.80432884271E+02 0.  0.
        -11    1    5    5    0    0 -0.25899169310E+02  0.69263154416E+02  0.15856702904E+03  0.17496186507E+03  0.00000000000E+00 0.  1.
         12    1    5    5    0    0  0.42532032049E+02  0.45350988597E+02  0.70246706220E+02  0.93809837713E+02  0.00000000000E+00 0. -1.
         11    1    3    3    0    0 -0.44067009080E+02  0.81273850084E+01 -0.73786354312E+02  0.86327178565E+02  0.00000000000E+00 0. -1.
        -12    1    3    3    0    0  0.32210108169E+02 -0.10089353012E+02 -0.33479394224E+02  0.47541097485E+02  0.00000000000E+00 0.  1.
          5    1    4    4  501    0  0.15064219723E+02 -0.22829322371E+02 -0.83954662366E+02  0.88396642519E+02  0.41800000000E+01 0.  1.
         -5    1    4    4    0  501 -0.19840181551E+02 -0.89822852639E+02  0.15527965216E+02  0.93382909378E+02  0.41800000000E+01 0.  1.
</event>
<event>
11    1  0.6625361E-009  0.1315639E+03  0.7561462E-02  0.1117362E+00
         22   -1    0    0    0    0  0.00000000000E+00  0.00000000000E+00  0.16213617348E+04  0.16213617348E+04  0.00000000000E+00 0. -1.
         22   -1    0    0    0    0 -0.00000000000E+00 -0.00000000000E+00 -0.17247477456E+03  0.17247477456E+03  0.00000000000E+00 0.  1.
        -24    2    1    2    0    0 -0.37227326702E+02  0.18295998994E+02 -0.13697756438E+03  0.16396849484E+03  0.80013728358E+02 0.  0.
         25    2    1    2    0    0  0.34268038831E+02  0.20400294711E+01  0.18109692407E+03  0.22275941673E+03  0.12508877500E+03 0.  0.
         24    2    1    2    0    0  0.29592878703E+01 -0.20336028465E+02  0.14047676005E+04  0.14071085978E+04  0.78487470167E+02 0.  0.
        -11    1    5    5    0    0 -0.47211557027E+01  0.19827045412E+02  0.12210074245E+03  0.12379011409E+03  0.00000000000E+00 0.  1.
         12    1    5    5    0    0  0.76804435730E+01 -0.40163073877E+02  0.12826668581E+04  0.12833184837E+04  0.00000000000E+00 0. -1.
         13    1    3    3    0    0  0.68700008671E+01  0.38970938524E+02 -0.78138804930E+02  0.87587692042E+02  0.00000000000E+00 0. -1.
        -14    1    3    3    0    0 -0.44097327569E+02 -0.20674939529E+02 -0.58838759448E+02  0.76380802802E+02  0.00000000000E+00 0.  1.
          5    1    4    4  501    0 -0.31977381387E+02 -0.11961122451E+02  0.59146113151E+01  0.34900951243E+02  0.41800000000E+01 0.  1.
         -5    1    4    4    0  501  0.66245420218E+02  0.14001151922E+02  0.17518231275E+03  0.18785846549E+03  0.41800000000E+01 0.  1.
</event>
<event>
11    1  0.6625361E-009  0.1680575E+03  0.7561462E-02  0.1079735E+00
         22   -1    0    0    0    0  0.00000000000E+00  0.00000000000E+00  0.36485523859E+03  0.36485523859E+03  0.00000000000E+00 0.  1.
         22   -1    0    0    0    0 -0.00000000000E+00 -0.00000000000E+00 -0.92082437522E+03  0.92082437522E+03  0.00000000000E+00 0.  1.
         24    2    1    2    0    0  0.98021718360E+02  0.48360277045E+02 -0.75330429082E+03  0.76583987856E+03  0.84240081665E+02 0.  0.
         25    2    1    2    0    0 -0.92834571296E+02 -0.13551679639E+03 -0.78690278140E+02  0.22095536924E+03  0.12508419402E+03 0.  0.
        -24    2    1    2    0    0 -0.51871470633E+01  0.87156519344E+02  0.27602543233E+03  0.29888436600E+03  0.74287681232E+02 0.  0.
        -11    1    3    3    0    0  0.82529348019E+02  0.72091506036E+02 -0.60847015304E+03  0.61825901180E+03  0.00000000000E+00 0.  1.
         12    1    3    3    0    0  0.15492370340E+02 -0.23731228991E+02 -0.14483413778E+03  0.14758086676E+03  0.00000000000E+00 0. -1.
         13    1    5    5    0    0 -0.20301537480E+02  0.45220882661E+02  0.57760815920E+02  0.76114338389E+02  0.00000000000E+00 0. -1.
        -14    1    5    5    0    0  0.15114390416E+02  0.41935636683E+02  0.21826461641E+03  0.22277002761E+03  0.00000000000E+00 0.  1.
          5    1    4    4  501    0 -0.49659157254E+02 -0.13093466907E+03 -0.10027722527E+03  0.17228730009E+03  0.41800000000E+01 0. -1.
         -5    1    4    4    0  501 -0.43175414043E+02 -0.45821273166E+01  0.21586947133E+02  0.48668069152E+02  0.41800000000E+01 0. -1.
</event>
<event>
11    1  0.6625361E-009  0.1407161E+03  0.7561462E-02  0.1106761E+00
         22   -1    0    0    0    0  0.00000000000E+00  0.00000000000E+00  0.10426096629E+04  0.10426096629E+04  0.00000000000E+00 0. -1.
         22   -1    0    0    0    0 -0.00000000000E+00 -0.00000000000E+00 -0.43811203492E+03  0.43811203492E+03  0.00000000000E+00 0.  1.
         24    2    1    2    0    0  0.15134243753E+02  0.10405514634E+02 -0.40220841485E+03  0.41065328946E+03  0.80791058293E+02 0.  0.
         25    2    1    2    0    0  0.41195666100E+02 -0.43203457805E+02  0.13943445180E+03  0.19660749067E+03  0.12509563289E+03 0.  0.
        -24    2    1    2    0    0 -0.56329909854E+02  0.32797943171E+02  0.86727159098E+03  0.87346091764E+03  0.80778699590E+02 0.  0.
        -13    1    3    3    0    0  0.40498320109E+02  0.23552979013E+02 -0.32440539320E+03  0.32777082831E+03  0.00000000000E+00 0.  1.
         14    1    3    3    0    0 -0.25364076355E+02 -0.13147464378E+02 -0.77803021641E+02  0.82882461145E+02  0.00000000000E+00 0. -1.
         11    1    5    5    0    0 -0.52618440766E+02  0.51097659757E+02  0.80789419985E+03  0.81121680782E+03  0.00000000000E+00 0. -1.
        -12    1    5    5    0    0 -0.37114690873E+01 -0.18299716587E+02  0.59377391126E+02  0.62244109817E+02  0.00000000000E+00 0.  1.
          5    1    4    4  501    0 -0.34610937974E+01  0.32357459611E+02  0.12275652151E+01  0.32832357197E+02  0.41800000000E+01 0.  1.
         -5    1    4    4    0  501  0.44656759898E+02 -0.75560917416E+02  0.13820688659E+03  0.16377513348E+03  0.41800000000E+01 0.  1.
</event>
<event>
11    1  0.6625361E-009  0.1273178E+03  0.7561462E-02  0.1122609E+00
         22   -1    0    0    0    0  0.00000000000E+00  0.00000000000E+00  0.86778692456E+03  0.86778692456E+03  0.00000000000E+00 0. -1.
         22   -1    0    0    0    0 -0.00000000000E+00 -0.00000000000E+00 -0.21736284293E+04  0.21736284293E+04  0.00000000000E+00 0. -1.
         24    2    1    2    0    0 -0.95060287353E+01  0.21696631511E+02 -0.21510063237E+04  0.21526833759E+04  0.81586785371E+02 0.  0.
         25    2    1    2    0    0  0.94418432713E+01 -0.28644378516E+02  0.19518652459E+03  0.23378404608E+03  0.12509017545E+03 0.  0.
        -24    2    1    2    0    0  0.64185464049E-01  0.69477470060E+01  0.64997829437E+03  0.65494793197E+03  0.80229266061E+02 0.  0.
        -13    1    3    3    0    0 -0.97125115865E+01  0.25196863605E+02 -0.21698559488E+03  0.21865946859E+03  0.00000000000E+00 0.  1.
         14    1    3    3    0    0  0.20648285120E+00 -0.35002320949E+01 -0.19340207289E+04  0.19340239073E+04  0.00000000000E+00 0. -1.
         11    1    5    5    0    0  0.67922437592E+01  0.42307971438E+02  0.41847677845E+03  0.42066484655E+03  0.00000000000E+00 0. -1.
        -12    1    5    5    0    0 -0.67280582951E+01 -0.35360224432E+02  0.23150151592E+03  0.23428308542E+03  0.00000000000E+00 0.  1.
          5    1    4    4  501    0 -0.88305179582E+01 -0.70077105805E+02  0.65738676340E+02  0.96580664588E+02  0.41800000000E+01 0.  1.
         -5    1    4    4    0  501  0.18272361229E+02  0.41432727288E+02  0.12944784825E+03  0.13720338149E+03  0.41800000000E+01 0.  1.
</event>
<event>
11    1  0.6625361E-009  0.1438325E+03  0.7561462E-02  0.1103353E+00
         22   -1    0    0    0    0  0.00000000000E+00  0.00000000000E+00  0.53768037227E+03  0.53768037227E+03  0.00000000000E+00 0.  1.
         22   -1    0    0    0    0 -0.00000000000E+00 -0.00000000000E+00 -0.25035281742E+04  0.25035281742E+04  0.00000000000E+00 0.  1.
        -24    2    1    2    0    0 -0.22766144515E+01  0.31915170504E+02 -0.18845873851E+04  0.18867909125E+04  0.85361434598E+02 0.  0.
         25    2    1    2    0    0  0.21851318080E+02  0.36615034156E+02 -0.60509222888E+03  0.61935598679E+03  0.12508833717E+03 0.  0.
         24    2    1    2    0    0 -0.19574703629E+02 -0.68530204660E+02  0.52383181204E+03  0.53506164713E+03  0.82532665988E+02 0.  0.
        -13    1    5    5    0    0 -0.80889624299E+01 -0.57521425153E+02  0.51187383334E+03  0.51515916659E+03  0.00000000000E+00 0.  1.
         14    1    5    5    0    0 -0.11485741199E+02 -0.11008779507E+02  0.11957978699E+02  0.19902480541E+02  0.00000000000E+00 0. -1.
         11    1    3    3    0    0  0.77907281421E+01 -0.11614254334E+02 -0.58184820228E+02  0.59841955631E+02  0.00000000000E+00 0. -1.
        -12    1    3    3    0    0 -0.10067342594E+02  0.43529424838E+02 -0.18264025649E+04  0.18269489569E+04  0.00000000000E+00 0.  1.
          5    1    4    4  501    0 -0.13548929440E+01  0.68962118088E+02 -0.18712706654E+03  0.19947837200E+03  0.41800000000E+01 0. -1.
         -5    1    4    4    0  501  0.23206211024E+02 -0.32347083932E+02 -0.41796516234E+03  0.41987761479E+03  0.41800000000E+01 0. -1.
</event>
<event>
11    1  0.6625361E-009  0.1456911E+03  0.7561462E-02  0.1101365E+00
         22   -1    0    0    0    0  0.00000000000E+00  0.00000000000E+00  0.26214137766E+04  0.26214137766E+04  0.00000000000E+00 0. -1.
         22   -1    0    0    0    0 -0.00000000000E+00 -0.00000000000E+00 -0.35239834017E+02  0.35239834017E+02  0.00000000000E+00 0.  1.
        -24    2    1    2    0    0  0.26192904200E+02  0.43176903742E+02  0.56449929149E+02  0.11085042327E+03  0.80937683384E+02 0.  0.
         25    2    1    2    0    0 -0.66180059431E+02  0.25851759378E+02  0.84273383825E+03  0.85492466265E+03  0.12509093867E+03 0.  0.
         24    2    1    2    0    0  0.39987155232E+02 -0.69028663120E+02  0.16869901752E+04  0.16908785247E+04  0.82282472076E+02 0.  0.
        -11    1    5    5    0    0  0.24325570956E+02  0.15013821208E+02  0.35612580900E+03  0.35727124159E+03  0.00000000000E+00 0.  1.
         12    1    5    5    0    0  0.15661584275E+02 -0.84042484328E+02  0.13308643662E+04  0.13336072831E+04  0.00000000000E+00 0. -1.
         11    1    3    3    0    0 -0.50183377163E+00 -0.49918069377E+01  0.55545721444E+02  0.55771831101E+02  0.00000000000E+00 0. -1.
        -12    1    3    3    0    0  0.26694737971E+02  0.48168710680E+02  0.90420770430E+00  0.55078592171E+02  0.00000000000E+00 0.  1.
          5    1    4    4  501    0 -0.74354378575E+02 -0.33568665477E+02  0.55466963115E+03  0.56065256714E+03  0.41800000000E+01 0.  1.
         -5    1    4    4    0  501  0.81743191432E+01  0.59420424855E+02  0.28806420710E+03  0.29427209551E+03  0.41800000000E+01 0.  1.
</event>
<event>
11    1  0.6625361E-009  0.1408270E+03  0.7561462E-02  0.1106638E+00
         22   -1    0    0    0    0  0.00000000000E+00  0.00000000000E+00  0.14067102997E+04  0.14067102997E+04  0.00000000000E+00 0.  1.
         22   -1    0    0    0    0 -0.00000000000E+00 -0.00000000000E+00 -0.15194625408E+03  0.15194625408E+03  0.00000000000E+00 0. -1.
         24    2    1    2    0    0  0.49496397845E+02  0.31419605582E+02 -0.36788448876E+02  0.10577704397E+03  0.79989424582E+02 0.  0.
         25    2    1    2    0    0 -0.65680736618E+02 -0.39190615854E+02 -0.11561327187E+02  0.14709479425E+03  0.12511335130E+03 0.  0.
        -24    2    1    2    0    0  0.16184338773E+02  0.77710102719E+01  0.13031138216E+04  0.13057847155E+04  0.81521590628E+02 0.  0.
        -11    1    3    3    0    0  0.14188167573E+02 -0.11761587932E+02  0.19292199536E+02  0.26680105185E+02  0.00000000000E+00 0.  1.
         12    1    3    3    0    0  0.35308230272E+02  0.43181193515E+02 -0.56080648412E+02  0.79096938782E+02  0.00000000000E+00 0. -1.
         13    1    5    5    0    0 -0.24679035686E+02 -0.10690642274E+02  0.20512452014E+03  0.20688019092E+03  0.00000000000E+00 0. -1.
        -14    1    5    5    0    0  0.40863374459E+02  0.18461652546E+02  0.10979893015E+04  0.10989045246E+04  0.00000000000E+00 0.  1.
          5    1    4    4  501    0  0.20746106931E+02  0.60134344200E+01  0.33095976121E+02  0.39741393807E+02  0.41800000000E+01 0. -1.
         -5    1    4    4    0  501 -0.86426843549E+02 -0.45204050274E+02 -0.44657303308E+02  0.10735340044E+03  0.41800000000E+01 0. -1.
</event>
<event>
11    1  0.6625361E-009  0.1447150E+03  0.7561462E-02  0.1102405E+00
         22   -1    0    0    0    0  0.00000000000E+00  0.00000000000E+00  0.43798415397E+02  0.43798415397E+02  0.00000000000E+00 0. -1.
         22   -1    0    0    0    0 -0.00000000000E+00 -0.00000000000E+00 -0.13003974078E+04  0.13003974078E+04  0.00000000000E+00 0. -1.
        -24    2    1    2    0    0  0.34332801042E+02 -0.19359785213E+02 -0.85933973895E+03  0.86436796428E+03  0.84342446188E+02 0.  0.
         25    2    1    2    0    0 -0.96160704934E+02  0.42712962508E+01 -0.28608419159E+03  0.32673723935E+03  0.12509170137E+03 0.  0.
         24    2    1    2    0    0  0.61827903891E+02  0.15088488962E+02 -0.11117506186E+03  0.15309061957E+03  0.83824168480E+02 0.  0.
        -11    1    5    5    0    0 -0.11520106929E+02  0.79621426166E+01 -0.64174927448E+02  0.65685081196E+02  0.00000000000E+00 0.  1.
         12    1    5    5    0    0  0.73348010820E+02  0.71263463454E+01 -0.47000134416E+02  0.87405538375E+02  0.00000000000E+00 0. -1.
         11    1    3    3    0    0  0.56280114084E+01 -0.44154038481E+02 -0.65684048294E+03  0.65834692500E+03  0.00000000000E+00 0. -1.
        -12    1    3    3    0    0  0.28704789634E+02  0.24794253268E+02 -0.20249925600E+03  0.20602103928E+03  0.00000000000E+00 0.  1.
          5    1    4    4  501    0  0.67992798767E+01  0.30922900883E+02 -0.15314425963E+03  0.15643878248E+03  0.41800000000E+01 0. -1.
         -5    1    4    4    0  501 -0.10295998481E+03 -0.26651604632E+02 -0.13293993196E+03  0.17029845687E+03  0.41800000000E+01 0. -1.
</event>
<event>
11    1  0.6625361E-009  0.1882649E+03  0.7561462E-02  0.1063147E+00
         22   -1    0    0    0    0  0.00000000000E+00  0.00000000000E+00  0.11316567644E+03  0.11316567644E+03  0.00000000000E+00 0. -1.
         22   -1    0    0    0    0 -0.00000000000E+00 -0.00000000000E+00 -0.90807767398E+03  0.90807767398E+03  0.00000000000E+00 0.  1.
        -24    2    1    2    0    0 -0.12055366703E+03  0.60330175823E+02 -0.58273835306E+03  0.60358112406E+03  0.80952260276E+02 0.  0.
         25    2    1    2    0    0  0.15816676415E+03 -0.44012900167E+02 -0.24633235970E+03  0.32137435715E+03  0.12509190754E+03 0.  0.
         24    2    1    2    0    0 -0.37613097121E+02 -0.16317275657E+02  0.34158715231E+02  0.96287869205E+02  0.80146973554E+02 0.  0.
        -13    1    5    5    0    0  0.24234087056E+01 -0.33932228247E+02 -0.86328805887E+01  0.35096946460E+02  0.00000000000E+00 0.  1.
         14    1    5    5    0    0 -0.40036505827E+02  0.17614952590E+02  0.42791595820E+02  0.61190922745E+02  0.00000000000E+00 0. -1.
         11    1    3    3    0    0 -0.22581160281E+02  0.32601589267E+02 -0.30871848288E+03  0.31125531978E+03  0.00000000000E+00 0. -1.
        -12    1    3    3    0    0 -0.97972506752E+02  0.27728586556E+02 -0.27401987019E+03  0.29232580428E+03  0.00000000000E+00 0.  1.
          5    1    4    4  501    0  0.15488115994E+02 -0.58168535067E+02 -0.97578259486E+02  0.11472771824E+03  0.41800000000E+01 0. -1.
         -5    1    4    4    0  501  0.14267864816E+03  0.14155634900E+02 -0.14875410022E+03  0.20664663891E+03  0.41800000000E+01 0. -1.
</event>
<event>
11    1  0.6625361E-009  0.1533895E+03  0.7561462E-02  0.1093465E+00
         22   -1    0    0    0    0  0.00000000000E+00  0.00000000000E+00  0.22465551861E+04  0.22465551861E+04  0.00000000000E+00 0.  1.
         22   -1    0    0    0    0 -0.00000000000E+00 -0.00000000000E+00 -0.51207951595E+02  0.51207951595E+02  0.00000000000E+00 0. -1.
        -24    2    1    2    0    0  0.80570489797E+01 -0.10105428026E+02  0.27249289211E+02  0.87197409224E+02  0.81815821813E+02 0.  0.
         25    2    1    2    0    0 -0.47310018871E+02  0.88422039609E+02  0.31407775990E+03  0.35263305812E+03  0.12509412233E+03 0.  0.
         24    2    1    2    0    0  0.39252969891E+02 -0.78316611583E+02  0.18540201854E+04  0.18579326703E+04  0.82756706197E+02 0.  0.
        -11    1    5    5    0    0  0.41847912664E+02 -0.34394498601E+02  0.15276482188E+04  0.15286082918E+04  0.00000000000E+00 0.  1.
         12    1    5    5    0    0 -0.25949427729E+01 -0.43922112982E+02  0.32637196657E+03  0.32932437854E+03  0.00000000000E+00 0. -1.
         11    1    3    3    0    0  0.29622759103E+02 -0.30113471798E+02 -0.61536666857E+01  0.42687195437E+02  0.00000000000E+00 0. -1.
        -12    1    3    3    0    0 -0.21565710124E+02  0.20008043772E+02  0.33402955897E+02  0.44510213787E+02  0.00000000000E+00 0.  1.
          5    1    4    4  501    0  0.72940815905E+01 -0.28748738667E+02  0.44600732351E+02  0.53725146137E+02  0.41800000000E+01 0. -1.
         -5    1    4    4    0  501 -0.54604100461E+02  0.11717077828E+03  0.26947702755E+03  0.29890791199E+03  0.41800000000E+01 0. -1.
</event>
<event>
11    1  0.6625361E-009  0.1659510E+03  0.7561462E-02  0.1081610E+00
         22   -1    0    0    0    0  0.00000000000E+00  0.00000000000E+00  0.55653592738E+03  0.55653592738E+03  0.00000000000E+00 0.  1.
         22   -1    0    0    0    0 -0.00000000000E+00 -0.00000000000E+00 -0.46008347359E+04  0.46008347359E+04  0.00000000000E+00 0. -1.
         24    2    1    2    0    0 -0.27713153885E+02  0.14549244103E+02 -0.44053451274E+04  0.44061821831E+04  0.79975248274E+02 0.  0.
         25    2    1    2    0    0 -0.73504276226E+02  0.29763620454E+02 -0.15680894252E+03  0.21568280427E+03  0.12506508656E+03 0.  0.
        -24    2    1    2    0    0  0.10121743011E+03 -0.44312864557E+02  0.51785526138E+03  0.53550567586E+03  0.79897803557E+02 0.  0.
        -13    1    3    3    0    0 -0.24192932935E+02 -0.31355624500E+02 -0.18744491198E+04  0.18748674556E+04  0.00000000000E+00 0.  1.
         14    1    3    3    0    0 -0.35202209502E+01  0.45904868603E+02 -0.25308960076E+04  0.25313147276E+04  0.00000000000E+00 0. -1.
         11    1    5    5    0    0  0.23523339960E+02  0.14310816371E+02  0.45143835224E+02  0.52878283319E+02  0.00000000000E+00 0. -1.
        -12    1    5    5    0    0  0.77694090151E+02 -0.58623680928E+02  0.47271142616E+03  0.48262739254E+03  0.00000000000E+00 0.  1.
          5    1    4    4  501    0 -0.76693578047E+02 -0.76315824389E+01 -0.29069159518E+02  0.82478084357E+02  0.41800000000E+01 0.  1.
         -5    1    4    4    0  501  0.31893018211E+01  0.37395202893E+02 -0.12773978300E+03  0.13320471991E+03  0.41800000000E+01 0.  1.
</event>
<event>
11    1  0.6625361E-009  0.1387764E+03  0.7561462E-02  0.1108932E+00
         22   -1    0    0    0    0  0.00000000000E+00  0.00000000000E+00  0.85187933195E+03  0.85187933195E+03  0.00000000000E+00 0.  1.
         22   -1    0    0    0    0 -0.00000000000E+00 -0.00000000000E+00 -0.69674011999E+03  0.69674011999E+03  0.00000000000E+00 0. -1.
        -24    2    1    2    0    0 -0.46215299904E+01  0.33673350721E+02 -0.46084829482E+03  0.46906097816E+03  0.80509610019E+02 0.  0.
         25    2    1    2    0    0 -0.51899835482E+02 -0.12642729448E+02 -0.20843837253E+03  0.24889318722E+03  0.12509129454E+03 0.  0.
         24    2    1    2    0    0  0.56521365472E+02 -0.21030621273E+02  0.82442587932E+03  0.83066528656E+03  0.81791417825E+02 0.  0.
        -13    1    5    5    0    0  0.67981585867E+02  0.45129087019E+01  0.68996604845E+03  0.69332172213E+03  0.00000000000E+00 0.  1.
         14    1    5    5    0    0 -0.11460220395E+02 -0.25543529975E+02  0.13445983086E+03  0.13734356443E+03  0.00000000000E+00 0. -1.
         13    1    3    3    0    0 -0.35598805789E+02  0.41742758880E+02 -0.26570194190E+03  0.27130656981E+03  0.00000000000E+00 0. -1.
        -14    1    3    3    0    0  0.30977275798E+02 -0.80694081584E+01 -0.19514635292E+03  0.19775440835E+03  0.00000000000E+00 0.  1.
          5    1    4    4  501    0 -0.45463586923E+02  0.52517419001E+02 -0.93603213196E+02  0.11663640493E+03  0.41800000000E+01 0. -1.
         -5    1    4    4    0  501 -0.64362485582E+01 -0.65160148450E+02 -0.11483515934E+03  0.13225678229E+03  0.41800000000E+01 0. -1.
</event>
<event>
11    1  0.6625361E-009  0.1357270E+03  0.7561462E-02  0.1112426E+00
         22   -1    0    0    0    0  0.00000000000E+00  0.00000000000E+00  0.98387333955E+03  0.98387333955E+03  0.00000000000E+00 0. -1.
         22   -1    0    0    0    0 -0.00000000000E+00 -0.00000000000E+00 -0.63843024961E+03  0.63843024961E+03  0.00000000000E+00 0. -1.
         24    2    1    2    0    0  0.34903977182E+02 -0.40434333942E+02 -0.59893358845E+03  0.60672242472E+03  0.80854401818E+02 0.  0.
         25    2    1    2    0    0 -0.60439209110E+01  0.32563123668E+02  0.91404148048E+02  0.15842837146E+03  0.12509174473E+03 0.  0.
        -24    2    1    2    0    0 -0.28860056271E+02  0.78712102736E+01  0.85297253034E+03  0.85715279298E+03  0.79081693164E+02 0.  0.
        -13    1    3    3    0    0  0.55163291271E+02 -0.41174765127E+02 -0.33429744455E+03  0.34131090141E+03  0.00000000000E+00 0.  1.
         14    1    3    3    0    0 -0.20259314089E+02  0.74043118548E+00 -0.26463614390E+03  0.26541152331E+03  0.00000000000E+00 0. -1.
         11    1    5    5    0    0 -0.16551941199E+01 -0.48021148991E+01  0.74687246436E+03  0.74688973617E+03  0.00000000000E+00 0. -1.
        -12    1    5    5    0    0 -0.27204862151E+02  0.12673325173E+02  0.10610006598E+03  0.11026305681E+03  0.00000000000E+00 0.  1.
          5    1    4    4  501    0 -0.13203311543E+02 -0.45415621070E+02  0.17294722836E+02  0.50532028565E+02  0.41800000000E+01 0.  1.
         -5    1    4    4    0  501  0.71593906325E+01  0.77978744738E+02  0.74109425212E+02  0.10789634290E+03  0.41800000000E+01 0.  1.
</event>
<event>
11    1  0.6625361E-009  0.1565542E+03  0.7561462E-02  0.1090364E+00
         22   -1    0    0    0    0  0.00000000000E+00  0.00000000000E+00  0.34523798087E+03  0.34523798087E+03  0.00000000000E+00 0.  1.
         22   -1    0    0    0    0 -0.00000000000E+00 -0.00000000000E+00 -0.11776298426E+04  0.11776298426E+04  0.00000000000E+00 0.  1.
         24    2    1    2    0    0 -0.89701864061E+02  0.39101183476E+02 -0.60921455607E+03  0.62229173774E+03  0.80804112295E+02 0.  0.
         25    2    1    2    0    0  0.69772960420E+02 -0.57285288639E+02 -0.54622410644E+03  0.56758893248E+03  0.12508617637E+03 0.  0.
        -24    2    1    2    0    0  0.19928903641E+02  0.18184105163E+02  0.32304680081E+03  0.33298715324E+03  0.76114294504E+02 0.  0.
        -11    1    3    3    0    0 -0.93618198323E+02  0.55612348456E+02 -0.55089472468E+03  0.56155329047E+03  0.00000000000E+00 0.  1.
         12    1    3    3    0    0  0.39163342622E+01 -0.16511164980E+02 -0.58319831390E+02  0.60738447267E+02  0.00000000000E+00 0. -1.
         13    1    5    5    0    0 -0.15402497872E+02  0.14929235530E+01  0.24703891799E+03  0.24752311561E+03  0.00000000000E+00 0. -1.
        -14    1    5    5    0    0  0.35331401513E+02  0.16691181610E+02  0.76007882816E+02  0.85464037622E+02  0.00000000000E+00 0.  1.
          5    1    4    4  501    0  0.64825681085E+02 -0.88536584138E+02 -0.49653700879E+03  0.50853472759E+03  0.41800000000E+01 0.  1.
         -5    1    4    4    0  501  0.49472793352E+01  0.31251295499E+02 -0.49687097647E+02  0.59054204895E+02  0.41800000000E+01 0.  1.
</event>
<event>
11    1  0.6625361E-009  0.2121877E+03  0.7561462E-02  0.1046225E+00
         22   -1    0    0    0    0  0.00000000000E+00  0.00000000000E+00  0.25709108941E+03  0.25709108941E+03  0.00000000000E+00 0. -1.
         22   -1    0    0    0    0 -0.00000000000E+00 -0.00000000000E+00 -0.82601165955E+03  0.82601165955E+03  0.00000000000E+00 0.  1.
        -24    2    1    2    0    0  0.13489504693E+03 -0.10896011672E+03 -0.70379589121E+03  0.72946397327E+03  0.81975917745E+02 0.  0.
         25    2    1    2    0    0 -0.16405928782E+03  0.30154599892E+02  0.76014827094E+02  0.22192630861E+03  0.12509309614E+03 0.  0.
         24    2    1    2    0    0  0.29164240889E+02  0.78805516829E+02  0.58860493974E+02  0.13171246708E+03  0.82599962489E+02 0.  0.
        -13    1    5    5    0    0 -0.15491299907E+02 -0.67924499499E+01  0.23371602728E+02  0.28850469029E+02  0.00000000000E+00 0.  1.
         14    1    5    5    0    0  0.44655540795E+02  0.85597966778E+02  0.35488891246E+02  0.10286199805E+03  0.00000000000E+00 0. -1.
         11    1    3    3    0    0  0.61402871528E+02 -0.44475472919E+02 -0.16133087182E+03  0.17825832527E+03  0.00000000000E+00 0. -1.
        -12    1    3    3    0    0  0.73492175400E+02 -0.64484643802E+02 -0.54246501939E+03  0.55120564801E+03  0.00000000000E+00 0.  1.
          5    1    4    4  501    0 -0.92221704674E+02 -0.44774346344E+02  0.53159545725E+02  0.11555515828E+03  0.41800000000E+01 0. -1.
         -5    1    4    4    0  501 -0.71837583142E+02  0.74928946236E+02  0.22855281369E+02  0.10637115033E+03  0.41800000000E+01 0. -1.
</event>
<event>
11    1  0.6625361E-009  0.1457046E+03  0.7561462E-02  0.1101350E+00
         22   -1    0    0    0    0  0.00000000000E+00  0.00000000000E+00  0.36731553257E+03  0.36731553257E+03  0.00000000000E+00 0. -1.
         22   -1    0    0    0    0 -0.00000000000E+00 -0.00000000000E+00 -0.62551079258E+03  0.62551079258E+03  0.00000000000E+00 0.  1.
         24    2    1    2    0    0  0.16854668718E+02  0.10030428200E+02 -0.55763643888E+03  0.56318547051E+03  0.76385776693E+02 0.  0.
         25    2    1    2    0    0  0.52543789789E+02 -0.42382549398E+02  0.40124013686E+02  0.14770291079E+03  0.12509629508E+03 0.  0.
        -24    2    1    2    0    0 -0.69398458508E+02  0.32352121198E+02  0.25931716518E+03  0.28193794385E+03  0.79879948914E+02 0.  0.
        -13    1    3    3    0    0 -0.39904018970E+01 -0.14942469213E+02 -0.46025144277E+03  0.46051122816E+03  0.00000000000E+00 0.  1.
         14    1    3    3    0    0  0.20845070615E+02  0.24972897414E+02 -0.97384996106E+02  0.10267424234E+03  0.00000000000E+00 0. -1.
         13    1    5    5    0    0 -0.86661377055E+02  0.33585083414E+02  0.22672994796E+03  0.24504004040E+03  0.00000000000E+00 0. -1.
        -14    1    5    5    0    0  0.17262918548E+02 -0.12329622168E+01  0.32587217223E+02  0.36897903449E+02  0.00000000000E+00 0.  1.
          5    1    4    4  501    0  0.89402975481E+02 -0.52739056519E+01  0.26576321496E+02  0.93511921005E+02  0.41800000000E+01 0. -1.
         -5    1    4    4    0  501 -0.36859185692E+02 -0.37108643746E+02  0.13547692190E+02  0.54190989788E+02  0.41800000000E+01 0. -1.
</event>
<event>
11    1  0.6625361E-009  0.1397616E+03  0.7561462E-02  0.1107825E+00
         22   -1    0    0    0    0  0.00000000000E+00  0.00000000000E+00  0.12981190148E+04  0.12981190148E+04  0.00000000000E+00 0.  1.
         22   -1    0    0    0    0 -0.00000000000E+00 -0.00000000000E+00 -0.11718835256E+03  0.11718835256E+03  0.00000000000E+00 0. -1.
         24    2    1    2    0    0  0.59120631650E+01 -0.55459612401E+02 -0.39172020825E+02  0.10516753247E+03  0.80093954649E+02 0.  0.
         25    2    1    2    0    0 -0.33111436751E+02  0.86301411997E+02  0.96848782821E+02  0.18322494215E+03  0.12508953488E+03 0.  0.
        -24    2    1    2    0    0  0.27199373586E+02 -0.30841799596E+02  0.11232539002E+04  0.11269148927E+04  0.80912474435E+02 0.  0.
        -11    1    3    3    0    0 -0.30158805563E+01 -0.42596358657E+02  0.17665468740E+02  0.46212704878E+02  0.00000000000E+00 0.  1.
         12    1    3    3    0    0  0.89279437214E+01 -0.12863253744E+02 -0.56837489565E+02  0.58954827589E+02  0.00000000000E+00 0. -1.
         11    1    5    5    0    0 -0.13781388237E+02 -0.23176349957E+02  0.12903504688E+03  0.13182227878E+03  0.00000000000E+00 0. -1.
        -12    1    5    5    0    0  0.40980761823E+02 -0.76654496387E+01  0.99421885333E+03  0.99509261391E+03  0.00000000000E+00 0.  1.
          5    1    4    4  501    0 -0.66339386482E+02  0.93846316088E+02  0.50635454154E+02  0.12565614533E+03  0.41800000000E+01 0. -1.
         -5    1    4    4    0  501  0.33227949731E+02 -0.75449040913E+01  0.46213328667E+02  0.57568796822E+02  0.41800000000E+01 0. -1.
</event>
<event>
11    1  0.6625361E-009  0.1628334E+03  0.7561462E-02  0.1084442E+00
         22   -1    0    0    0    0  0.00000000000E+00  0.00000000000E+00  0.12325320207E+04  0.12325320207E+04  0.00000000000E+00 0.  1.
         22   -1    0    0    0    0 -0.00000000000E+00 -0.00000000000E+00 -0.51505439823E+03  0.51505439823E+03  0.00000000000E+00 0.  1.
        -24    2    1    2    0    0 -0.14937468021E+01 -0.81235863111E+01 -0.49139387142E+03  0.49796123541E+03  0.80182486660E+02 0.  0.
         25    2    1    2    0    0  0.10436883318E+03  0.20039027162E+02  0.43915513912E+03  0.46882818478E+03  0.12509282425E+03 0.  0.
         24    2    1    2    0    0 -0.10287508637E+03 -0.11915440851E+02  0.76971635480E+03  0.78079699878E+03  0.80345661493E+02 0.  0.
        -11    1    5    5    0    0 -0.56411235208E+02  0.27848438295E+02  0.51567050827E+03  0.51949382679E+03  0.00000000000E+00 0.  1.
         12    1    5    5    0    0 -0.46463851166E+02 -0.39763879147E+02  0.25404584654E+03  0.26130317199E+03  0.00000000000E+00 0. -1.
         13    1    3    3    0    0 -0.40548119697E+02 -0.13482135897E+01 -0.22379970519E+03  0.22744730320E+03  0.00000000000E+00 0. -1.
        -14    1    3    3    0    0  0.39054372895E+02 -0.67753727214E+01 -0.26759416623E+03  0.27051393221E+03  0.00000000000E+00 0.  1.
          5    1    4    4  501    0  0.10294956047E+03 -0.23548475720E+02  0.20533978965E+03  0.23094381204E+03  0.41800000000E+01 0.  1.
         -5    1    4    4    0  501  0.14192727088E+01  0.43587502882E+02  0.23381534948E+03  0.23788437274E+03  0.41800000000E+01 0.  1.
</event>
<event>
11    1  0.6625361E-009  0.1480318E+03  0.7561462E-02  0.1098907E+00
         22   -1    0    0    0    0  0.00000000000E+00  0.00000000000E+00  0.13937491715E+03  0.13937491715E+03  0.00000000000E+00 0. -1.
         22   -1    0    0    0    0 -0.00000000000E+00 -0.00000000000E+00 -0.17073265093E+04  0.17073265093E+04  0.00000000000E+00 0.  1.
        -24    2    1    2    0    0 -0.54542159142E+01  0.76399508078E+02 -0.12621242004E+04  0.12670272788E+04  0.80833128561E+02 0.  0.
         25    2    1    2    0    0 -0.16024746383E+02 -0.95370657175E+02 -0.41378506786E+03  0.44296378736E+03  0.12508588960E+03 0.  0.
         24    2    1    2    0    0  0.21478962297E+02  0.18971149097E+02  0.10795767612E+03  0.13671036030E+03  0.78826470557E+02 0.  0.
        -11    1    5    5    0    0 -0.24384866995E+02 -0.11977530098E+02  0.24532187491E+02  0.36604797346E+02  0.00000000000E+00 0.  1.
         12    1    5    5    0    0  0.45863829292E+02  0.30948679195E+02  0.83425488624E+02  0.10010556295E+03  0.00000000000E+00 0. -1.
         11    1    3    3    0    0 -0.16820697293E+02 -0.11560257287E+02 -0.35219968553E+03  0.35279058078E+03  0.00000000000E+00 0. -1.
        -12    1    3    3    0    0  0.11366481379E+02  0.87959765365E+02 -0.90992451486E+03  0.91423669799E+03  0.00000000000E+00 0.  1.
          5    1    4    4  501    0  0.33536195511E+02 -0.73601076503E+02 -0.34977744611E+03  0.35903137618E+03  0.41800000000E+01 0.  1.
         -5    1    4    4    0  501 -0.49560941893E+02 -0.21769580672E+02 -0.64007621750E+02  0.83932411177E+02  0.41800000000E+01 0.  1.
</event>
<event>
11    1  0.6625361E-009  0.2035096E+03  0.7561462E-02  0.1052069E+00
         22   -1    0    0    0    0  0.00000000000E+00  0.00000000000E+00  0.39862703502E+03  0.39862703502E+03  0.00000000000E+00 0. -1.
         22   -1    0    0    0    0 -0.00000000000E+00 -0.00000000000E+00 -0.73741407047E+03  0.73741407047E+03  0.00000000000E+00 0.  1.
        -24    2    1    2    0    0  0.16156262526E+03  0.14632789790E+02 -0.57282789244E+03  0.60041011816E+03  0.77742621577E+02 0.  0.
         25    2    1    2    0    0 -0.15372371975E+03  0.16491581418E+02 -0.76046244914E+02  0.21291821541E+03  0.12509268890E+03 0.  0.
         24    2    1    2    0    0 -0.78389055121E+01 -0.31124371208E+02  0.31008710190E+03  0.32271277192E+03  0.83422703569E+02 0.  0.
        -11    1    5    5    0    0 -0.26848770028E+02  0.12242518311E+02  0.47714793170E+02  0.56102024865E+02  0.00000000000E+00 0.  1.
         12    1    5    5    0    0  0.19009864516E+02 -0.43366889519E+02  0.26237230873E+03  0.26661074705E+03  0.00000000000E+00 0. -1.
         11    1    3    3    0    0  0.94112630805E+02 -0.23771439364E+02 -0.38775999770E+03  0.39972501101E+03  0.00000000000E+00 0. -1.
        -12    1    3    3    0    0  0.67449994459E+02  0.38404229154E+02 -0.18506789474E+03  0.20068510715E+03  0.00000000000E+00 0.  1.
          5    1    4    4  501    0 -0.13301433414E+03 -0.33405828327E+02 -0.27017408793E+02  0.13984339537E+03  0.41800000000E+01 0.  1.
         -5    1    4    4    0  501 -0.20709385616E+02  0.49897409745E+02 -0.49028836121E+02  0.73074820035E+02  0.41800000000E+01 0.  1.
</event>
<event>
11    1  0.6625361E-009  0.1800602E+03  0.7561462E-02  0.1069594E+00
         22   -1    0    0    0    0  0.00000000000E+00  0.00000000000E+00  0.13071674549E+03  0.13071674549E+03  0.00000000000E+00 0. -1.
         22   -1    0    0    0    0 -0.00000000000E+00 -0.00000000000E+00 -0.63140293690E+03  0.63140293690E+03  0.00000000000E+00 0.  1.
        -24    2    1    2    0    0 -0.10307994318E+03 -0.60902278071E+02 -0.33366726199E+03  0.36349220245E+03  0.80362785927E+02 0.  0.
         25    2    1    2    0    0  0.15263987559E+03  0.45876555372E+02 -0.21105483537E+03  0.29256737900E+03  0.12509171741E+03 0.  0.
         24    2    1    2    0    0 -0.49559932412E+02  0.15025722699E+02  0.44035905948E+02  0.10606010095E+03  0.81410225139E+02 0.  0.
        -11    1    5    5    0    0 -0.86769091235E+01  0.31150963928E+02 -0.12310868323E+02  0.34600993981E+02  0.00000000000E+00 0.  1.
         12    1    5    5    0    0 -0.40883023288E+02 -0.16125241229E+02  0.56346774271E+02  0.71459106968E+02  0.00000000000E+00 0. -1.
         11    1    3    3    0    0 -0.14955131006E+02 -0.51335846914E+02 -0.96866466692E+02  0.11064419321E+03  0.00000000000E+00 0. -1.
        -12    1    3    3    0    0 -0.88124812171E+02 -0.95664311576E+01 -0.23680079529E+03  0.25284800924E+03  0.00000000000E+00 0.  1.
          5    1    4    4  501    0  0.15281412675E+03  0.23678097963E+02 -0.11203331301E+03  0.19100195099E+03  0.41800000000E+01 0. -1.
         -5    1    4    4    0  501 -0.17425116308E+00  0.22198457409E+02 -0.99021522363E+02  0.10156542801E+03  0.41800000000E+01 0. -1.
</event>
<event>
11    1  0.6625361E-009  0.1364767E+03  0.7561462E-02  0.1111558E+00
         22   -1    0    0    0    0  0.00000000000E+00  0.00000000000E+00  0.38284903829E+03  0.38284903829E+03  0.00000000000E+00 0.  1.
         22   -1    0    0    0    0 -0.00000000000E+00 -0.00000000000E+00 -0.46379654537E+03  0.46379654537E+03  0.00000000000E+00 0. -1.
         24    2    1    2    0    0  0.43381246634E+02 -0.26687640219E+02 -0.34838490867E+03  0.36121157208E+03  0.80669650496E+02 0.  0.
         25    2    1    2    0    0 -0.91770966034E+02  0.18089933514E+02 -0.42091229771E+02  0.16176503168E+03  0.12508836057E+03 0.  0.
        -24    2    1    2    0    0  0.48389719400E+02  0.85977067054E+01  0.30952863137E+03  0.32366897989E+03  0.80858823915E+02 0.  0.
        -11    1    3    3    0    0  0.15045000628E+02 -0.27487795929E+02 -0.36775027451E+02  0.48314941922E+02  0.00000000000E+00 0.  1.
         12    1    3    3    0    0  0.28336246006E+02  0.80015570934E+00 -0.31160988122E+03  0.31289663016E+03  0.00000000000E+00 0. -1.
         13    1    5    5    0    0  0.34517573788E+02  0.25967324652E+02  0.64459581443E+02  0.77593830229E+02  0.00000000000E+00 0. -1.
        -14    1    5    5    0    0  0.13872145612E+02 -0.17369617947E+02  0.24506904993E+03  0.24607514967E+03  0.00000000000E+00 0.  1.
          5    1    4    4  501    0 -0.86917381569E+02  0.50403842938E+02 -0.66677724327E+02  0.12065889906E+03  0.41800000000E+01 0. -1.
         -5    1    4    4    0  501 -0.48535844646E+01 -0.32313909424E+02  0.24586494556E+02  0.41106132620E+02  0.41800000000E+01 0. -1.
</event>
<event>
11    1  0.6625361E-009  0.1624066E+03  0.7561462E-02  0.1084835E+00
         22   -1    0    0    0    0  0.00000000000E+00  0.00000000000E+00  0.20863832665E+04  0.20863832665E+04  0.00000000000E+00 0.  1.
         22   -1    0    0    0    0 -0.00000000000E+00 -0.00000000000E+00 -0.52674588170E+03  0.52674588170E+03  0.00000000000E+00 0.  1.
        -24    2    1    2    0    0  0.97556324455E+02 -0.40089149751E+02 -0.50449015776E+03  0.52182284420E+03  0.81635685136E+02 0.  0.
         25    2    1    2    0    0 -0.10593018809E+02  0.35669718460E+02  0.35681233726E+03  0.37992795860E+03  0.12508264805E+03 0.  0.
         24    2    1    2    0    0 -0.86963305646E+02  0.44194312910E+01  0.17073152053E+04  0.17113783454E+04  0.79425959146E+02 0.  0.
        -13    1    5    5    0    0 -0.34032415924E+02  0.11659618939E+02  0.13092539766E+04  0.13097481160E+04  0.00000000000E+00 0.  1.
         14    1    5    5    0    0 -0.52930889722E+02 -0.72401876478E+01  0.39806122861E+03  0.40163022935E+03  0.00000000000E+00 0. -1.
         11    1    3    3    0    0  0.13569933714E+02 -0.28887002970E+02 -0.48714956060E+02  0.58238724107E+02  0.00000000000E+00 0. -1.
        -12    1    3    3    0    0  0.83986390741E+02 -0.11202146781E+02 -0.45577520170E+03  0.46358412009E+03  0.00000000000E+00 0.  1.
          5    1    4    4  501    0  0.55676273227E+02  0.25834535930E+01  0.13840489029E+03  0.14926455604E+03  0.41800000000E+01 0. -1.
         -5    1    4    4    0  501 -0.66269292036E+02  0.33086264867E+02  0.21840744697E+03  0.23066340256E+03  0.41800000000E+01 0. -1.
</event>
<event>
11    1  0.6625361E-009  0.1436621E+03  0.7561462E-02  0.1103537E+00
         22   -1    0    0    0    0  0.00000000000E+00  0.00000000000E+00  0.34524654013E+03  0.34524654013E+03  0.00000000000E+00 0.  1.
         22   -1    0    0    0    0 -0.00000000000E+00 -0.00000000000E+00 -0.19711508326E+03  0.19711508326E+03  0.00000000000E+00 0.  1.
        -24    2    1    2    0    0 -0.59425578323E+02 -0.28269504247E+02 -0.11550828339E+03  0.15398502287E+03  0.77708812280E+02 0.  0.
         25    2    1    2    0    0  0.11036884762E+03 -0.45295756930E+01  0.10206401932E+03  0.19561689949E+03  0.12508839972E+03 0.  0.
         24    2    1    2    0    0 -0.50943269297E+02  0.32799079941E+02  0.16157572095E+03  0.19275970103E+03  0.85898733461E+02 0.  0.
        -11    1    5    5    0    0 -0.29587830457E+02 -0.53371573749E+01  0.14150431082E+03  0.14466303931E+03  0.00000000000E+00 0.  1.
         12    1    5    5    0    0 -0.21355438840E+02  0.38136237315E+02  0.20071410124E+02  0.48096661724E+02  0.00000000000E+00 0. -1.
         13    1    3    3    0    0 -0.97836772965E+01 -0.40976809089E+02 -0.83613634887E+02  0.93627235159E+02  0.00000000000E+00 0. -1.
        -14    1    3    3    0    0 -0.49641901026E+02  0.12707304842E+02 -0.31894648507E+02  0.60357787710E+02  0.00000000000E+00 0.  1.
          5    1    4    4  501    0  0.13735783078E+03 -0.13270066840E+02  0.81385734519E+02  0.16026346599E+03  0.41800000000E+01 0.  1.
         -5    1    4    4    0  501 -0.26988983157E+02  0.87404911475E+01  0.20678284802E+02  0.35353433492E+02  0.41800000000E+01 0.  1.
</event>
<event>
11    1  0.6625361E-009  0.1299985E+03  0.7561462E-02  0.1119271E+00
         22   -1    0    0    0    0  0.00000000000E+00  0.00000000000E+00  0.19835351190E+03  0.19835351190E+03  0.00000000000E+00 0.  1.
         22   -1    0    0    0    0 -0.00000000000E+00 -0.00000000000E+00 -0.12539489404E+04  0.12539489404E+04  0.00000000000E+00 0.  1.
         24    2    1    2    0    0  0.20370219798E+02 -0.17722287468E+02 -0.86753926789E+03  0.87505107483E+03  0.11117993030E+03 0.  0.
         25    2    1    2    0    0 -0.65397016959E+02  0.22495332374E+02 -0.35718759307E+03  0.38472428578E+03  0.12508792757E+03 0.  0.
        -24    2    1    2    0    0  0.45026797162E+02 -0.47730449056E+01  0.16913143242E+03  0.19252709172E+03  0.80069002697E+02 0.  0.
        -13    1    3    3    0    0  0.16191827490E+01  0.33392856340E+02 -0.64797751739E+03  0.64883940051E+03  0.00000000000E+00 0.  1.
         14    1    3    3    0    0  0.18751037049E+02 -0.51115143808E+02 -0.21956175050E+03  0.22621167432E+03  0.00000000000E+00 0. -1.
         11    1    5    5    0    0  0.26804996184E+01 -0.32863632444E+02  0.30656352197E+02  0.45022387161E+02  0.00000000000E+00 0. -1.
        -12    1    5    5    0    0  0.42346297543E+02  0.28090587539E+02  0.13847508022E+03  0.14750470456E+03  0.00000000000E+00 0.  1.
          5    1    4    4  501    0 -0.39995202445E+02  0.83377291356E+01 -0.35260599570E+03  0.35498956963E+03  0.41800000000E+01 0.  1.
         -5    1    4    4    0  501 -0.25401814514E+02  0.14157603238E+02 -0.45815973693E+01  0.29734716150E+02  0.41800000000E+01 0.  1.
</event>
<event>
11    1  0.6625361E-009  0.1504305E+03  0.7561462E-02  0.1096440E+00
         22   -1    0    0    0    0  0.00000000000E+00  0.00000000000E+00  0.50977627162E+03  0.50977627162E+03  0.00000000000E+00 0. -1.
         22   -1    0    0    0    0 -0.00000000000E+00 -0.00000000000E+00 -0.22862236457E+04  0.22862236457E+04  0.00000000000E+00 0.  1.
         24    2    1    2    0    0  0.18451335811E+02 -0.82275403539E+02 -0.22191641780E+04  0.22221886606E+04  0.79517926844E+02 0.  0.
         25    2    1    2    0    0  0.17517303438E+02  0.49546940125E+02  0.16376194021E+02  0.13667033261E+03  0.12509534319E+03 0.  0.
        -24    2    1    2    0    0 -0.35968639250E+02  0.32728463414E+02  0.42634060984E+03  0.43714092415E+03  0.83432467574E+02 0.  0.
        -11    1    3    3    0    0 -0.25350070655E+02 -0.62907093181E+02 -0.13618392016E+04  0.13635270220E+04  0.00000000000E+00 0.  1.
         12    1    3    3    0    0  0.43801406466E+02 -0.19368310358E+02 -0.85732497631E+03  0.85866163863E+03  0.00000000000E+00 0. -1.
         13    1    5    5    0    0 -0.49660063936E+02  0.22574664939E+00  0.13823483929E+03  0.14688445699E+03  0.00000000000E+00 0. -1.
        -14    1    5    5    0    0  0.13691424686E+02  0.32502716765E+02  0.28810577055E+03  0.29025646716E+03  0.00000000000E+00 0.  1.
          5    1    4    4  501    0  0.13043687998E+02 -0.33050582218E+02  0.36842652720E+02  0.51354963158E+02  0.41800000000E+01 0. -1.
         -5    1    4    4    0  501  0.44736154408E+01  0.82597522343E+02 -0.20466458699E+02  0.85315369447E+02  0.41800000000E+01 0. -1.
</event>
<event>
11    1  0.6625361E-009  0.1433401E+03  0.7561462E-02  0.1103885E+00
         22   -1    0    0    0    0  0.00000000000E+00  0.00000000000E+00  0.28628110106E+02  0.28628110106E+02  0.00000000000E+00 0. -1.
         22   -1    0    0    0    0 -0.00000000000E+00 -0.00000000000E+00 -0.26285065466E+04  0.26285065466E+04  0.00000000000E+00 0. -1.
         24    2    1    2    0    0  0.65212298122E+02  0.10643160257E+02 -0.19117123215E+04  0.19145427025E+04  0.80398003620E+02 0.  0.
         25    2    1    2    0    0 -0.99362648464E+02 -0.86577652351E+01 -0.58906670913E+03  0.61040580176E+03  0.12509101568E+03 0.  0.
        -24    2    1    2    0    0  0.34150350342E+02 -0.19853950220E+01 -0.99099405908E+02  0.13218615245E+03  0.80512722144E+02 0.  0.
        -11    1    3    3    0    0  0.30631107917E+02  0.39007791836E+02 -0.59243241968E+03  0.59450487339E+03  0.00000000000E+00 0.  1.
         12    1    3    3    0    0  0.34581190205E+02 -0.28364631579E+02 -0.13192799018E+04  0.13200378292E+04  0.00000000000E+00 0. -1.
         11    1    5    5    0    0  0.54474669435E+02 -0.21980002606E+02 -0.71082970377E+02  0.92213875323E+02  0.00000000000E+00 0. -1.
        -12    1    5    5    0    0 -0.20324319093E+02  0.19994607584E+02 -0.28016435532E+02  0.39972277130E+02  0.00000000000E+00 0.  1.
          5    1    4    4  501    0 -0.52056352335E+02  0.54354140004E+02 -0.20751377457E+03  0.22077969878E+03  0.41800000000E+01 0. -1.
         -5    1    4    4    0  501 -0.47306296129E+02 -0.63011905240E+02 -0.38155293455E+03  0.38962610298E+03  0.41800000000E+01 0. -1.
</event>
<event>
11    1  0.6625361E-009  0.1303050E+03  0.7561462E-02  0.1118895E+00
         22   -1    0    0    0    0  0.00000000000E+00  0.00000000000E+00  0.56098979488E+03  0.56098979488E+03  0.00000000000E+00 0.  1.
         22   -1    0    0    0    0 -0.00000000000E+00 -0.00000000000E+00 -0.41334034192E+03  0.41334034192E+03  0.00000000000E+00 0.  1.
        -24    2    1    2    0    0  0.38367244176E+02 -0.11000969067E+02 -0.38442720953E+03  0.39460917070E+03  0.79618160184E+02 0.  0.
         25    2    1    2    0    0 -0.12584873721E+01 -0.16708368554E+02  0.21098082635E+03  0.24584710365E+03  0.12508851233E+03 0.  0.
         24    2    1    2    0    0 -0.37108756804E+02  0.27709337622E+02  0.32109583614E+03  0.33387386244E+03  0.78894567698E+02 0.  0.
        -13    1    5    5    0    0 -0.18999226719E+02  0.15886976815E+02  0.30713584625E+03  0.30813275499E+03  0.00000000000E+00 0.  1.
         14    1    5    5    0    0 -0.18109530085E+02  0.11822360807E+02  0.13959989891E+02  0.25741107449E+02  0.00000000000E+00 0. -1.
         11    1    3    3    0    0 -0.24260675707E+02  0.26204152880E+01 -0.87175238806E+02  0.90526069300E+02  0.00000000000E+00 0. -1.
        -12    1    3    3    0    0  0.62627919883E+02 -0.13621384355E+02 -0.29725197072E+03  0.30408310140E+03  0.00000000000E+00 0.  1.
          5    1    4    4  501    0 -0.52395983881E+02  0.26708286946E+02  0.10145685735E+03  0.11734410093E+03  0.41800000000E+01 0.  1.
         -5    1    4    4    0  501  0.51137496509E+02 -0.43416655500E+02  0.10952396900E+03  0.12850300273E+03  0.41800000000E+01 0.  1.
</event>
<event>
11    1  0.6625361E-009  0.1262423E+03  0.7561462E-02  0.1123974E+00
         22   -1    0    0    0    0  0.00000000000E+00  0.00000000000E+00  0.11256888436E+03  0.11256888436E+03  0.00000000000E+00 0. -1.
         22   -1    0    0    0    0 -0.00000000000E+00 -0.00000000000E+00 -0.58700002882E+03  0.58700002882E+03  0.00000000000E+00 0.  1.
         24    2    1    2    0    0 -0.17526017209E+02  0.89996336360E+00 -0.47354156653E+03  0.48236902743E+03  0.90168132849E+02 0.  0.
         25    2    1    2    0    0  0.92942357214E+01  0.33493004747E+02 -0.10453083438E+02  0.13024875259E+03  0.12508919383E+03 0.  0.
        -24    2    1    2    0    0  0.82317814879E+01 -0.34392968110E+02  0.95635055017E+01  0.86951133158E+02  0.78856835075E+02 0.  0.
        -13    1    3    3    0    0 -0.21613751188E+02  0.17211174326E+02 -0.45986387533E+03  0.46069313279E+03  0.00000000000E+00 0.  1.
         14    1    3    3    0    0  0.40877339783E+01 -0.16311210962E+02 -0.13677691196E+02  0.21675894643E+02  0.00000000000E+00 0. -1.
         13    1    5    5    0    0 -0.13851887988E+02 -0.40627895835E+02 -0.21757522353E+02  0.48123699980E+02  0.00000000000E+00 0. -1.
        -14    1    5    5    0    0  0.22083669476E+02  0.62349277251E+01  0.31321027855E+02  0.38827433177E+02  0.00000000000E+00 0.  1.
          5    1    4    4  501    0 -0.27110174221E+01  0.57271758097E+02  0.42050785407E+02  0.71226012413E+02  0.41800000000E+01 0.  1.
         -5    1    4    4    0  501  0.12005253144E+02 -0.23778753350E+02 -0.52503868845E+02  0.59022740174E+02  0.41800000000E+01 0.  1.
</event>
<event>
11    1  0.6625361E-009  0.1681384E+03  0.7561462E-02  0.1079663E+00
         22   -1    0    0    0    0  0.00000000000E+00  0.00000000000E+00  0.39987551414E+03  0.39987551414E+03  0.00000000000E+00 0.  1.
         22   -1    0    0    0    0 -0.00000000000E+00 -0.00000000000E+00 -0.10390217268E+04  0.10390217268E+04  0.00000000000E+00 0.  1.
         24    2    1    2    0    0  0.34688382704E+02 -0.21385420018E+02 -0.94212522044E+03  0.94694269402E+03  0.86254940023E+02 0.  0.
         25    2    1    2    0    0 -0.74307598441E+01  0.12816921859E+03  0.22286369780E+02  0.18062821983E+03  0.12508919511E+03 0.  0.
        -24    2    1    2    0    0 -0.27257622860E+02 -0.10678379857E+03  0.28069263804E+03  0.31132632706E+03  0.77394878541E+02 0.  0.
        -13    1    3    3    0    0  0.30372719342E+02 -0.52181538190E+02 -0.73758741375E+03  0.74005446281E+03  0.00000000000E+00 0.  1.
         14    1    3    3    0    0  0.43156633620E+01  0.30796118172E+02 -0.20453780669E+03  0.20688823121E+03  0.00000000000E+00 0. -1.
         11    1    5    5    0    0 -0.10788162305E+02 -0.31238053543E+01  0.11257622491E+03  0.11313509191E+03  0.00000000000E+00 0. -1.
        -12    1    5    5    0    0 -0.16469460556E+02 -0.10365999322E+03  0.16811641314E+03  0.19819123515E+03  0.00000000000E+00 0.  1.
          5    1    4    4  501    0  0.46429209318E+02  0.86363245958E+02  0.45911082123E+02  0.10834934975E+03  0.41800000000E+01 0. -1.
         -5    1    4    4    0  501 -0.53859969162E+02  0.41805972631E+02 -0.23624712342E+02  0.72278870073E+02  0.41800000000E+01 0. -1.
</event>
<event>
11    1  0.6625361E-009  0.1327006E+03  0.7561462E-02  0.1115995E+00
         22   -1    0    0    0    0  0.00000000000E+00  0.00000000000E+00  0.24602265333E+04  0.24602265333E+04  0.00000000000E+00 0.  1.
         22   -1    0    0    0    0 -0.00000000000E+00 -0.00000000000E+00 -0.12023031445E+03  0.12023031445E+03  0.00000000000E+00 0. -1.
         24    2    1    2    0    0  0.23998358947E+02  0.37369219685E+02 -0.96907836367E+02  0.13243735100E+03  0.78588443028E+02 0.  0.
         25    2    1    2    0    0  0.10459092417E+02 -0.51165413174E+02  0.11422120574E+04  0.11502269057E+04  0.12508500479E+03 0.  0.
        -24    2    1    2    0    0 -0.34457451363E+02  0.13796193489E+02  0.12946919978E+04  0.12977925911E+04  0.81612433244E+02 0.  0.
        -11    1    3    3    0    0 -0.80611563405E+01 -0.12549392859E+02  0.39455442771E+01  0.15428441993E+02  0.00000000000E+00 0.  1.
         12    1    3    3    0    0  0.32059515287E+02  0.49918612544E+02 -0.10085338064E+03  0.11700890900E+03  0.00000000000E+00 0. -1.
         13    1    5    5    0    0  0.28211119932E+01  0.34114137516E+02  0.26179342390E+03  0.26402183593E+03  0.00000000000E+00 0. -1.
        -14    1    5    5    0    0 -0.37278563356E+02 -0.20317944028E+02  0.10328985740E+04  0.10337707552E+04  0.00000000000E+00 0.  1.
          5    1    4    4  501    0  0.63579061156E+02 -0.12905018455E+02  0.41485476096E+03  0.41991758907E+03  0.41800000000E+01 0. -1.
         -5    1    4    4    0  501 -0.53119968740E+02 -0.38260394719E+02  0.72735729641E+03  0.73030931661E+03  0.41800000000E+01 0. -1.
</event>
<event>
11    1  0.6625361E-009  0.1498780E+03  0.7561462E-02  0.1097003E+00
         22   -1    0    0    0    0  0.00000000000E+00  0.00000000000E+00  0.11134737108E+04  0.11134737108E+04  0.00000000000E+00 0. -1.
         22   -1    0    0    0    0 -0.00000000000E+00 -0.00000000000E+00 -0.33661826311E+03  0.33661826311E+03  0.00000000000E+00 0.  1.
         24    2    1    2    0    0  0.23826420809E+02 -0.64935311908E+02 -0.21809246692E+03  0.24222957401E+03  0.79539608601E+02 0.  0.
         25    2    1    2    0    0  0.58765813007E+02  0.73551855351E+02 -0.43893117363E+02  0.16259836135E+03  0.12509326584E+03 0.  0.
        -24    2    1    2    0    0 -0.82592233816E+02 -0.86165434428E+01  0.10388410319E+04  0.10452640385E+04  0.80563631205E+02 0.  0.
        -13    1    3    3    0    0  0.28332825180E+02 -0.35757366762E+01 -0.13963651153E+03  0.14252680530E+03  0.00000000000E+00 0.  1.
         14    1    3    3    0    0 -0.45064043705E+01 -0.61359575232E+02 -0.78455955386E+02  0.99702768710E+02  0.00000000000E+00 0. -1.
         13    1    5    5    0    0 -0.96373507998E+02 -0.15617264379E+02  0.95772220413E+03  0.96268560406E+03  0.00000000000E+00 0. -1.
        -14    1    5    5    0    0  0.13781274182E+02  0.70007209362E+01  0.81118827808E+02  0.82578434452E+02  0.00000000000E+00 0.  1.
          5    1    4    4  501    0  0.83879107031E+02  0.89260243405E+02 -0.19714375908E+02  0.12413389814E+03  0.41800000000E+01 0.  1.
         -5    1    4    4    0  501 -0.25113294025E+02 -0.15708388054E+02 -0.24178741455E+02  0.38464463214E+02  0.41800000000E+01 0.  1.
</event>
<event>
11    1  0.6625361E-009  0.1660867E+03  0.7561462E-02  0.1081488E+00
         22   -1    0    0    0    0  0.00000000000E+00  0.00000000000E+00  0.40343641536E+03  0.40343641536E+03  0.00000000000E+00 0. -1.
         22   -1    0    0    0    0 -0.00000000000E+00 -0.00000000000E+00 -0.24663785911E+03  0.24663785911E+03  0.00000000000E+00 0.  1.
        -24    2    1    2    0    0 -0.24871204522E+01 -0.77928821768E+02 -0.12146048017E+02  0.11276486881E+03  0.80556204755E+02 0.  0.
         25    2    1    2    0    0  0.23029054487E+02  0.13948732168E+03 -0.12396214715E+03  0.22583455644E+03  0.12509029817E+03 0.  0.
         24    2    1    2    0    0 -0.20541934035E+02 -0.61558499914E+02  0.29290675141E+03  0.31147484922E+03  0.83730500475E+02 0.  0.
        -11    1    5    5    0    0 -0.42775236270E+02 -0.48532304421E+02  0.11702910439E+03  0.13371954488E+03  0.00000000000E+00 0.  1.
         12    1    5    5    0    0  0.22233302235E+02 -0.13026195493E+02  0.17587764703E+03  0.17775530434E+03  0.00000000000E+00 0. -1.
         13    1    3    3    0    0  0.19980155207E+02  0.30127356713E+01  0.14236264321E+02  0.24717491785E+02  0.00000000000E+00 0. -1.
        -14    1    3    3    0    0 -0.22467275659E+02 -0.80941557439E+02 -0.26382312339E+02  0.88047377023E+02  0.00000000000E+00 0.  1.
          5    1    4    4  501    0 -0.20879484995E+02  0.31004872176E+02 -0.99265389936E+02  0.10615246126E+03  0.41800000000E+01 0.  1.
         -5    1    4    4    0  501  0.43908539481E+02  0.10848244951E+03 -0.24696757215E+02  0.11968209518E+03  0.41800000000E+01 0.  1.
</event>
<event>
11    1  0.6625361E-009  0.3125245E+03  0.7561462E-02  0.9950256E-01
         22   -1    0    0    0    0  0.00000000000E+00  0.00000000000E+00  0.15396868961E+03  0.15396868961E+03  0.00000000000E+00 0. -1.
         22   -1    0    0    0    0 -0.00000000000E+00 -0.00000000000E+00 -0.44525631099E+03  0.44525631099E+03  0.00000000000E+00 0. -1.
        -24    2    1    2    0    0 -0.28242109104E+02 -0.14822348746E+03 -0.16294065524E+03  0.23598927879E+03  0.79833975309E+02 0.  0.
         25    2    1    2    0    0 -0.32995025574E+02 -0.28728889239E+02 -0.47468213292E+02  0.14076452243E+03  0.12508956277E+03 0.  0.
         24    2    1    2    0    0  0.61237134678E+02  0.17695237670E+03 -0.80878752847E+02  0.22247119937E+03  0.88825286952E+02 0.  0.
        -13    1    5    5    0    0  0.25136380555E+02  0.15945293575E+03 -0.42434790225E+02  0.16690652404E+03  0.00000000000E+00 0.  1.
         14    1    5    5    0    0  0.36100754124E+02  0.17499440951E+02 -0.38443962621E+02  0.55564675324E+02  0.00000000000E+00 0. -1.
         11    1    3    3    0    0 -0.48921812705E+02 -0.13938351054E+03 -0.14718586329E+03  0.20853005808E+03  0.00000000000E+00 0. -1.
        -12    1    3    3    0    0  0.20679703600E+02 -0.88399769168E+01 -0.15754791951E+02  0.27459220715E+02  0.00000000000E+00 0.  1.
          5    1    4    4  501    0 -0.48538606173E+02 -0.70557156941E+02 -0.19488360863E+02  0.87929388113E+02  0.41800000000E+01 0.  1.
         -5    1    4    4    0  501  0.15543580600E+02  0.41828267702E+02 -0.27979852428E+02  0.52835134321E+02  0.41800000000E+01 0.  1.
</event>
<event>
11    1  0.6625361E-009  0.1479960E+03  0.7561462E-02  0.1098944E+00
         22   -1    0    0    0    0  0.00000000000E+00  0.00000000000E+00  0.16843207280E+04  0.16843207280E+04  0.00000000000E+00 0. -1.
         22   -1    0    0    0    0 -0.00000000000E+00 -0.00000000000E+00 -0.15674154091E+04  0.15674154091E+04  0.00000000000E+00 0.  1.
         24    2    1    2    0    0  0.55082560184E+02 -0.56753744544E+02 -0.15011558969E+04  0.15056451693E+04  0.85107419898E+02 0.  0.
         25    2    1    2    0    0 -0.11225321397E+03  0.76336400843E+00  0.52012012891E+02  0.17593486000E+03  0.12508580538E+03 0.  0.
        -24    2    1    2    0    0  0.57170653783E+02  0.55990380535E+02  0.15660492029E+04  0.15701561078E+04  0.80477887552E+02 0.  0.
        -11    1    3    3    0    0  0.67909694406E+02 -0.48637246704E+02 -0.80467216035E+03  0.80899604078E+03  0.00000000000E+00 0.  1.
         12    1    3    3    0    0 -0.12827134222E+02 -0.81164978403E+01 -0.69648373656E+03  0.69664912847E+03  0.00000000000E+00 0. -1.
         11    1    5    5    0    0  0.46822823458E+02  0.41730035637E+01  0.11203126409E+04  0.11212984456E+04  0.00000000000E+00 0. -1.
        -12    1    5    5    0    0  0.10347830324E+02  0.51817376972E+02  0.44573656201E+03  0.44885766213E+03  0.00000000000E+00 0.  1.
          5    1    4    4  501    0 -0.71172721209E+02 -0.50409949860E+02  0.65069401139E+02  0.10889544827E+03  0.41800000000E+01 0. -1.
         -5    1    4    4    0  501 -0.41080492758E+02  0.51173313869E+02 -0.13057388248E+02  0.67039411732E+02  0.41800000000E+01 0. -1.
</event>
<event>
11    1  0.6625361E-009  0.1540404E+03  0.7561462E-02  0.1092820E+00
         22   -1    0    0    0    0  0.00000000000E+00  0.00000000000E+00  0.15505643316E+03  0.15505643316E+03  0.00000000000E+00 0. -1.
         22   -1    0    0    0    0 -0.00000000000E+00 -0.00000000000E+00 -0.11666518868E+04  0.11666518868E+04  0.00000000000E+00 0.  1.
         24    2    1    2    0    0 -0.59202923964E+02  0.26333585200E+02 -0.97824212404E+03  0.98285165015E+03  0.69579228547E+02 0.  0.
         25    2    1    2    0    0  0.13578894224E+03 -0.43105825129E+02 -0.93563261944E+02  0.21141941856E+03  0.12508931834E+03 0.  0.
        -24    2    1    2    0    0 -0.76586018278E+02  0.16772239928E+02  0.60209932300E+02  0.12743725128E+03  0.80425685196E+02 0.  0.
        -13    1    3    3    0    0 -0.26673345559E+02  0.18566413336E+02 -0.83974879372E+03  0.84037742451E+03  0.00000000000E+00 0.  1.
         14    1    3    3    0    0 -0.32529578405E+02  0.77671718640E+01 -0.13849333032E+03  0.14247422565E+03  0.00000000000E+00 0. -1.
         11    1    5    5    0    0 -0.74835080993E+02  0.37716482011E+02  0.64789416224E+02  0.10592681821E+03  0.00000000000E+00 0. -1.
        -12    1    5    5    0    0 -0.17509372854E+01 -0.20944242083E+02 -0.45794839241E+01  0.21510433069E+02  0.00000000000E+00 0.  1.
          5    1    4    4  501    0  0.12901241220E+02  0.39252491346E+02 -0.22857850156E+02  0.47404153991E+02  0.41800000000E+01 0. -1.
         -5    1    4    4    0  501  0.12288770102E+03 -0.82358316475E+02 -0.70705411788E+02  0.16401526457E+03  0.41800000000E+01 0. -1.
</event>
<event>
11    1  0.6625361E-009  0.1377848E+03  0.7561462E-02  0.1110058E+00
         22   -1    0    0    0    0  0.00000000000E+00  0.00000000000E+00  0.23755372126E+03  0.23755372126E+03  0.00000000000E+00 0. -1.
         22   -1    0    0    0    0 -0.00000000000E+00 -0.00000000000E+00 -0.41396412074E+03  0.41396412074E+03  0.00000000000E+00 0.  1.
         24    2    1    2    0    0  0.46233673253E+01  0.15601646248E+01 -0.26471152821E+03  0.27673464516E+03  0.80536085235E+02 0.  0.
         25    2    1    2    0    0  0.15907667824E+02 -0.55574388189E+02 -0.94653182551E+02  0.16717665100E+03  0.12508893298E+03 0.  0.
        -24    2    1    2    0    0 -0.20531035149E+02  0.54014223564E+02  0.18295431128E+03  0.20760654584E+03  0.79304086327E+02 0.  0.
        -13    1    3    3    0    0  0.19366556834E+02 -0.19241178980E+02 -0.23889691260E+03  0.24045170272E+03  0.00000000000E+00 0.  1.
         14    1    3    3    0    0 -0.14743189509E+02  0.20801343605E+02 -0.25814615604E+02  0.36282942431E+02  0.00000000000E+00 0. -1.
         13    1    5    5    0    0 -0.45878959074E+02  0.99185489974E+01  0.96234009052E+02  0.10707119593E+03  0.00000000000E+00 0. -1.
        -14    1    5    5    0    0  0.25347923925E+02  0.44095674567E+02  0.86720302232E+02  0.10053534991E+03  0.00000000000E+00 0.  1.
          5    1    4    4  501    0 -0.52536687862E+02 -0.22401956756E+02 -0.20376766474E+02  0.60783519559E+02  0.41800000000E+01 0. -1.
         -5    1    4    4    0  501  0.68444355686E+02 -0.33172431433E+02 -0.74276416077E+02  0.10639313144E+03  0.41800000000E+01 0. -1.
</event>
<event>
11    1  0.6625361E-009  0.1322629E+03  0.7561462E-02  0.1116519E+00
         22   -1    0    0    0    0  0.00000000000E+00  0.00000000000E+00  0.36540607465E+03  0.36540607465E+03  0.00000000000E+00 0. -1.
         22   -1    0    0    0    0 -0.00000000000E+00 -0.00000000000E+00 -0.25032533065E+03  0.25032533065E+03  0.00000000000E+00 0.  1.
         24    2    1    2    0    0  0.25860680210E+02 -0.12802508663E+02 -0.20272814200E+03  0.22048457218E+03  0.81743917216E+02 0.  0.
         25    2    1    2    0    0 -0.46135419339E+02 -0.23766460887E+02  0.13695881717E+03  0.19261014539E+03  0.12509048294E+03 0.  0.
        -24    2    1    2    0    0  0.20274739128E+02  0.36568969550E+02  0.18085006882E+03  0.20263668773E+03  0.81280534205E+02 0.  0.
        -13    1    3    3    0    0  0.23364761394E+01 -0.78426007876E+00 -0.19193095388E+03  0.19194677711E+03  0.00000000000E+00 0.  1.
         14    1    3    3    0    0  0.23524204071E+02 -0.12018248585E+02 -0.10797188117E+02  0.28537795070E+02  0.00000000000E+00 0. -1.
         11    1    5    5    0    0  0.44073535104E+02  0.42315572044E+02  0.15694629291E+03  0.16841978207E+03  0.00000000000E+00 0. -1.
        -12    1    5    5    0    0 -0.23798795976E+02 -0.57466024936E+01  0.23903775910E+02  0.34216905659E+02  0.00000000000E+00 0.  1.
          5    1    4    4  501    0 -0.89546274175E+02 -0.17712137933E+02  0.90788285830E+02  0.12881087024E+03  0.41800000000E+01 0. -1.
         -5    1    4    4    0  501  0.43410854837E+02 -0.60543229539E+01  0.46170531345E+02  0.63799275143E+02  0.41800000000E+01 0. -1.
</event>
<event>
11    1  0.6625361E-009  0.1432589E+03  0.7561462E-02  0.1103973E+00
         22   -1    0    0    0    0  0.00000000000E+00  0.00000000000E+00  0.12138900396E+03  0.12138900396E+03  0.00000000000E+00 0. -1.
         22   -1    0    0    0    0 -0.00000000000E+00 -0.00000000000E+00 -0.95807385806E+03  0.95807385806E+03  0.00000000000E+00 0. -1.
         24    2    1    2    0    0 -0.53696239585E+02 -0.53896069981E+02 -0.76869133617E+03  0.77703507368E+03  0.84315259101E+02 0.  0.
         25    2    1    2    0    0  0.65317595261E+01  0.34382071872E+02 -0.12924348665E+03  0.18323897304E+03  0.12509137320E+03 0.  0.
        -24    2    1    2    0    0  0.47164480059E+02  0.19513998109E+02  0.61249968721E+02  0.11918881532E+03  0.88595320008E+02 0.  0.
        -11    1    3    3    0    0 -0.28801614335E+01  0.19081936620E+02 -0.25278830178E+03  0.25352384730E+03  0.00000000000E+00 0.  1.
         12    1    3    3    0    0 -0.50816078152E+02 -0.72978006602E+02 -0.51590303439E+03  0.52351122637E+03  0.00000000000E+00 0. -1.
         11    1    5    5    0    0  0.72774665864E+02  0.22830340410E+02  0.42895818780E+02  0.87506729477E+02  0.00000000000E+00 0. -1.
        -12    1    5    5    0    0 -0.25610185805E+02 -0.33163423007E+01  0.18354149941E+02  0.31682085842E+02  0.00000000000E+00 0.  1.
          5    1    4    4  501    0 -0.57200197965E+02  0.32578353992E+02 -0.67941069723E+02  0.94692518982E+02  0.41800000000E+01 0.  1.
         -5    1    4    4    0  501  0.63731957491E+02  0.18037178801E+01 -0.61302416930E+02  0.88546454053E+02  0.41800000000E+01 0.  1.
</event>
<event>
11    1  0.6625361E-009  0.1552252E+03  0.7561462E-02  0.1091656E+00
         22   -1    0    0    0    0  0.00000000000E+00  0.00000000000E+00  0.12437004249E+04  0.12437004249E+04  0.00000000000E+00 0.  1.
         22   -1    0    0    0    0 -0.00000000000E+00 -0.00000000000E+00 -0.40445273824E+03  0.40445273824E+03  0.00000000000E+00 0.  1.
        -24    2    1    2    0    0 -0.49031586173E+02 -0.77125391452E+02 -0.37577195745E+03  0.39505028183E+03  0.80670556661E+02 0.  0.
         25    2    1    2    0    0  0.56393409906E+02  0.10037434375E+03  0.41340968428E+03  0.44700171362E+03  0.12509092434E+03 0.  0.
         24    2    1    2    0    0 -0.73618237333E+01 -0.23248952294E+02  0.80160995986E+03  0.80610116773E+03  0.81399352746E+02 0.  0.
        -13    1    5    5    0    0  0.17376737794E+01 -0.21343710920E+02  0.79342729505E+03  0.79371622513E+03  0.00000000000E+00 0.  1.
         14    1    5    5    0    0 -0.90994975127E+01 -0.19052413739E+01  0.81826648155E+01  0.12384942598E+02  0.00000000000E+00 0. -1.
         13    1    3    3    0    0  0.19307513330E+01 -0.10743866969E+01 -0.16787350386E+03  0.16788804426E+03  0.00000000000E+00 0. -1.
        -14    1    3    3    0    0 -0.50962337506E+02 -0.76051004755E+02 -0.20789845359E+03  0.22716223756E+03  0.00000000000E+00 0.  1.
          5    1    4    4  501    0 -0.20834708252E+02  0.48415819211E+02  0.53468294827E+02  0.75196459820E+02  0.41800000000E+01 0. -1.
         -5    1    4    4    0  501  0.77228118158E+02  0.51958524535E+02  0.35994138946E+03  0.37180525380E+03  0.41800000000E+01 0. -1.
</event>
<event>
11    1  0.6625361E-009  0.1337582E+03  0.7561462E-02  0.1114736E+00
         22   -1    0    0    0    0  0.00000000000E+00  0.00000000000E+00  0.97145966709E+02  0.97145966709E+02  0.00000000000E+00 0. -1.
         22   -1    0    0    0    0 -0.00000000000E+00 -0.00000000000E+00 -0.46906144946E+03  0.46906144946E+03  0.00000000000E+00 0.  1.
        -24    2    1    2    0    0 -0.29829436871E+02 -0.28143199589E+02 -0.29712607895E+03  0.31074032438E+03  0.81202262401E+02 0.  0.
         25    2    1    2    0    0 -0.44120880494E+01  0.60033599407E+02 -0.81217248911E+02  0.16083447536E+03  0.12509191566E+03 0.  0.
         24    2    1    2    0    0  0.34241524920E+02 -0.31890399818E+02  0.64278451115E+01  0.94632616424E+02  0.82003263771E+02 0.  0.
        -11    1    5    5    0    0 -0.97194022970E+01  0.21151819630E+02 -0.72814623767E+01  0.24390283906E+02  0.00000000000E+00 0.  1.
         12    1    5    5    0    0  0.43960927217E+02 -0.53042219448E+02  0.13709307488E+02  0.70242332518E+02  0.00000000000E+00 0. -1.
         13    1    3    3    0    0 -0.56584306766E+02 -0.29679435835E+02 -0.22000350913E+03  0.22909429655E+03  0.00000000000E+00 0. -1.
        -14    1    3    3    0    0  0.26754869896E+02  0.15362362458E+01 -0.77122569821E+02  0.81646027832E+02  0.00000000000E+00 0.  1.
          5    1    4    4  501    0  0.52293754555E+02  0.28745192131E+02 -0.74564941098E+02  0.95594590208E+02  0.41800000000E+01 0.  1.
         -5    1    4    4    0  501 -0.56705842604E+02  0.31288407276E+02 -0.66523078135E+01  0.65239885151E+02  0.41800000000E+01 0.  1.
</event>
<event>
11    1  0.6625361E-009  0.1713620E+03  0.7561462E-02  0.1076852E+00
         22   -1    0    0    0    0  0.00000000000E+00  0.00000000000E+00  0.59356924539E+03  0.59356924539E+03  0.00000000000E+00 0.  1.
         22   -1    0    0    0    0 -0.00000000000E+00 -0.00000000000E+00 -0.12688899653E+04  0.12688899653E+04  0.00000000000E+00 0.  1.
        -24    2    1    2    0    0  0.34325271096E+02  0.52962058924E+01 -0.12051195117E+04  0.12086156476E+04  0.85043942178E+02 0.  0.
         25    2    1    2    0    0  0.19446145909E+02 -0.11141873647E+03  0.90158899072E+02  0.19122420253E+03  0.12508309688E+03 0.  0.
         24    2    1    2    0    0 -0.53771417005E+02  0.10612253058E+03  0.43963989271E+03  0.46261936056E+03  0.81117696733E+02 0.  0.
        -11    1    5    5    0    0 -0.28737108863E+02  0.91060573255E+02  0.41010793393E+03  0.42107762574E+03  0.00000000000E+00 0.  1.
         12    1    5    5    0    0 -0.25034308143E+02  0.15061957326E+02  0.29531958776E+02  0.41541734819E+02  0.00000000000E+00 0. -1.
         11    1    3    3    0    0 -0.15421142000E+02  0.23928333154E+02 -0.72644911820E+03  0.72700666990E+03  0.00000000000E+00 0. -1.
        -12    1    3    3    0    0  0.49746413095E+02 -0.18632127261E+02 -0.47867039346E+03  0.48160897765E+03  0.00000000000E+00 0.  1.
          5    1    4    4  501    0  0.60318652830E+01  0.49464721632E+01 -0.25235743731E+02  0.26742590513E+02  0.41800000000E+01 0. -1.
         -5    1    4    4    0  501  0.13414280626E+02 -0.11636520864E+03  0.11539464280E+03  0.16448161202E+03  0.41800000000E+01 0. -1.
</event>
<event>
11    1  0.6625361E-009  0.1615883E+03  0.7561462E-02  0.1085593E+00
         22   -1    0    0    0    0  0.00000000000E+00  0.00000000000E+00  0.10257423122E+04  0.10257423122E+04  0.00000000000E+00 0.  1.
         22   -1    0    0    0    0 -0.00000000000E+00 -0.00000000000E+00 -0.32627793755E+03  0.32627793755E+03  0.00000000000E+00 0.  1.
         24    2    1    2    0    0  0.10035773592E+02  0.88195607631E+02 -0.10512046288E+03  0.15788711267E+03  0.77452221882E+02 0.  0.
         25    2    1    2    0    0 -0.11147675956E+03 -0.74777150219E+02 -0.14603109452E+03  0.23449449319E+03  0.12507556377E+03 0.  0.
        -24    2    1    2    0    0  0.10144098597E+03 -0.13418457412E+02  0.95061593203E+03  0.95963864388E+03  0.82251735355E+02 0.  0.
        -11    1    3    3    0    0  0.30855947498E+02  0.90138775013E+02 -0.75160818200E+02  0.12135170724E+03  0.00000000000E+00 0.  1.
         12    1    3    3    0    0 -0.20820173905E+02 -0.19431673821E+01 -0.29959644675E+02  0.36535405431E+02  0.00000000000E+00 0. -1.
         13    1    5    5    0    0  0.44872678181E+02  0.34815474573E+02  0.43453429852E+03  0.43823022614E+03  0.00000000000E+00 0. -1.
        -14    1    5    5    0    0  0.56568307790E+02 -0.48233931985E+02  0.51608163351E+03  0.52140841774E+03  0.00000000000E+00 0.  1.
          5    1    4    4  501    0 -0.15273227177E+02  0.14308164142E+02 -0.88875012676E+02  0.91401506047E+02  0.41800000000E+01 0. -1.
         -5    1    4    4    0  501 -0.96203532387E+02 -0.89085314362E+02 -0.57156081842E+02  0.14309298714E+03  0.41800000000E+01 0. -1.
</event>
<event>
11    1  0.6625361E-009  0.1807502E+03  0.7561462E-02  0.1069038E+00
         22   -1    0    0    0    0  0.00000000000E+00  0.00000000000E+00  0.10004758131E+04  0.10004758131E+04  0.00000000000E+00 0. -1.
         22   -1    0    0    0    0 -0.00000000000E+00 -0.00000000000E+00 -0.43386398321E+03  0.43386398321E+03  0.00000000000E+00 0. -1.
        -24    2    1    2    0    0  0.13404623959E+03  0.36397452036E+02 -0.35976118738E+03  0.39382141997E+03  0.79837522616E+02 0.  0.
         25    2    1    2    0    0 -0.51224633103E+02 -0.80163433590E+02  0.64477595229E+02  0.16987334403E+03  0.12509777618E+03 0.  0.
         24    2    1    2    0    0 -0.82821606489E+02  0.43765981554E+02  0.86189542204E+03  0.87064503231E+03  0.79901026940E+02 0.  0.
        -13    1    5    5    0    0 -0.52248339620E+02  0.63467264558E+02  0.47670804623E+03  0.48374429609E+03  0.00000000000E+00 0.  1.
         14    1    5    5    0    0 -0.30573266869E+02 -0.19701283004E+02  0.38518737581E+03  0.38690073622E+03  0.00000000000E+00 0. -1.
         13    1    3    3    0    0  0.23610842192E+02  0.20925480750E+02 -0.17650869809E+03  0.17930607384E+03  0.00000000000E+00 0. -1.
        -14    1    3    3    0    0  0.11043539740E+03  0.15471971286E+02 -0.18325248928E+03  0.21451534612E+03  0.00000000000E+00 0.  1.
          5    1    4    4  501    0 -0.14501925275E+02  0.23456001783E+02  0.52189858848E+02  0.59175532299E+02  0.41800000000E+01 0.  1.
         -5    1    4    4    0  501 -0.36722707828E+02 -0.10361943537E+03  0.12287736381E+02  0.11069781173E+03  0.41800000000E+01 0.  1.
</event>
<event>
11    1  0.6625361E-009  0.1266602E+03  0.7561462E-02  0.1123442E+00
         22   -1    0    0    0    0  0.00000000000E+00  0.00000000000E+00  0.35317550326E+04  0.35317550326E+04  0.00000000000E+00 0. -1.
         22   -1    0    0    0    0 -0.00000000000E+00 -0.00000000000E+00 -0.45907868003E+03  0.45907868003E+03  0.00000000000E+00 0. -1.
        -24    2    1    2    0    0 -0.12401916464E+02 -0.15543011961E+02 -0.44589099352E+03  0.45326443987E+03  0.78958733496E+02 0.  0.
         25    2    1    2    0    0  0.53739819236E+01  0.25803382116E+02  0.44598077481E+03  0.46393940846E+03  0.12508488722E+03 0.  0.
         24    2    1    2    0    0  0.70279345402E+01 -0.10260370155E+02  0.30725865713E+04  0.30736298643E+04  0.79105231469E+02 0.  0.
        -13    1    5    5    0    0 -0.13954460994E+02  0.16318405401E+02  0.27452206706E+03  0.27536045947E+03  0.00000000000E+00 0.  1.
         14    1    5    5    0    0  0.20982395534E+02 -0.26578775556E+02  0.27980645042E+04  0.27982694048E+04  0.00000000000E+00 0. -1.
         11    1    3    3    0    0 -0.42193086221E+02 -0.16477832209E+02 -0.34802274698E+03  0.35095812840E+03  0.00000000000E+00 0. -1.
        -12    1    3    3    0    0  0.29791169757E+02  0.93482024868E+00 -0.97868246543E+02  0.10230631147E+03  0.00000000000E+00 0.  1.
          5    1    4    4  501    0  0.42429522270E+02  0.21735477024E+02  0.40713622245E+03  0.40993910688E+03  0.41800000000E+01 0. -1.
         -5    1    4    4    0  501 -0.37055540346E+02  0.40679050915E+01  0.38844552362E+02  0.54000301577E+02  0.41800000000E+01 0. -1.
</event>
<event>
11    1  0.6625361E-009  0.1748924E+03  0.7561462E-02  0.1073851E+00
         22   -1    0    0    0    0  0.00000000000E+00  0.00000000000E+00  0.28620763665E+04  0.28620763665E+04  0.00000000000E+00 0.  1.
         22   -1    0    0    0    0 -0.00000000000E+00 -0.00000000000E+00 -0.91043333017E+02  0.91043333017E+02  0.00000000000E+00 0.  1.
        -24    2    1    2    0    0  0.99522429321E+02 -0.58739501995E+02  0.16557300537E+02  0.14115361496E+03  0.79342017763E+02 0.  0.
         25    2    1    2    0    0 -0.93606712707E+02  0.14253762741E+03  0.38182373261E+03  0.43648151652E+03  0.12509020580E+03 0.  0.
         24    2    1    2    0    0 -0.59157166141E+01 -0.83798125415E+02  0.23726520003E+04  0.23754845680E+04  0.79951840301E+02 0.  0.
        -11    1    5    5    0    0 -0.38818009654E+02 -0.32430781749E+02  0.14060902573E+04  0.14069997886E+04  0.00000000000E+00 0.  1.
         12    1    5    5    0    0  0.32902293040E+02 -0.51367343666E+02  0.96656174306E+03  0.96848477945E+03  0.00000000000E+00 0. -1.
         13    1    3    3    0    0 -0.16917867945E+00  0.30103433390E+01  0.23489556143E+02  0.23682272615E+02  0.00000000000E+00 0. -1.
        -14    1    3    3    0    0  0.99691608000E+02 -0.61749845334E+02 -0.69322556055E+01  0.11747134234E+03  0.00000000000E+00 0.  1.
          5    1    4    4  501    0 -0.20160358906E+02 -0.22369210769E+02  0.66380049987E+02  0.73010992994E+02  0.41800000000E+01 0. -1.
         -5    1    4    4    0  501 -0.73446353801E+02  0.16490683818E+03  0.31544368262E+03  0.36347052353E+03  0.41800000000E+01 0. -1.
</event>
<event>
11    1  0.6625361E-009  0.1734148E+03  0.7561462E-02  0.1075098E+00
         22   -1    0    0    0    0  0.00000000000E+00  0.00000000000E+00  0.15831147109E+04  0.15831147109E+04  0.00000000000E+00 0. -1.
         22   -1    0    0    0    0 -0.00000000000E+00 -0.00000000000E+00 -0.84750091699E+03  0.84750091699E+03  0.00000000000E+00 0. -1.
        -24    2    1    2    0    0 -0.38971169409E+02 -0.95207819451E+02 -0.72152928906E+03  0.73483640259E+03  0.93790951977E+02 0.  0.
         25    2    1    2    0    0 -0.51835953300E+02  0.17233088711E+03 -0.12178607646E+02  0.21950234249E+03  0.12509220268E+03 0.  0.
         24    2    1    2    0    0  0.90807122709E+02 -0.77123067655E+02  0.14693216906E+04  0.14762768828E+04  0.79330341540E+02 0.  0.
        -11    1    5    5    0    0  0.31271519998E+02 -0.19481908460E+02  0.15394496571E+03  0.15829246724E+03  0.00000000000E+00 0.  1.
         12    1    5    5    0    0  0.59535602711E+02 -0.57641159195E+02  0.13153767249E+04  0.13179844155E+04  0.00000000000E+00 0. -1.
         13    1    3    3    0    0 -0.50720895649E+02 -0.10829525217E+03 -0.66386117311E+03  0.67454586802E+03  0.00000000000E+00 0. -1.
        -14    1    3    3    0    0  0.11749726240E+02  0.13087432719E+02 -0.57668115947E+02  0.60290534570E+02  0.00000000000E+00 0.  1.
          5    1    4    4  501    0  0.23011744400E+02  0.12766292776E+03 -0.22174948303E+02  0.13166838739E+03  0.41800000000E+01 0.  1.
         -5    1    4    4    0  501 -0.74847697700E+02  0.44667959345E+02  0.99963406573E+01  0.87833955106E+02  0.41800000000E+01 0.  1.
</event>
<event>
11    1  0.6625361E-009  0.2069893E+03  0.7561462E-02  0.1049688E+00
         22   -1    0    0    0    0  0.00000000000E+00  0.00000000000E+00  0.84079541082E+02  0.84079541082E+02  0.00000000000E+00 0. -1.
         22   -1    0    0    0    0 -0.00000000000E+00 -0.00000000000E+00 -0.16700521246E+04  0.16700521246E+04  0.00000000000E+00 0.  1.
         24    2    1    2    0    0  0.11172389111E+03  0.95252333302E+02 -0.86926257125E+03  0.88570790295E+03  0.85474187538E+02 0.  0.
         25    2    1    2    0    0 -0.13520472473E+03 -0.16311042046E+03 -0.72071798079E+03  0.76155533032E+03  0.12508711545E+03 0.  0.
        -24    2    1    2    0    0  0.23480833627E+02  0.67858087156E+02  0.40079685021E+01  0.10686843243E+03  0.79048899412E+02 0.  0.
        -11    1    3    3    0    0  0.83835488225E+02  0.95704485156E+02 -0.81317025731E+03  0.82306354854E+03  0.00000000000E+00 0.  1.
         12    1    3    3    0    0  0.27888402881E+02 -0.45215185469E+00 -0.56092313943E+02  0.62644354414E+02  0.00000000000E+00 0. -1.
         13    1    5    5    0    0  0.38128991232E+02  0.50968778456E+01  0.15372836226E+02  0.41426105655E+02  0.00000000000E+00 0. -1.
        -14    1    5    5    0    0 -0.14648157605E+02  0.62761209310E+02 -0.11364867724E+02  0.65442326775E+02  0.00000000000E+00 0.  1.
          5    1    4    4  501    0 -0.11774660556E+03 -0.13764082437E+03 -0.70243988688E+03  0.72542989099E+03  0.41800000000E+01 0. -1.
         -5    1    4    4    0  501 -0.17458119172E+02 -0.25469596087E+02 -0.18278093902E+02  0.36125439327E+02  0.41800000000E+01 0. -1.
</event>
<event>
11    1  0.6625361E-009  0.1356561E+03  0.7561462E-02  0.1112508E+00
         22   -1    0    0    0    0  0.00000000000E+00  0.00000000000E+00  0.54919759615E+03  0.54919759615E+03  0.00000000000E+00 0. -1.
         22   -1    0    0    0    0 -0.00000000000E+00 -0.00000000000E+00 -0.19739761773E+04  0.19739761773E+04  0.00000000000E+00 0. -1.
         24    2    1    2    0    0  0.48434598135E+02  0.18733564469E+02 -0.17859863152E+04  0.17885989507E+04  0.81499887976E+02 0.  0.
         25    2    1    2    0    0 -0.66368513060E+02 -0.44821602349E+01 -0.15602943825E+03  0.21076021069E+03  0.12509920672E+03 0.  0.
        -24    2    1    2    0    0  0.17933914924E+02 -0.14251404234E+02  0.51723717226E+03  0.52381461208E+03  0.79515581035E+02 0.  0.
        -13    1    3    3    0    0 -0.11573649681E+02  0.27901978426E+02 -0.91567654315E+03  0.91617465663E+03  0.00000000000E+00 0.  1.
         14    1    3    3    0    0  0.60008247816E+02 -0.91684139576E+01 -0.87030977205E+03  0.87242429411E+03  0.00000000000E+00 0. -1.
         11    1    5    5    0    0 -0.15064377908E+01 -0.31391657579E+02  0.45895292024E+03  0.46002770408E+03  0.00000000000E+00 0. -1.
        -12    1    5    5    0    0  0.19440352715E+02  0.17140253345E+02  0.58284252022E+02  0.63786908000E+02  0.00000000000E+00 0.  1.
          5    1    4    4  501    0 -0.62899904731E+02 -0.38805477124E+02 -0.29738327056E+02  0.79775331814E+02  0.41800000000E+01 0.  1.
         -5    1    4    4    0  501 -0.34686083283E+01  0.34323316889E+02 -0.12629111119E+03  0.13098487887E+03  0.41800000000E+01 0.  1.
</event>
<event>
11    1  0.6625361E-009  0.1445494E+03  0.7561462E-02  0.1102582E+00
         22   -1    0    0    0    0  0.00000000000E+00  0.00000000000E+00  0.28039956380E+03  0.28039956380E+03  0.00000000000E+00 0. -1.
         22   -1    0    0    0    0 -0.00000000000E+00 -0.00000000000E+00 -0.69513098912E+03  0.69513098912E+03  0.00000000000E+00 0.  1.
         24    2    1    2    0    0 -0.98141907026E+01 -0.23253159592E+02 -0.45833177082E+03  0.46591164540E+03  0.79803642795E+02 0.  0.
         25    2    1    2    0    0 -0.29997705582E+01 -0.49305960756E+02 -0.20073185467E+03  0.24162233782E+03  0.12509196722E+03 0.  0.
        -24    2    1    2    0    0  0.12813961261E+02  0.72559120348E+02  0.24433220018E+03  0.26799656970E+03  0.81822452795E+02 0.  0.
        -11    1    3    3    0    0  0.13118106929E+01  0.24302203547E+02 -0.27864223511E+03  0.27970308030E+03  0.00000000000E+00 0.  1.
         12    1    3    3    0    0 -0.11126001395E+02 -0.47555363138E+02 -0.17968953571E+03  0.18620856509E+03  0.00000000000E+00 0. -1.
         13    1    5    5    0    0  0.45910642650E+01  0.70215249635E+02  0.24865228497E+03  0.25841675250E+03  0.00000000000E+00 0. -1.
        -14    1    5    5    0    0  0.82228969958E+01  0.23438707124E+01 -0.43200847973E+01  0.95798171995E+01  0.00000000000E+00 0.  1.
          5    1    4    4  501    0  0.14967246103E+02 -0.87896363403E+02 -0.15600464812E+03  0.17973511563E+03  0.41800000000E+01 0.  1.
         -5    1    4    4    0  501 -0.17967016662E+02  0.38590402647E+02 -0.44727206549E+02  0.61887222185E+02  0.41800000000E+01 0.  1.
</event>
<event>
11    1  0.6625361E-009  0.1893768E+03  0.7561462E-02  0.1062301E+00
         22   -1    0    0    0    0  0.00000000000E+00  0.00000000000E+00  0.14578687896E+03  0.14578687896E+03  0.00000000000E+00 0. -1.
         22   -1    0    0    0    0 -0.00000000000E+00 -0.00000000000E+00 -0.19070331369E+04  0.19070331369E+04  0.00000000000E+00 0.  1.
        -24    2    1    2    0    0  0.61171322183E+02 -0.12683462290E+03 -0.15814482872E+04  0.15897529412E+04  0.80664594533E+02 0.  0.
         25    2    1    2    0    0 -0.39520086376E+02 -0.44546366375E+02 -0.22748408928E+03  0.26635506061E+03  0.12509912651E+03 0.  0.
         24    2    1    2    0    0 -0.21651235806E+02  0.17138098928E+03  0.47686118492E+02  0.19671201408E+03  0.81126019799E+02 0.  0.
        -11    1    5    5    0    0 -0.46448832435E+02  0.13697121828E+03  0.19872077847E+02  0.14599146602E+03  0.00000000000E+00 0.  1.
         12    1    5    5    0    0  0.24797596629E+02  0.34409770995E+02  0.27814040645E+02  0.50720548060E+02  0.00000000000E+00 0. -1.
         13    1    3    3    0    0  0.20247513654E+02 -0.37702960738E+02 -0.18589439251E+03  0.19075691396E+03  0.00000000000E+00 0. -1.
        -14    1    3    3    0    0  0.40923808529E+02 -0.89131662162E+02 -0.13955538947E+04  0.13989960272E+04  0.00000000000E+00 0.  1.
          5    1    4    4  501    0 -0.84106065925E+02 -0.32176996527E+02 -0.12801293372E+03  0.15656938727E+03  0.41800000000E+01 0. -1.
         -5    1    4    4    0  501  0.44585979548E+02 -0.12369369848E+02 -0.99471155564E+02  0.10978567335E+03  0.41800000000E+01 0. -1.
</event>
<event>
11    1  0.6625361E-009  0.1495027E+03  0.7561462E-02  0.1097388E+00
         22   -1    0    0    0    0  0.00000000000E+00  0.00000000000E+00  0.80372051914E+03  0.80372051914E+03  0.00000000000E+00 0. -1.
         22   -1    0    0    0    0 -0.00000000000E+00 -0.00000000000E+00 -0.23805423603E+04  0.23805423603E+04  0.00000000000E+00 0. -1.
         24    2    1    2    0    0 -0.83627690451E+01 -0.90616186110E+02 -0.17266794477E+04  0.17309848775E+04  0.81274238157E+02 0.  0.
         25    2    1    2    0    0 -0.24996110476E+02  0.52138356986E+02 -0.64145070173E+03  0.65608684714E+03  0.12509090465E+03 0.  0.
        -24    2    1    2    0    0  0.33358879521E+02  0.38477829124E+02  0.79130830831E+03  0.79719115481E+03  0.82167757253E+02 0.  0.
        -11    1    3    3    0    0  0.31022420100E+02 -0.10633729635E+02 -0.48944796046E+03  0.49054538297E+03  0.00000000000E+00 0.  1.
         12    1    3    3    0    0 -0.39385189145E+02 -0.79982456475E+02 -0.12372314872E+04  0.12404394945E+04  0.00000000000E+00 0. -1.
         13    1    5    5    0    0  0.37687760556E+02  0.48976790145E+02  0.77416446693E+03  0.77662714035E+03  0.00000000000E+00 0. -1.
        -14    1    5    5    0    0 -0.43288810347E+01 -0.10498961021E+02  0.17143841373E+02  0.20564014456E+02  0.00000000000E+00 0.  1.
          5    1    4    4  501    0 -0.22044643153E+02 -0.12119619864E+02 -0.49989378844E+03  0.50054382785E+03  0.41800000000E+01 0.  1.
         -5    1    4    4    0  501 -0.29514673237E+01  0.64257976850E+02 -0.14155691329E+03  0.15554301929E+03  0.41800000000E+01 0.  1.
</event>
<event>
11    1  0.6916023E-009  0.1492225E+03  0.7561462E-02  0.1097676E+00
         22   -1    0    0    0    0  0.00000000000E+00  0.00000000000E+00  0.12950508390E+04  0.12950508390E+04  0.00000000000E+00 0. -1.
         22   -1    0    0    0    0 -0.00000000000E+00 -0.00000000000E+00 -0.10555849662E+04  0.10555849662E+04  0.00000000000E+00 0. -1.
        -24    2    1    2    0    0  0.44043366876E+02 -0.19415036615E+02 -0.77193575227E+03  0.77756458294E+03  0.80031951140E+02 0.  0.
         25    2    1    2    0    0  0.31165361007E+02 -0.12753423656E+02 -0.26320020510E+03  0.29335301393E+03  0.12509082012E+03 0.  0.
         24    2    1    2    0    0 -0.75208727883E+02  0.32168460271E+02  0.12746018302E+04  0.12797182084E+04  0.79860533981E+02 0.  0.
        -11    1    5    5    0    0 -0.39837058687E+02 -0.16657876312E+02  0.28197127865E+03  0.28525826556E+03  0.00000000000E+00 0.  1.
         12    1    5    5    0    0 -0.35371669196E+02  0.48826336583E+02  0.99263055152E+03  0.99445994285E+03  0.00000000000E+00 0. -1.
         13    1    3    3    0    0  0.64359399001E+02 -0.19461605441E+02 -0.45078543209E+03  0.45577230292E+03  0.00000000000E+00 0. -1.
        -14    1    3    3    0    0 -0.20316032125E+02  0.46568825751E-01 -0.32115032018E+03  0.32179228002E+03  0.00000000000E+00 0.  1.
          5    1    4    4  501    0  0.39078437604E+02 -0.59223530938E+02 -0.95151333034E+02  0.11876783858E+03  0.41800000000E+01 0. -1.
         -5    1    4    4    0  501 -0.79130765967E+01  0.46470107283E+02 -0.16804887206E+03  0.17458517535E+03  0.41800000000E+01 0. -1.
</event>
<event>
11    1  0.6625361E-009  0.1431941E+03  0.7561462E-02  0.1104043E+00
         22   -1    0    0    0    0  0.00000000000E+00  0.00000000000E+00  0.49096187556E+03  0.49096187556E+03  0.00000000000E+00 0.  1.
         22   -1    0    0    0    0 -0.00000000000E+00 -0.00000000000E+00 -0.48170392593E+03  0.48170392593E+03  0.00000000000E+00 0.  1.
        -24    2    1    2    0    0  0.62902542279E+02 -0.32939865440E+02 -0.35206317594E+03  0.36795566913E+03  0.80007062390E+02 0.  0.
         25    2    1    2    0    0 -0.54121330879E+02  0.31252800460E+02 -0.75249034767E+02  0.15881846007E+03  0.12512006247E+03 0.  0.
         24    2    1    2    0    0 -0.87812114003E+01  0.16870649800E+01  0.43657016033E+03  0.44589167230E+03  0.90254765339E+02 0.  0.
        -11    1    5    5    0    0 -0.25889952744E+02  0.23708396611E+02  0.39024439492E+03  0.39182019535E+03  0.00000000000E+00 0.  1.
         12    1    5    5    0    0  0.17108741344E+02 -0.22021331631E+02  0.46325765418E+02  0.54071476943E+02  0.00000000000E+00 0. -1.
         13    1    3    3    0    0  0.17287337913E+02  0.34516636612E+01 -0.24818018111E+03  0.24880548292E+03  0.00000000000E+00 0. -1.
        -14    1    3    3    0    0  0.45615204367E+02 -0.36391529101E+02 -0.10388299483E+03  0.11915018621E+03  0.00000000000E+00 0.  1.
          5    1    4    4  501    0 -0.23754422337E+02 -0.24353947094E+02  0.23399324405E+02  0.41501663849E+02  0.41800000000E+01 0.  1.
         -5    1    4    4    0  501 -0.30366908541E+02  0.55606747553E+02 -0.98648359172E+02  0.11731679622E+03  0.41800000000E+01 0.  1.
</event>
<event>
11    1  0.6625361E-009  0.1556259E+03  0.7561462E-02  0.1091265E+00
         22   -1    0    0    0    0  0.00000000000E+00  0.00000000000E+00  0.11776990591E+03  0.11776990591E+03  0.00000000000E+00 0. -1.
         22   -1    0    0    0    0 -0.00000000000E+00 -0.00000000000E+00 -0.14199227162E+04  0.14199227162E+04  0.00000000000E+00 0.  1.
         24    2    1    2    0    0  0.34264137030E+02  0.82869846568E+02 -0.12103917506E+04  0.12164628282E+04  0.81805744761E+02 0.  0.
         25    2    1    2    0    0 -0.49336808077E+02 -0.14587890299E+03 -0.90403498029E+02  0.21802698780E+03  0.12509276552E+03 0.  0.
        -24    2    1    2    0    0  0.15072671047E+02  0.63009056425E+02 -0.13575616139E+01  0.10320280607E+03  0.80322161341E+02 0.  0.
        -13    1    3    3    0    0  0.31503323369E+02  0.98660527568E+02 -0.11072052525E+04  0.11120385920E+04  0.00000000000E+00 0.  1.
         14    1    3    3    0    0  0.27608136602E+01 -0.15790681000E+02 -0.10318649818E+03  0.10442423619E+03  0.00000000000E+00 0. -1.
         11    1    5    5    0    0 -0.14538743012E+02 -0.61876370825E+01  0.19501824018E+02  0.25099462964E+02  0.00000000000E+00 0. -1.
        -12    1    5    5    0    0  0.29611414059E+02  0.69196693508E+02 -0.20859385632E+02  0.78103343104E+02  0.00000000000E+00 0.  1.
          5    1    4    4  501    0 -0.79971237722E+02 -0.42923803433E+02 -0.39102919549E+02  0.98915936437E+02  0.41800000000E+01 0.  1.
         -5    1    4    4    0  501  0.30634429645E+02 -0.10295509956E+03 -0.51300578480E+02  0.11911105137E+03  0.41800000000E+01 0.  1.
</event>
<event>
11    1  0.6625361E-009  0.2524666E+03  0.7561462E-02  0.1022593E+00
         22   -1    0    0    0    0  0.00000000000E+00  0.00000000000E+00  0.53759022334E+03  0.53759022334E+03  0.00000000000E+00 0. -1.
         22   -1    0    0    0    0 -0.00000000000E+00 -0.00000000000E+00 -0.57607529555E+03  0.57607529555E+03  0.00000000000E+00 0. -1.
        -24    2    1    2    0    0 -0.44578963254E+02 -0.43588909227E+02 -0.45361140820E+03  0.46683095845E+03  0.90997566696E+02 0.  0.
         25    2    1    2    0    0  0.23398382247E+02 -0.19323486702E+03  0.12424084121E+03  0.26262790598E+03  0.12510168765E+03 0.  0.
         24    2    1    2    0    0  0.21180581008E+02  0.23682377624E+03  0.29088549477E+03  0.38420665447E+03  0.80413085141E+02 0.  0.
        -13    1    5    5    0    0  0.45229394224E+02  0.10198766395E+03  0.15760547384E+03  0.19309755846E+03  0.00000000000E+00 0.  1.
         14    1    5    5    0    0 -0.24048813217E+02  0.13483611230E+03  0.13328002093E+03  0.19110909600E+03  0.00000000000E+00 0. -1.
         13    1    3    3    0    0 -0.43216334513E+02 -0.69205303569E+02 -0.38571698929E+03  0.39425197709E+03  0.00000000000E+00 0. -1.
        -14    1    3    3    0    0 -0.13626287412E+01  0.25616394343E+02 -0.67894418905E+02  0.72578981355E+02  0.00000000000E+00 0.  1.
          5    1    4    4  501    0 -0.51494202217E+02 -0.69498235622E+02  0.43026544636E+02  0.96697536473E+02  0.41800000000E+01 0. -1.
         -5    1    4    4    0  501  0.74892584464E+02 -0.12373663139E+03  0.81214296575E+02  0.16593036951E+03  0.41800000000E+01 0. -1.
</event>
<event>
11    1  0.6625361E-009  0.1430251E+03  0.7561462E-02  0.1104227E+00
         22   -1    0    0    0    0  0.00000000000E+00  0.00000000000E+00  0.85459078671E+03  0.85459078671E+03  0.00000000000E+00 0.  1.
         22   -1    0    0    0    0 -0.00000000000E+00 -0.00000000000E+00 -0.54078807691E+03  0.54078807691E+03  0.00000000000E+00 0.  1.
        -24    2    1    2    0    0  0.75905060047E+02  0.48560587671E+01 -0.44026759084E+03  0.45602591268E+03  0.91317698431E+02 0.  0.
         25    2    1    2    0    0 -0.30081500377E+02 -0.30771203945E+01 -0.44086338693E+02  0.13603060092E+03  0.12508538601E+03 0.  0.
         24    2    1    2    0    0 -0.45823559670E+02 -0.17789383726E+01  0.79815663933E+03  0.80332235002E+03  0.78548162837E+02 0.  0.
        -13    1    5    5    0    0 -0.12882479337E+02  0.37243715731E+02  0.38900413737E+03  0.39099523210E+03  0.00000000000E+00 0.  1.
         14    1    5    5    0    0 -0.32941080333E+02 -0.39022654104E+02  0.40915250196E+03  0.41232711791E+03  0.00000000000E+00 0. -1.
         11    1    3    3    0    0  0.20321841297E+02  0.36498023846E+02 -0.28585652757E+03  0.28889277827E+03  0.00000000000E+00 0. -1.
        -12    1    3    3    0    0  0.55583218751E+02 -0.31641965079E+02 -0.15441106327E+03  0.16713313442E+03  0.00000000000E+00 0.  1.
          5    1    4    4  501    0  0.44980973833E+02 -0.23086852811E+02 -0.20728583740E+02  0.54803625460E+02  0.41800000000E+01 0. -1.
         -5    1    4    4    0  501 -0.75062474210E+02  0.20009732417E+02 -0.23357754953E+02  0.81226975460E+02  0.41800000000E+01 0. -1.
</event>
<event>
11    1  0.6625361E-009  0.1315219E+03  0.7561462E-02  0.1117413E+00
         22   -1    0    0    0    0  0.00000000000E+00  0.00000000000E+00  0.58142820903E+03  0.58142820903E+03  0.00000000000E+00 0.  1.
         22   -1    0    0    0    0 -0.00000000000E+00 -0.00000000000E+00 -0.37299422907E+03  0.37299422907E+03  0.00000000000E+00 0. -1.
         24    2    1    2    0    0  0.43497093965E+01  0.43597115709E+02 -0.28548659391E+03  0.29936024185E+03  0.78704069954E+02 0.  0.
         25    2    1    2    0    0  0.28078524620E+02 -0.17327589068E+02 -0.22174728820E+02  0.13125114214E+03  0.12508594976E+03 0.  0.
        -24    2    1    2    0    0 -0.32428234016E+02 -0.26269526641E+02  0.51609530269E+03  0.52381105410E+03  0.79258946184E+02 0.  0.
        -13    1    3    3    0    0 -0.24544328544E+02  0.34972867495E+02 -0.71756886675E+02  0.83513928837E+02  0.00000000000E+00 0.  1.
         14    1    3    3    0    0  0.28894037941E+02  0.86242482138E+01 -0.21372970724E+03  0.21584631302E+03  0.00000000000E+00 0. -1.
         13    1    5    5    0    0  0.95942677111E+01  0.10134923238E+02  0.18781135259E+02  0.23398668414E+02  0.00000000000E+00 0. -1.
        -14    1    5    5    0    0 -0.42022501728E+02 -0.36404449879E+02  0.49731416743E+03  0.50041238569E+03  0.00000000000E+00 0.  1.
          5    1    4    4  501    0  0.23729136705E+02  0.10268220681E+02 -0.70537639845E+02  0.75243201152E+02  0.41800000000E+01 0.  1.
         -5    1    4    4    0  501  0.43493879151E+01 -0.27595809750E+02  0.48362911025E+02  0.56007940989E+02  0.41800000000E+01 0.  1.
</event>
<event>
11    1  0.6625361E-009  0.1293973E+03  0.7561462E-02  0.1120012E+00
         22   -1    0    0    0    0  0.00000000000E+00  0.00000000000E+00  0.10066192906E+04  0.10066192906E+04  0.00000000000E+00 0. -1.
         22   -1    0    0    0    0 -0.00000000000E+00 -0.00000000000E+00 -0.22579959517E+04  0.22579959517E+04  0.00000000000E+00 0.  1.
        -24    2    1    2    0    0  0.22296286841E+02  0.53373856419E+01 -0.22443868449E+04  0.22460023553E+04  0.82028399954E+02 0.  0.
         25    2    1    2    0    0 -0.16952359916E+02  0.29892927062E+02  0.63679852047E+03  0.64987846117E+03  0.12509472022E+03 0.  0.
         24    2    1    2    0    0 -0.53439269252E+01 -0.35230312704E+02  0.35621166329E+03  0.36873442583E+03  0.88366256192E+02 0.  0.
        -11    1    5    5    0    0  0.41449047074E+02 -0.13183744604E+02  0.16916450028E+03  0.17466671915E+03  0.00000000000E+00 0.  1.
         12    1    5    5    0    0 -0.46792974000E+02 -0.22046568100E+02  0.18704716302E+03  0.19406770667E+03  0.00000000000E+00 0. -1.
         13    1    3    3    0    0  0.41602174444E+02  0.20244129566E+02 -0.75526680416E+03  0.75668256962E+03  0.00000000000E+00 0. -1.
        -14    1    3    3    0    0 -0.19305887603E+02 -0.14906743924E+02 -0.14891200407E+04  0.14893197857E+04  0.00000000000E+00 0.  1.
          5    1    4    4  501    0  0.46995376530E+02  0.29321297986E+02  0.17369236977E+03  0.18235902952E+03  0.41800000000E+01 0.  1.
         -5    1    4    4    0  501 -0.63947736446E+02  0.57162907621E+00  0.46310615069E+03  0.46751943164E+03  0.41800000000E+01 0.  1.
</event>
<event>
11    1  0.6625361E-009  0.1882921E+03  0.7561462E-02  0.1063126E+00
         22   -1    0    0    0    0  0.00000000000E+00  0.00000000000E+00  0.31620637325E+03  0.31620637325E+03  0.00000000000E+00 0. -1.
         22   -1    0    0    0    0 -0.00000000000E+00 -0.00000000000E+00 -0.10334648810E+04  0.10334648810E+04  0.00000000000E+00 0. -1.
         24    2    1    2    0    0 -0.77018377845E+02  0.13608831221E+03 -0.89008483041E+03  0.90626309100E+03  0.67896432340E+02 0.  0.
         25    2    1    2    0    0 -0.10171808498E+02 -0.69272236781E+02 -0.74156420033E+02  0.16141051477E+03  0.12510823782E+03 0.  0.
        -24    2    1    2    0    0  0.87190186343E+02 -0.66816075433E+02  0.24698274271E+03  0.28199764847E+03  0.80347258937E+02 0.  0.
        -11    1    3    3    0    0 -0.75344996268E+02  0.12464250666E+03 -0.65961708336E+03  0.67550523283E+03  0.00000000000E+00 0.  1.
         12    1    3    3    0    0 -0.16733815765E+01  0.11445805550E+02 -0.23046774706E+03  0.23075785816E+03  0.00000000000E+00 0. -1.
         11    1    5    5    0    0  0.45804403286E+02 -0.21465254388E+01  0.15775368651E+03  0.16428291615E+03  0.00000000000E+00 0. -1.
        -12    1    5    5    0    0  0.41385783057E+02 -0.64669549994E+02  0.89229056195E+02  0.11771473232E+03  0.00000000000E+00 0.  1.
          5    1    4    4  501    0 -0.41865150261E+02 -0.28546811809E+02 -0.93264718891E+02  0.10622330940E+03  0.41800000000E+01 0.  1.
         -5    1    4    4    0  501  0.31693341764E+02 -0.40725424972E+02  0.19108298858E+02  0.55187205370E+02  0.41800000000E+01 0.  1.
</event>
<event>
11    1  0.6625361E-009  0.2856913E+03  0.7561462E-02  0.1006436E+00
         22   -1    0    0    0    0  0.00000000000E+00  0.00000000000E+00  0.49577995149E+03  0.49577995149E+03  0.00000000000E+00 0.  1.
         22   -1    0    0    0    0 -0.00000000000E+00 -0.00000000000E+00 -0.31908548533E+03  0.31908548533E+03  0.00000000000E+00 0. -1.
        -24    2    1    2    0    0 -0.18632397518E+03  0.17091833345E+03 -0.60839680089E+02  0.27239731384E+03  0.81050166411E+02 0.  0.
         25    2    1    2    0    0  0.19538506675E+03 -0.17508452176E+03 -0.59552307117E+00  0.29065041321E+03  0.12508954387E+03 0.  0.
         24    2    1    2    0    0 -0.90610915623E+01  0.41661883114E+01  0.23812966932E+03  0.25181770978E+03  0.81283202705E+02 0.  0.
        -13    1    5    5    0    0 -0.35576909542E+02  0.28744289179E+02  0.13314406282E+03  0.14078100766E+03  0.00000000000E+00 0.  1.
         14    1    5    5    0    0  0.26515817980E+02 -0.24578100868E+02  0.10498560650E+03  0.11103670212E+03  0.00000000000E+00 0. -1.
         11    1    3    3    0    0 -0.13523514738E+03  0.16458414929E+03 -0.58315012165E+02  0.22085544578E+03  0.00000000000E+00 0. -1.
        -12    1    3    3    0    0 -0.51088827800E+02  0.63341841560E+01 -0.25246679248E+01  0.51541868059E+02  0.00000000000E+00 0.  1.
          5    1    4    4  501    0  0.19973171230E+03 -0.17594367593E+03  0.22127133155E+02  0.26712546944E+03  0.41800000000E+01 0. -1.
         -5    1    4    4    0  501 -0.43466455590E+01  0.85915417649E+00 -0.22722656226E+02  0.23524943772E+02  0.41800000000E+01 0. -1.
</event>
<event>
11    1  0.6625361E-009  0.1301981E+03  0.7561462E-02  0.1119026E+00
         22   -1    0    0    0    0  0.00000000000E+00  0.00000000000E+00  0.36638756774E+02  0.36638756774E+02  0.00000000000E+00 0.  1.
         22   -1    0    0    0    0 -0.00000000000E+00 -0.00000000000E+00 -0.13924036903E+04  0.13924036903E+04  0.00000000000E+00 0.  1.
        -24    2    1    2    0    0 -0.47815105970E+02  0.18907918319E+02 -0.62756678341E+03  0.63482130996E+03  0.80710806008E+02 0.  0.
         25    2    1    2    0    0  0.13774321764E+02  0.37061380629E+01 -0.68275468206E+03  0.69426553638E+03  0.12508881535E+03 0.  0.
         24    2    1    2    0    0  0.34040784206E+02 -0.22614056382E+02 -0.45443468094E+02  0.99955600775E+02  0.79093885974E+02 0.  0.
        -11    1    5    5    0    0  0.37938357871E+02 -0.98414862891E+01  0.11992432220E+02  0.40987708900E+02  0.00000000000E+00 0.  1.
         12    1    5    5    0    0 -0.38975736649E+01 -0.12772570093E+02 -0.57435900314E+02  0.58967891875E+02  0.00000000000E+00 0. -1.
         13    1    3    3    0    0  0.14302049455E+02  0.25412439944E+02 -0.12329690682E+03  0.12669833446E+03  0.00000000000E+00 0. -1.
        -14    1    3    3    0    0 -0.62117155425E+02 -0.65045216249E+01 -0.50426987658E+03  0.50812297550E+03  0.00000000000E+00 0.  1.
          5    1    4    4  501    0  0.20065323737E+02  0.44803279960E+02 -0.11674434185E+03  0.12671489599E+03  0.41800000000E+01 0.  1.
         -5    1    4    4    0  501 -0.62910019735E+01 -0.41097141897E+02 -0.56601034021E+03  0.56755064039E+03  0.41800000000E+01 0.  1.
</event>
<event>
11    1  0.6625361E-009  0.1454811E+03  0.7561462E-02  0.1101588E+00
         22   -1    0    0    0    0  0.00000000000E+00  0.00000000000E+00  0.12535439367E+03  0.12535439367E+03  0.00000000000E+00 0.  1.
         22   -1    0    0    0    0 -0.00000000000E+00 -0.00000000000E+00 -0.11555303517E+04  0.11555303517E+04  0.00000000000E+00 0. -1.
         24    2    1    2    0    0  0.25185775853E+02  0.64744967506E+02 -0.87207086401E+03  0.87847575476E+03  0.79911361629E+02 0.  0.
         25    2    1    2    0    0 -0.18735161594E+02 -0.12035164375E+03 -0.22325995864E+03  0.28342280988E+03  0.12509178869E+03 0.  0.
        -24    2    1    2    0    0 -0.64506142582E+01  0.55606676248E+02  0.65154864617E+02  0.11898618074E+03  0.82333723083E+02 0.  0.
        -11    1    3    3    0    0  0.90912749282E+01  0.23765666050E+02 -0.59493138232E+02  0.64706194907E+02  0.00000000000E+00 0.  1.
         12    1    3    3    0    0  0.16094500924E+02  0.40979301456E+02 -0.81257772578E+03  0.81376955985E+03  0.00000000000E+00 0. -1.
         13    1    5    5    0    0  0.18127733074E+02  0.36178317288E+02 -0.63106117983E+01  0.40954965138E+02  0.00000000000E+00 0. -1.
        -14    1    5    5    0    0 -0.24578347332E+02  0.19428358960E+02  0.71465476415E+02  0.78031215604E+02  0.00000000000E+00 0.  1.
          5    1    4    4  501    0 -0.20710996015E+02  0.19670421757E+02 -0.70318816379E+02  0.76013677618E+02  0.41800000000E+01 0. -1.
         -5    1    4    4    0  501  0.19758344204E+01 -0.14002206551E+03 -0.15294114226E+03  0.20740913227E+03  0.41800000000E+01 0. -1.
</event>
<event>
11    1  0.6625361E-009  0.1615089E+03  0.7561462E-02  0.1085667E+00
         22   -1    0    0    0    0  0.00000000000E+00  0.00000000000E+00  0.23749206807E+04  0.23749206807E+04  0.00000000000E+00 0.  1.
         22   -1    0    0    0    0 -0.00000000000E+00 -0.00000000000E+00 -0.33302039714E+03  0.33302039714E+03  0.00000000000E+00 0.  1.
        -24    2    1    2    0    0  0.74413251099E+02 -0.72761015686E+02 -0.29165386342E+03  0.31959709126E+03  0.79049524707E+02 0.  0.
         25    2    1    2    0    0 -0.42937601828E+02  0.62719604166E+02  0.17549192402E+03  0.22852010520E+03  0.12508651681E+03 0.  0.
         24    2    1    2    0    0 -0.31475649271E+02  0.10041411520E+02  0.21580622230E+04  0.21598238814E+04  0.80716132042E+02 0.  0.
        -11    1    5    5    0    0 -0.41801910279E+01  0.16965390549E+02  0.19232173825E+04  0.19232967526E+04  0.00000000000E+00 0.  1.
         12    1    5    5    0    0 -0.27295458243E+02 -0.69239790296E+01  0.23484484048E+03  0.23652712874E+03  0.00000000000E+00 0. -1.
         13    1    3    3    0    0 -0.84570841575E+01 -0.14326792939E+02 -0.11261806820E+03  0.11384027650E+03  0.00000000000E+00 0. -1.
        -14    1    3    3    0    0  0.82870335256E+02 -0.58434222746E+02 -0.17903579521E+03  0.20575681476E+03  0.00000000000E+00 0.  1.
          5    1    4    4  501    0 -0.42632999116E+02 -0.16600545471E+02  0.12795165881E+03  0.13594943956E+03  0.41800000000E+01 0.  1.
         -5    1    4    4    0  501 -0.30460271183E+00  0.79320149637E+02  0.47540265205E+02  0.92570665640E+02  0.41800000000E+01 0.  1.
</event>
<event>
11    1  0.6625361E-009  0.1390137E+03  0.7561462E-02  0.1108665E+00
         22   -1    0    0    0    0  0.00000000000E+00  0.00000000000E+00  0.26942383296E+04  0.26942383296E+04  0.00000000000E+00 0. -1.
         22   -1    0    0    0    0 -0.00000000000E+00 -0.00000000000E+00 -0.22197105086E+04  0.22197105086E+04  0.00000000000E+00 0. -1.
        -24    2    1    2    0    0 -0.53339927254E+02 -0.28837845313E+02 -0.22074788722E+04  0.22098033791E+04  0.81186414617E+02 0.  0.
         25    2    1    2    0    0  0.26899165145E+02  0.80490630749E+02  0.56568416202E+03  0.58553274224E+03  0.12509082440E+03 0.  0.
         24    2    1    2    0    0  0.26440762109E+02 -0.51652785436E+02  0.21163225312E+04  0.21186127169E+04  0.79571751673E+02 0.  0.
        -13    1    5    5    0    0 -0.83588049962E+01  0.17781115675E+02  0.31071917641E+03  0.31133975699E+03  0.00000000000E+00 0.  1.
         14    1    5    5    0    0  0.34799567105E+02 -0.69433901111E+02  0.18056033548E+04  0.18072729599E+04  0.00000000000E+00 0. -1.
         13    1    3    3    0    0 -0.70966849506E+02 -0.37121004827E+02 -0.19170388205E+04  0.19187110523E+04  0.00000000000E+00 0. -1.
        -14    1    3    3    0    0  0.17626922252E+02  0.82831595140E+01 -0.29044005172E+03  0.29109232687E+03  0.00000000000E+00 0.  1.
          5    1    4    4  501    0  0.74860101421E+02  0.68475806394E+02  0.37839916220E+03  0.39178612686E+03  0.41800000000E+01 0.  1.
         -5    1    4    4    0  501 -0.47960936276E+02  0.12014824354E+02  0.18728499982E+03  0.19374661538E+03  0.41800000000E+01 0.  1.
</event>
<event>
11    1  0.6625361E-009  0.2353291E+03  0.7561462E-02  0.1032018E+00
         22   -1    0    0    0    0  0.00000000000E+00  0.00000000000E+00  0.24216225890E+04  0.24216225890E+04  0.00000000000E+00 0. -1.
         22   -1    0    0    0    0 -0.00000000000E+00 -0.00000000000E+00 -0.34257342089E+03  0.34257342089E+03  0.00000000000E+00 0.  1.
        -24    2    1    2    0    0 -0.11566359815E+03  0.10970704238E+03 -0.24909915936E+03  0.30621694106E+03  0.79402271483E+02 0.  0.
         25    2    1    2    0    0  0.52686466727E+02 -0.29237548628E+03  0.37878172758E+03  0.49737546358E+03  0.12508983119E+03 0.  0.
         24    2    1    2    0    0  0.62977131422E+02  0.18266844390E+03  0.19493665999E+04  0.19606036052E+04  0.81255625400E+02 0.  0.
        -11    1    5    5    0    0  0.19378129518E+02  0.16514504248E+02  0.96883853827E+02  0.10017345899E+03  0.00000000000E+00 0.  1.
         12    1    5    5    0    0  0.43599001905E+02  0.16615393966E+03  0.18524827460E+04  0.18604301462E+04  0.00000000000E+00 0. -1.
         11    1    3    3    0    0 -0.52756156808E+02  0.12189291812E+02 -0.40889049046E+02  0.67850609783E+02  0.00000000000E+00 0. -1.
        -12    1    3    3    0    0 -0.62907441342E+02  0.97517750569E+02 -0.20821011031E+03  0.23836633128E+03  0.00000000000E+00 0.  1.
          5    1    4    4  501    0  0.43560464172E+02 -0.16088099572E+03  0.30148363830E+03  0.34451424555E+03  0.41800000000E+01 0.  1.
         -5    1    4    4    0  501  0.91260025551E+01 -0.13149449057E+03  0.77298089279E+02  0.15286121803E+03  0.41800000000E+01 0.  1.
</event>
<event>
11    1  0.6625361E-009  0.1337346E+03  0.7561462E-02  0.1114764E+00
         22   -1    0    0    0    0  0.00000000000E+00  0.00000000000E+00  0.54488981729E+03  0.54488981729E+03  0.00000000000E+00 0.  1.
         22   -1    0    0    0    0 -0.00000000000E+00 -0.00000000000E+00 -0.23968084802E+03  0.23968084802E+03  0.00000000000E+00 0. -1.
        -24    2    1    2    0    0 -0.68199095925E+01 -0.28239000389E+02 -0.18356077464E+03  0.20218979116E+03  0.79637939167E+02 0.  0.
         25    2    1    2    0    0  0.52706236223E+02  0.33755258313E+02  0.73950233239E+02  0.15821820081E+03  0.12508795813E+03 0.  0.
         24    2    1    2    0    0 -0.45886326631E+02 -0.55162579240E+01  0.41481951067E+03  0.42416267335E+03  0.75516640275E+02 0.  0.
        -13    1    5    5    0    0 -0.57445985281E+02 -0.18402943217E+02  0.38488068751E+03  0.38957907177E+03  0.00000000000E+00 0.  1.
         14    1    5    5    0    0  0.11559658651E+02  0.12886685293E+02  0.29938823156E+02  0.34583601575E+02  0.00000000000E+00 0. -1.
         13    1    3    3    0    0 -0.32758082124E+01 -0.48992019411E+02 -0.17046476209E+03  0.17739555801E+03  0.00000000000E+00 0. -1.
        -14    1    3    3    0    0 -0.35441013801E+01  0.20753019022E+02 -0.13096012543E+02  0.24794233153E+02  0.00000000000E+00 0.  1.
          5    1    4    4  501    0 -0.49598741895E+01 -0.23267021908E+02  0.73121964204E+02  0.77008108077E+02  0.41800000000E+01 0. -1.
         -5    1    4    4    0  501  0.57666110413E+02  0.57022280221E+02  0.82826903503E+00  0.81210092731E+02  0.41800000000E+01 0. -1.
</event>
<event>
11    1  0.6625361E-009  0.1597878E+03  0.7561462E-02  0.1087277E+00
         22   -1    0    0    0    0  0.00000000000E+00  0.00000000000E+00  0.41701676410E+03  0.41701676410E+03  0.00000000000E+00 0.  1.
         22   -1    0    0    0    0 -0.00000000000E+00 -0.00000000000E+00 -0.12110039394E+04  0.12110039394E+04  0.00000000000E+00 0.  1.
         24    2    1    2    0    0  0.72164615308E+01 -0.10335669769E+03 -0.10384505208E+04  0.10452476255E+04  0.58552798410E+02 0.  0.
         25    2    1    2    0    0  0.54647260712E+02  0.59451183662E+02 -0.12673985724E+03  0.19552779891E+03  0.12508941758E+03 0.  0.
        -24    2    1    2    0    0 -0.61863722243E+02  0.43905514031E+02  0.37120320273E+03  0.38724527910E+03  0.80076676822E+02 0.  0.
        -11    1    3    3    0    0  0.15062648892E+02 -0.10486474547E+03 -0.10141248821E+04  0.10196434547E+04  0.00000000000E+00 0.  1.
         12    1    3    3    0    0 -0.78461873608E+01  0.15080477734E+01 -0.24325638723E+02  0.25604170822E+02  0.00000000000E+00 0. -1.
         11    1    5    5    0    0 -0.31268540692E+02  0.23066814172E+02  0.47208896420E+02  0.61143106350E+02  0.00000000000E+00 0. -1.
        -12    1    5    5    0    0 -0.30595181551E+02  0.20838699859E+02  0.32399430631E+03  0.32610217275E+03  0.00000000000E+00 0.  1.
          5    1    4    4  501    0  0.26045419202E+00  0.77610036883E+02 -0.11174013450E+03  0.13611287860E+03  0.41800000000E+01 0. -1.
         -5    1    4    4    0  501  0.54386806520E+02 -0.18158853221E+02 -0.14999722742E+02  0.59414920316E+02  0.41800000000E+01 0. -1.
</event>
<event>
11    1  0.6625361E-009  0.1309061E+03  0.7561462E-02  0.1118161E+00
         22   -1    0    0    0    0  0.00000000000E+00  0.00000000000E+00  0.74439258311E+03  0.74439258311E+03  0.00000000000E+00 0. -1.
         22   -1    0    0    0    0 -0.00000000000E+00 -0.00000000000E+00 -0.18475822475E+03  0.18475822475E+03  0.00000000000E+00 0. -1.
         24    2    1    2    0    0  0.10149930511E+02 -0.35382360552E+02 -0.10830105490E+03  0.13979128403E+03  0.80358895405E+02 0.  0.
         25    2    1    2    0    0 -0.15425844750E+02  0.71724967676E+02  0.33636072128E+02  0.14886722105E+03  0.12509051315E+03 0.  0.
        -24    2    1    2    0    0  0.52759142396E+01 -0.36342607123E+02  0.63429934112E+03  0.64049230279E+03  0.80908067694E+02 0.  0.
        -13    1    3    3    0    0 -0.78285689855E+01  0.64183865776E+01  0.92671972042E+01  0.13724544533E+02  0.00000000000E+00 0.  1.
         14    1    3    3    0    0  0.17978499496E+02 -0.41800747130E+02 -0.11756825210E+03  0.12606673949E+03  0.00000000000E+00 0. -1.
         11    1    5    5    0    0  0.19782499377E+02 -0.30960296066E+02  0.61334462237E+03  0.61444406825E+03  0.00000000000E+00 0. -1.
        -12    1    5    5    0    0 -0.14506585138E+02 -0.53823110571E+01  0.20954718753E+02  0.26048234541E+02  0.00000000000E+00 0.  1.
          5    1    4    4  501    0  0.25393490248E+02 -0.24570675543E+02 -0.75657328432E+01  0.36376643015E+02  0.41800000000E+01 0. -1.
         -5    1    4    4    0  501 -0.40819334999E+02  0.96295643218E+02  0.41201804972E+02  0.11249057803E+03  0.41800000000E+01 0. -1.
</event>
<event>
11    1  0.6625361E-009  0.2223035E+03  0.7561462E-02  0.1039784E+00
         22   -1    0    0    0    0  0.00000000000E+00  0.00000000000E+00  0.60255148311E+03  0.60255148311E+03  0.00000000000E+00 0.  1.
         22   -1    0    0    0    0 -0.00000000000E+00 -0.00000000000E+00 -0.98453623059E+03  0.98453623059E+03  0.00000000000E+00 0.  1.
         24    2    1    2    0    0  0.13739187981E+03 -0.12196253090E+03 -0.90026619178E+03  0.92291682970E+03  0.86861216214E+02 0.  0.
         25    2    1    2    0    0 -0.21732037552E+03  0.31888076762E+02  0.22876808089E+03  0.34091996256E+03  0.12508633411E+03 0.  0.
        -24    2    1    2    0    0  0.79928495712E+02  0.90074454143E+02  0.28951336342E+03  0.32325092145E+03  0.78556978705E+02 0.  0.
        -13    1    3    3    0    0  0.73938984129E+02 -0.95044604587E+02 -0.71849923056E+03  0.72852014011E+03  0.00000000000E+00 0.  1.
         14    1    3    3    0    0  0.63452895683E+02 -0.26917926318E+02 -0.18176696122E+03  0.19439668958E+03  0.00000000000E+00 0. -1.
         13    1    5    5    0    0 -0.89500185042E+01  0.20594268943E+02  0.16553812133E+02  0.27897229982E+02  0.00000000000E+00 0. -1.
        -14    1    5    5    0    0  0.88878514216E+02  0.69480185200E+02  0.27295955128E+03  0.29535369146E+03  0.00000000000E+00 0.  1.
          5    1    4    4  501    0 -0.16570091970E+03  0.72087271653E+02  0.13110114950E+03  0.22328984152E+03  0.41800000000E+01 0.  1.
         -5    1    4    4    0  501 -0.51619455821E+02 -0.40199194892E+02  0.97666931390E+02  0.11763012104E+03  0.41800000000E+01 0.  1.
</event>
<event>
11    1  0.6625361E-009  0.1348982E+03  0.7561462E-02  0.1113393E+00
         22   -1    0    0    0    0  0.00000000000E+00  0.00000000000E+00  0.96396009181E+03  0.96396009181E+03  0.00000000000E+00 0.  1.
         22   -1    0    0    0    0 -0.00000000000E+00 -0.00000000000E+00 -0.49133747816E+03  0.49133747816E+03  0.00000000000E+00 0. -1.
         24    2    1    2    0    0  0.10112350281E+02  0.46904046248E+02 -0.22067678388E+03  0.23998624102E+03  0.81196697912E+02 0.  0.
         25    2    1    2    0    0 -0.56902796075E+02 -0.36734557439E+02 -0.23917119119E+03  0.27827592710E+03  0.12508907626E+03 0.  0.
        -24    2    1    2    0    0  0.46790445794E+02 -0.10169488808E+02  0.93247058872E+03  0.93703540185E+03  0.79001146574E+02 0.  0.
        -11    1    3    3    0    0 -0.28054889584E+02  0.23987756730E+02 -0.42312451229E+02  0.56150091999E+02  0.00000000000E+00 0.  1.
         12    1    3    3    0    0  0.38167239865E+02  0.22916289518E+02 -0.17836433265E+03  0.18383614902E+03  0.00000000000E+00 0. -1.
         11    1    5    5    0    0 -0.22412008584E+02 -0.50664050692E+01  0.22563455290E+03  0.22680149481E+03  0.00000000000E+00 0. -1.
        -12    1    5    5    0    0  0.69202454378E+02 -0.51030837391E+01  0.70683603583E+03  0.71023390703E+03  0.00000000000E+00 0.  1.
          5    1    4    4  501    0 -0.20003249039E+02  0.87382968665E+01  0.84595210999E+01  0.23780742240E+02  0.41800000000E+01 0.  1.
         -5    1    4    4    0  501 -0.36899547035E+02 -0.45472854306E+02 -0.24763071229E+03  0.25449518486E+03  0.41800000000E+01 0.  1.
</event>
<event>
11    1  0.6625361E-009  0.1863490E+03  0.7561462E-02  0.1064620E+00
         22   -1    0    0    0    0  0.00000000000E+00  0.00000000000E+00  0.29681605022E+04  0.29681605022E+04  0.00000000000E+00 0.  1.
         22   -1    0    0    0    0 -0.00000000000E+00 -0.00000000000E+00 -0.24707917080E+03  0.24707917080E+03  0.00000000000E+00 0.  1.
        -24    2    1    2    0    0  0.42879640710E+02  0.21090039589E+02 -0.18572111194E+03  0.20830959512E+03  0.81345575420E+02 0.  0.
         25    2    1    2    0    0 -0.13801480969E+03  0.78113464623E+02  0.16571506947E+03  0.26126361671E+03  0.12508953640E+03 0.  0.
         24    2    1    2    0    0  0.95135168978E+02 -0.99203504211E+02  0.27410873739E+04  0.27456664612E+04  0.78944849230E+02 0.  0.
        -11    1    5    5    0    0  0.38085570926E+02 -0.89437716094E+02  0.19779687705E+04  0.19803560470E+04  0.00000000000E+00 0.  1.
         12    1    5    5    0    0  0.57049598053E+02 -0.97657881179E+01  0.76311860335E+03  0.76531041417E+03  0.00000000000E+00 0. -1.
         13    1    3    3    0    0 -0.83674713482E+01  0.17857963846E+02 -0.48748113094E+01  0.20314655665E+02  0.00000000000E+00 0. -1.
        -14    1    3    3    0    0  0.51247112058E+02  0.32320757424E+01 -0.18084630063E+03  0.18799493945E+03  0.00000000000E+00 0.  1.
          5    1    4    4  501    0 -0.52081763519E+02  0.14518610416E+02  0.14154864440E+03  0.15158097266E+03  0.41800000000E+01 0.  1.
         -5    1    4    4    0  501 -0.85933046169E+02  0.63594854207E+02  0.24166425067E+02  0.10968264405E+03  0.41800000000E+01 0.  1.
</event>
<event>
11    1  0.6625361E-009  0.1348007E+03  0.7561462E-02  0.1113507E+00
         22   -1    0    0    0    0  0.00000000000E+00  0.00000000000E+00  0.93132576793E+03  0.93132576793E+03  0.00000000000E+00 0. -1.
         22   -1    0    0    0    0 -0.00000000000E+00 -0.00000000000E+00 -0.12717231096E+03  0.12717231096E+03  0.00000000000E+00 0. -1.
        -24    2    1    2    0    0 -0.32471583137E+02  0.37861111702E+02 -0.90737624949E+02  0.13213458787E+03  0.82087546195E+02 0.  0.
         25    2    1    2    0    0  0.70260323520E+02 -0.15904324569E+02  0.48857221929E+03  0.50945174250E+03  0.12509517928E+03 0.  0.
         24    2    1    2    0    0 -0.37788740383E+02 -0.21956787133E+02  0.40631886264E+03  0.41691174851E+03  0.82524532788E+02 0.  0.
        -11    1    5    5    0    0 -0.31608555853E+02  0.24957927216E+02  0.11673348662E+03  0.12348565031E+03  0.00000000000E+00 0.  1.
         12    1    5    5    0    0 -0.61801845307E+01 -0.46914714349E+02  0.28958537602E+03  0.29342609820E+03  0.00000000000E+00 0. -1.
         13    1    3    3    0    0  0.19167261742E+02  0.33660680509E+02 -0.61394390784E+02  0.72592675628E+02  0.00000000000E+00 0. -1.
        -14    1    3    3    0    0 -0.51638844879E+02  0.42004311931E+01 -0.29343234165E+02  0.59541912246E+02  0.00000000000E+00 0.  1.
          5    1    4    4  501    0 -0.10063473858E+02  0.31434742678E+02  0.43854538829E+02  0.55046430668E+02  0.41800000000E+01 0. -1.
         -5    1    4    4    0  501  0.80323797379E+02 -0.47339067247E+02  0.44471768046E+03  0.45440531184E+03  0.41800000000E+01 0. -1.
</event>
<event>
11    1  0.6625361E-009  0.1387303E+03  0.7561462E-02  0.1108985E+00
         22   -1    0    0    0    0  0.00000000000E+00  0.00000000000E+00  0.18024654324E+03  0.18024654324E+03  0.00000000000E+00 0. -1.
         22   -1    0    0    0    0 -0.00000000000E+00 -0.00000000000E+00 -0.87132604714E+03  0.87132604714E+03  0.00000000000E+00 0.  1.
         24    2    1    2    0    0 -0.60888337532E+02  0.65860527200E+01 -0.79134951585E+03  0.79771641413E+03  0.79791324057E+02 0.  0.
         25    2    1    2    0    0  0.31182591370E+02  0.30798533639E+02  0.26738522272E+02  0.13521608062E+03  0.12509011235E+03 0.  0.
        -24    2    1    2    0    0  0.29705746162E+02 -0.37384586359E+02  0.73531489676E+02  0.11864009564E+03  0.79928428402E+02 0.  0.
        -11    1    3    3    0    0 -0.41440301127E+02 -0.98325513611E+01 -0.73073478168E+03  0.73197493043E+03  0.00000000000E+00 0.  1.
         12    1    3    3    0    0 -0.19448036405E+02  0.16418604081E+02 -0.60614734166E+02  0.65741483692E+02  0.00000000000E+00 0. -1.
         11    1    5    5    0    0  0.12189455983E+02 -0.48853956446E+02  0.81861040283E+02  0.96106825012E+02  0.00000000000E+00 0. -1.
        -12    1    5    5    0    0  0.17516290179E+02  0.11469370087E+02 -0.83295506071E+01  0.22533270627E+02  0.00000000000E+00 0.  1.
          5    1    4    4  501    0 -0.33471252811E+02 -0.28913740584E+02  0.81883255509E+01  0.45175770437E+02  0.41800000000E+01 0. -1.
         -5    1    4    4    0  501  0.64653844181E+02  0.59712274223E+02  0.18550196721E+02  0.90040310188E+02  0.41800000000E+01 0. -1.
</event>
<event>
11    1  0.6625361E-009  0.1327542E+03  0.7561462E-02  0.1115930E+00
         22   -1    0    0    0    0  0.00000000000E+00  0.00000000000E+00  0.73483770789E+03  0.73483770789E+03  0.00000000000E+00 0.  1.
         22   -1    0    0    0    0 -0.00000000000E+00 -0.00000000000E+00 -0.34174365144E+03  0.34174365144E+03  0.00000000000E+00 0. -1.
         24    2    1    2    0    0  0.10460034350E+02  0.43328450769E+02 -0.31835374002E+03  0.33162152767E+03  0.81467581667E+02 0.  0.
         25    2    1    2    0    0  0.32658331132E+01 -0.39692086558E+02  0.33511368553E+03  0.35991031962E+03  0.12509247992E+03 0.  0.
        -24    2    1    2    0    0 -0.13725867463E+02 -0.36363642102E+01  0.37633411094E+03  0.38504951205E+03  0.80213098001E+02 0.  0.
        -13    1    3    3    0    0 -0.95107358609E+01 -0.21833821068E+02 -0.10408565639E+03  0.10677543587E+03  0.00000000000E+00 0.  1.
         14    1    3    3    0    0  0.19970770211E+02  0.65162271837E+02 -0.21426808363E+03  0.22484609179E+03  0.00000000000E+00 0. -1.
         11    1    5    5    0    0 -0.37736039490E+01 -0.41423045220E+02  0.22066984828E+03  0.22455576301E+03  0.00000000000E+00 0. -1.
        -12    1    5    5    0    0 -0.99522635141E+01  0.37786681010E+02  0.15566426266E+03  0.16049374904E+03  0.00000000000E+00 0.  1.
          5    1    4    4  501    0  0.58204355347E+02 -0.23082981079E+02  0.10166146692E+03  0.11947006844E+03  0.41800000000E+01 0.  1.
         -5    1    4    4    0  501 -0.54938522234E+02 -0.16609105479E+02  0.23345221862E+03  0.24044025118E+03  0.41800000000E+01 0.  1.
</event>
<event>
11    1  0.6625361E-009  0.1278608E+03  0.7561462E-02  0.1121926E+00
         22   -1    0    0    0    0  0.00000000000E+00  0.00000000000E+00  0.40096179140E+03  0.40096179140E+03  0.00000000000E+00 0. -1.
         22   -1    0    0    0    0 -0.00000000000E+00 -0.00000000000E+00 -0.12248258981E+04  0.12248258981E+04  0.00000000000E+00 0. -1.
         24    2    1    2    0    0 -0.26265653920E+02 -0.60380313836E+01 -0.11459224649E+04  0.11493318510E+04  0.84255954643E+02 0.  0.
         25    2    1    2    0    0  0.61111209521E+01  0.17885588665E+02 -0.16389211751E+02  0.12757207943E+03  0.12509512024E+03 0.  0.
        -24    2    1    2    0    0  0.20154532968E+02 -0.11847557281E+02  0.33844756993E+03  0.34888375902E+03  0.81403623408E+02 0.  0.
        -11    1    3    3    0    0  0.21759703450E+02  0.41066333597E+01 -0.10786467481E+03  0.11011420074E+03  0.00000000000E+00 0.  1.
         12    1    3    3    0    0 -0.48025357370E+02 -0.10144664743E+02 -0.10380577901E+04  0.10392176503E+04  0.00000000000E+00 0. -1.
         11    1    5    5    0    0 -0.16979942091E+02 -0.34134472623E+02  0.20711068744E+03  0.21059040222E+03  0.00000000000E+00 0. -1.
        -12    1    5    5    0    0  0.37134475059E+02  0.22286915342E+02  0.13133688249E+03  0.13829335680E+03  0.00000000000E+00 0.  1.
          5    1    4    4  501    0  0.50702918151E+02 -0.31211548439E+02 -0.12642910989E+02  0.61010345543E+02  0.41800000000E+01 0. -1.
         -5    1    4    4    0  501 -0.44591797199E+02  0.49097137104E+02 -0.37463007621E+01  0.66561733891E+02  0.41800000000E+01 0. -1.
</event>
<event>
11    1  0.6625361E-009  0.1988742E+03  0.7561462E-02  0.1055323E+00
         22   -1    0    0    0    0  0.00000000000E+00  0.00000000000E+00  0.24946429367E+04  0.24946429367E+04  0.00000000000E+00 0.  1.
         22   -1    0    0    0    0 -0.00000000000E+00 -0.00000000000E+00 -0.11117542055E+03  0.11117542055E+03  0.00000000000E+00 0. -1.
         24    2    1    2    0    0 -0.66296347192E+02 -0.16887522938E+02 -0.49114499389E+01  0.10594802173E+03  0.80749407958E+02 0.  0.
         25    2    1    2    0    0  0.12669334738E+03  0.15639153826E+03  0.21588234882E+03  0.32056561546E+03  0.12509039840E+03 0.  0.
        -24    2    1    2    0    0 -0.60397000186E+02 -0.13950401533E+03  0.21724966173E+04  0.21793047201E+04  0.80736255398E+02 0.  0.
        -13    1    3    3    0    0 -0.56632698636E+02 -0.12686074302E+02  0.32888206556E+02  0.66707069839E+02  0.00000000000E+00 0.  1.
         14    1    3    3    0    0 -0.96636485552E+01 -0.42014486357E+01 -0.37799656495E+02  0.39240951889E+02  0.00000000000E+00 0. -1.
         13    1    5    5    0    0 -0.41929786903E+02 -0.32641972482E+02  0.40300735569E+03  0.40649542941E+03  0.00000000000E+00 0. -1.
        -14    1    5    5    0    0 -0.18467213283E+02 -0.10686204284E+03  0.17694892616E+04  0.17728092907E+04  0.00000000000E+00 0.  1.
          5    1    4    4  501    0 -0.20406577133E+02  0.25983941310E+02  0.76509044873E+01  0.34170196601E+02  0.41800000000E+01 0.  1.
         -5    1    4    4    0  501  0.14709992451E+03  0.13040759695E+03  0.20823144433E+03  0.28639541886E+03  0.41800000000E+01 0.  1.
</event>
<event>
11    1  0.6625361E-009  0.1415422E+03  0.7561462E-02  0.1105848E+00
         22   -1    0    0    0    0  0.00000000000E+00  0.00000000000E+00  0.79875778074E+02  0.79875778074E+02  0.00000000000E+00 0.  1.
         22   -1    0    0    0    0 -0.00000000000E+00 -0.00000000000E+00 -0.81691736441E+03  0.81691736441E+03  0.00000000000E+00 0. -1.
         24    2    1    2    0    0 -0.74678911600E+02  0.45858017378E+01 -0.59513356068E+03  0.60471598761E+03  0.76808210512E+02 0.  0.
         25    2    1    2    0    0  0.26028006323E+02 -0.42569630839E+01 -0.15905059905E+03  0.20404009388E+03  0.12505873821E+03 0.  0.
        -24    2    1    2    0    0  0.48650905277E+02 -0.32883865394E+00  0.17142573399E+02  0.88037060998E+02  0.71341695854E+02 0.  0.
        -13    1    3    3    0    0 -0.39572748831E+02  0.34698416512E+02 -0.19716085855E+03  0.20406466304E+03  0.00000000000E+00 0.  1.
         14    1    3    3    0    0 -0.35106162768E+02 -0.30112614774E+02 -0.39797270213E+03  0.40065132457E+03  0.00000000000E+00 0. -1.
         11    1    5    5    0    0  0.58270003462E+02  0.11575224166E+02 -0.66158747487E+01  0.59775822174E+02  0.00000000000E+00 0. -1.
        -12    1    5    5    0    0 -0.96190981845E+01 -0.11904062820E+02  0.23758448147E+02  0.28261238824E+02  0.00000000000E+00 0.  1.
          5    1    4    4  501    0 -0.96935427135E+00 -0.60426691960E+02 -0.10600547613E+03  0.12209405440E+03  0.41800000000E+01 0.  1.
         -5    1    4    4    0  501  0.26997360594E+02  0.56169728876E+02 -0.53045122921E+02  0.81946039482E+02  0.41800000000E+01 0.  1.
</event>
<event>
11    1  0.6625361E-009  0.1909958E+03  0.7561462E-02  0.1061080E+00
         22   -1    0    0    0    0  0.00000000000E+00  0.00000000000E+00  0.16453948628E+04  0.16453948628E+04  0.00000000000E+00 0. -1.
         22   -1    0    0    0    0 -0.00000000000E+00 -0.00000000000E+00 -0.57733385101E+03  0.57733385101E+03  0.00000000000E+00 0. -1.
        -24    2    1    2    0    0  0.14341201607E+02  0.15189422610E+03 -0.36642683326E+03  0.40463615622E+03  0.78640122091E+02 0.  0.
         25    2    1    2    0    0  0.16767263925E+02 -0.12737777016E+03 -0.14830864410E+03  0.23270231562E+03  0.12509466938E+03 0.  0.
         24    2    1    2    0    0 -0.31108465532E+02 -0.24516455939E+02  0.15827964891E+04  0.15853902419E+04  0.81539560985E+02 0.  0.
        -13    1    5    5    0    0 -0.39634926641E+02 -0.39740026085E+02  0.64666598406E+03  0.64909713604E+03  0.00000000000E+00 0.  1.
         14    1    5    5    0    0  0.85264611092E+01  0.15223570146E+02  0.93613050505E+03  0.93629310588E+03  0.00000000000E+00 0. -1.
         11    1    3    3    0    0  0.33304267302E+02  0.14864550949E+03 -0.32897225688E+03  0.36252918160E+03  0.00000000000E+00 0. -1.
        -12    1    3    3    0    0 -0.18963065696E+02  0.32487166078E+01 -0.37454576382E+02  0.42106974626E+02  0.00000000000E+00 0.  1.
          5    1    4    4  501    0  0.23092475506E+02 -0.99058098410E+02 -0.16866897421E+03  0.19700879307E+03  0.41800000000E+01 0.  1.
         -5    1    4    4    0  501 -0.63252115806E+01 -0.28319671754E+02  0.20360330110E+02  0.35693522550E+02  0.41800000000E+01 0.  1.
</event>
<event>
11    1  0.6625361E-009  0.1636067E+03  0.7561462E-02  0.1083733E+00
         22   -1    0    0    0    0  0.00000000000E+00  0.00000000000E+00  0.78271492255E+02  0.78271492255E+02  0.00000000000E+00 0. -1.
         22   -1    0    0    0    0 -0.00000000000E+00 -0.00000000000E+00 -0.27925267428E+04  0.27925267428E+04  0.00000000000E+00 0. -1.
         24    2    1    2    0    0 -0.28025967504E+01 -0.30505068807E+02 -0.23707561090E+04  0.23723087962E+04  0.80162850816E+02 0.  0.
         25    2    1    2    0    0 -0.98557815906E+02 -0.58629895603E+01 -0.32577710432E+03  0.36266563334E+03  0.12509045602E+03 0.  0.
        -24    2    1    2    0    0  0.10136041266E+03  0.36368058367E+02 -0.17722037288E+02  0.13582380552E+03  0.80854601706E+02 0.  0.
        -13    1    3    3    0    0  0.10215157089E+02 -0.27800729392E+02 -0.28967692154E+03  0.29118713719E+03  0.00000000000E+00 0.  1.
         14    1    3    3    0    0 -0.13017753839E+02 -0.27043394154E+01 -0.20810791874E+04  0.20811216590E+04  0.00000000000E+00 0. -1.
         13    1    5    5    0    0  0.90257420866E+02 -0.63632446078E+01 -0.10540463178E+02  0.91093327238E+02  0.00000000000E+00 0. -1.
        -14    1    5    5    0    0  0.11102991791E+02  0.42731302975E+02 -0.71815741096E+01  0.44730478282E+02  0.00000000000E+00 0.  1.
          5    1    4    4  501    0 -0.12535927938E+03 -0.20490721366E+02 -0.27984850860E+03  0.30735562261E+03  0.41800000000E+01 0.  1.
         -5    1    4    4    0  501  0.26801463471E+02  0.14627731806E+02 -0.45928595720E+02  0.55310010729E+02  0.41800000000E+01 0.  1.
</event>
<event>
11    1  0.6625361E-009  0.1361315E+03  0.7561462E-02  0.1111957E+00
         22   -1    0    0    0    0  0.00000000000E+00  0.00000000000E+00  0.53051609141E+03  0.53051609141E+03  0.00000000000E+00 0.  1.
         22   -1    0    0    0    0 -0.00000000000E+00 -0.00000000000E+00 -0.32216689032E+03  0.32216689032E+03  0.00000000000E+00 0. -1.
        -24    2    1    2    0    0 -0.88231313407E+01  0.57931347321E+02 -0.24483212267E+03  0.26188642568E+03  0.72165386542E+02 0.  0.
         25    2    1    2    0    0  0.28865970377E+02 -0.10282372888E+03  0.43594132328E+02  0.17015516225E+03  0.12508544041E+03 0.  0.
         24    2    1    2    0    0 -0.20042839036E+02  0.44892381560E+02  0.40958719143E+03  0.42064139379E+03  0.82222098429E+02 0.  0.
        -13    1    5    5    0    0  0.58106825355E+01 -0.12547551926E+02  0.22838015563E+03  0.22879838412E+03  0.00000000000E+00 0.  1.
         14    1    5    5    0    0 -0.25853521572E+02  0.57439933486E+02  0.18120703580E+03  0.19184300967E+03  0.00000000000E+00 0. -1.
         11    1    3    3    0    0 -0.95067913289E+01  0.67557464319E+02 -0.24256065219E+03  0.25197233986E+03  0.00000000000E+00 0. -1.
        -12    1    3    3    0    0  0.68365998818E+00 -0.96261169984E+01 -0.22714704853E+01  0.99140858183E+01  0.00000000000E+00 0.  1.
          5    1    4    4  501    0  0.59524882420E+02 -0.10369725724E+03  0.37492435852E+01  0.11969904768E+03  0.41800000000E+01 0.  1.
         -5    1    4    4    0  501 -0.30658912043E+02  0.87352836314E+00  0.39844888743E+02  0.50456114579E+02  0.41800000000E+01 0.  1.
</event>
<event>
11    1  0.6625361E-009  0.1457501E+03  0.7561462E-02  0.1101302E+00
         22   -1    0    0    0    0  0.00000000000E+00  0.00000000000E+00  0.30864698914E+03  0.30864698914E+03  0.00000000000E+00 0.  1.
         22   -1    0    0    0    0 -0.00000000000E+00 -0.00000000000E+00 -0.30282532710E+04  0.30282532710E+04  0.00000000000E+00 0.  1.
         24    2    1    2    0    0 -0.17239368317E+02 -0.58515222777E+02 -0.28545319641E+04  0.28563260419E+04  0.80774356294E+02 0.  0.
         25    2    1    2    0    0  0.17254491824E+02  0.12955138531E+03 -0.11112878658E+03  0.21231683986E+03  0.12509018489E+03 0.  0.
        -24    2    1    2    0    0 -0.15123506585E-01 -0.71036162536E+02  0.24605446881E+03  0.26825737837E+03  0.79831590327E+02 0.  0.
        -13    1    3    3    0    0 -0.26855369390E+02 -0.69220629157E+02 -0.27224942205E+04  0.27235064691E+04  0.00000000000E+00 0.  1.
         14    1    3    3    0    0  0.96160010731E+01  0.10705406380E+02 -0.13203774355E+03  0.13281957282E+03  0.00000000000E+00 0. -1.
         11    1    5    5    0    0  0.12256216303E+02 -0.83004409725E+01  0.81653632875E+00  0.14824941483E+02  0.00000000000E+00 0. -1.
        -12    1    5    5    0    0 -0.12271339810E+02 -0.62735721564E+02  0.24523793248E+03  0.25343243689E+03  0.00000000000E+00 0.  1.
          5    1    4    4  501    0  0.27276788899E+02 -0.16131944166E+02 -0.64807197552E+01  0.32614950003E+02  0.41800000000E+01 0.  1.
         -5    1    4    4    0  501 -0.10022297075E+02  0.14568332948E+03 -0.10464806683E+03  0.17970188986E+03  0.41800000000E+01 0.  1.
</event>
<event>
11    1  0.6625361E-009  0.1467678E+03  0.7561462E-02  0.1100228E+00
         22   -1    0    0    0    0  0.00000000000E+00  0.00000000000E+00  0.58327055898E+03  0.58327055898E+03  0.00000000000E+00 0.  1.
         22   -1    0    0    0    0 -0.00000000000E+00 -0.00000000000E+00 -0.23829982061E+04  0.23829982061E+04  0.00000000000E+00 0.  1.
         24    2    1    2    0    0  0.68989464493E+02  0.29112517251E+02 -0.19583707333E+04  0.19614201024E+04  0.79660555208E+02 0.  0.
         25    2    1    2    0    0 -0.95675586443E+02 -0.17108612314E+02 -0.40489680873E+03  0.43478515194E+03  0.12510068016E+03 0.  0.
        -24    2    1    2    0    0  0.26686121950E+02 -0.12003904937E+02  0.56353989493E+03  0.57006351075E+03  0.80863776014E+02 0.  0.
        -13    1    3    3    0    0  0.65076868844E+02 -0.66963802203E+01 -0.15757518857E+04  0.15771093322E+04  0.00000000000E+00 0.  1.
         14    1    3    3    0    0  0.39125956497E+01  0.35808897471E+02 -0.38261884762E+03  0.38431077021E+03  0.00000000000E+00 0. -1.
         13    1    5    5    0    0 -0.11507311588E+01 -0.43647059272E+02  0.26788025140E+03  0.27141521522E+03  0.00000000000E+00 0. -1.
        -14    1    5    5    0    0  0.27836853109E+02  0.31643154335E+02  0.29565964353E+03  0.29864829553E+03  0.00000000000E+00 0.  1.
          5    1    4    4  501    0 -0.10338860345E+03 -0.45924243318E+02 -0.37735528361E+03  0.39397045818E+03  0.41800000000E+01 0. -1.
         -5    1    4    4    0  501  0.77130170069E+01  0.28815631004E+02 -0.27541525116E+02  0.40814693766E+02  0.41800000000E+01 0. -1.
</event>
<event>
11    1  0.6625361E-009  0.1386248E+03  0.7561462E-02  0.1109104E+00
         22   -1    0    0    0    0  0.00000000000E+00  0.00000000000E+00  0.76852927412E+03  0.76852927412E+03  0.00000000000E+00 0. -1.
         22   -1    0    0    0    0 -0.00000000000E+00 -0.00000000000E+00 -0.10726100799E+03  0.10726100799E+03  0.00000000000E+00 0. -1.
        -24    2    1    2    0    0 -0.37047461329E+02 -0.49991556819E+02 -0.54056054578E+02  0.11796981789E+03  0.84398760373E+02 0.  0.
         25    2    1    2    0    0  0.54221750654E+02  0.48427138678E+01  0.27014620598E+03  0.30263753485E+03  0.12508818799E+03 0.  0.
         24    2    1    2    0    0 -0.17174289326E+02  0.45148842951E+02  0.44517811472E+03  0.45518292936E+03  0.81698048468E+02 0.  0.
        -11    1    5    5    0    0  0.29835025306E+02  0.30508846718E+02  0.15103166985E+03  0.15694420588E+03  0.00000000000E+00 0.  1.
         12    1    5    5    0    0 -0.47009314632E+02  0.14639996233E+02  0.29414644487E+03  0.29823872348E+03  0.00000000000E+00 0. -1.
         11    1    3    3    0    0 -0.35803085140E+02 -0.53157772624E+02 -0.73909206737E+02  0.97827299545E+02  0.00000000000E+00 0. -1.
        -12    1    3    3    0    0 -0.12443761884E+01  0.31662158049E+01  0.19853152159E+02  0.20142518345E+02  0.00000000000E+00 0.  1.
          5    1    4    4  501    0  0.11643053316E+01  0.35672601193E+02  0.12963474256E+02  0.38202279350E+02  0.41800000000E+01 0. -1.
         -5    1    4    4    0  501  0.53057445323E+02 -0.30829887325E+02  0.25718273172E+03  0.26443525550E+03  0.41800000000E+01 0. -1.
</event>
<event>
11    1  0.6625361E-009  0.1357583E+03  0.7561462E-02  0.1112390E+00
         22   -1    0    0    0    0  0.00000000000E+00  0.00000000000E+00  0.54147752257E+02  0.54147752257E+02  0.00000000000E+00 0.  1.
         22   -1    0    0    0    0 -0.00000000000E+00 -0.00000000000E+00 -0.28633509624E+04  0.28633509624E+04  0.00000000000E+00 0. -1.
         24    2    1    2    0    0 -0.29462847917E+02 -0.42683945937E+02 -0.25721376681E+04  0.25738590182E+04  0.78537144119E+02 0.  0.
         25    2    1    2    0    0  0.20334512173E+02  0.87248653851E+02 -0.16871355026E+03  0.22833553840E+03  0.12508811324E+03 0.  0.
        -24    2    1    2    0    0  0.91283357439E+01 -0.44564707914E+02 -0.68351991770E+02  0.11530415809E+03  0.80955014598E+02 0.  0.
        -13    1    3    3    0    0 -0.31566148139E+01 -0.44966917903E+02 -0.65935096951E+03  0.66089007325E+03  0.00000000000E+00 0.  1.
         14    1    3    3    0    0 -0.26306233103E+02  0.22829719658E+01 -0.19127866986E+04  0.19129689449E+04  0.00000000000E+00 0. -1.
         11    1    5    5    0    0 -0.66437065332E+01  0.14243983456E+02 -0.48933433726E+02  0.51395630529E+02  0.00000000000E+00 0. -1.
        -12    1    5    5    0    0  0.15772042277E+02 -0.58808691370E+02 -0.19418558043E+02  0.63908527559E+02  0.00000000000E+00 0.  1.
          5    1    4    4  501    0  0.48866831158E+02 -0.11297838402E+02 -0.67090623778E+02  0.83870331697E+02  0.41800000000E+01 0. -1.
         -5    1    4    4    0  501 -0.28532318986E+02  0.98546492254E+02 -0.10162292648E+03  0.14446520670E+03  0.41800000000E+01 0. -1.
</event>
<event>
11    1  0.6625361E-009  0.1742863E+03  0.7561462E-02  0.1074361E+00
         22   -1    0    0    0    0  0.00000000000E+00  0.00000000000E+00  0.84351389389E+03  0.84351389389E+03  0.00000000000E+00 0.  1.
         22   -1    0    0    0    0 -0.00000000000E+00 -0.00000000000E+00 -0.54390264394E+03  0.54390264394E+03  0.00000000000E+00 0. -1.
        -24    2    1    2    0    0  0.58507157727E+02 -0.49718391213E+02 -0.46332183493E+03  0.47556918687E+03  0.74859353764E+02 0.  0.
         25    2    1    2    0    0 -0.17220069176E+03  0.64722098487E+02  0.11828823505E+03  0.25195611490E+03  0.12509096294E+03 0.  0.
         24    2    1    2    0    0  0.11369353403E+03 -0.15003707274E+02  0.64464484983E+03  0.65989123607E+03  0.82086114036E+02 0.  0.
        -11    1    5    5    0    0  0.33121435342E+02 -0.44233379099E+02  0.26217196616E+03  0.26793238167E+03  0.00000000000E+00 0.  1.
         12    1    5    5    0    0  0.80572098688E+02  0.29229671825E+02  0.38247288367E+03  0.39195885440E+03  0.00000000000E+00 0. -1.
         13    1    3    3    0    0  0.34694359806E+02 -0.61714353914E+02 -0.40870066488E+03  0.41478740766E+03  0.00000000000E+00 0. -1.
        -14    1    3    3    0    0  0.23812797921E+02  0.11995962701E+02 -0.54621170052E+02  0.60781779209E+02  0.00000000000E+00 0.  1.
          5    1    4    4  501    0 -0.16263476171E+03  0.93752747580E+02  0.83613823617E+02  0.20554412494E+03  0.41800000000E+01 0.  1.
         -5    1    4    4    0  501 -0.95659300461E+01 -0.29030649093E+02  0.34674411429E+02  0.46411989963E+02  0.41800000000E+01 0.  1.
</event>
<event>
11    1  0.6625361E-009  0.1618371E+03  0.7561462E-02  0.1085362E+00
         22   -1    0    0    0    0  0.00000000000E+00  0.00000000000E+00  0.28080064671E+04  0.28080064671E+04  0.00000000000E+00 0.  1.
         22   -1    0    0    0    0 -0.00000000000E+00 -0.00000000000E+00 -0.15334566886E+03  0.15334566886E+03  0.00000000000E+00 0. -1.
         24    2    1    2    0    0  0.47626890272E+02 -0.21063810231E+02 -0.92346514527E+02  0.13385804487E+03  0.81719597729E+02 0.  0.
         25    2    1    2    0    0 -0.12874585150E+03 -0.40200997812E+02  0.18032667764E+03  0.25759857970E+03  0.12509077940E+03 0.  0.
        -24    2    1    2    0    0  0.81118961231E+02  0.61264808043E+02  0.25666806351E+04  0.25698955114E+04  0.78611666642E+02 0.  0.
        -11    1    3    3    0    0  0.24417010235E+02  0.31115278736E+02 -0.42481021497E+02  0.58042985339E+02  0.00000000000E+00 0.  1.
         12    1    3    3    0    0  0.23209880037E+02 -0.52179088967E+02 -0.49865493030E+02  0.75815059532E+02  0.00000000000E+00 0. -1.
         11    1    5    5    0    0  0.77545552523E+01 -0.16283425419E+02  0.20102053303E+03  0.20182799055E+03  0.00000000000E+00 0. -1.
        -12    1    5    5    0    0  0.73364405979E+02  0.77548233462E+02  0.23656601021E+04  0.23680675208E+04  0.00000000000E+00 0.  1.
          5    1    4    4  501    0 -0.75457449602E+02 -0.79868605883E+02  0.75345719348E+02  0.13329392608E+03  0.41800000000E+01 0.  1.
         -5    1    4    4    0  501 -0.53288401901E+02  0.39667608071E+02  0.10498095829E+03  0.12430465362E+03  0.41800000000E+01 0.  1.
</event>
<event>
11    1  0.6625361E-009  0.2239977E+03  0.7561462E-02  0.1038742E+00
         22   -1    0    0    0    0  0.00000000000E+00  0.00000000000E+00  0.43897692391E+03  0.43897692391E+03  0.00000000000E+00 0.  1.
         22   -1    0    0    0    0 -0.00000000000E+00 -0.00000000000E+00 -0.14859369101E+04  0.14859369101E+04  0.00000000000E+00 0. -1.
        -24    2    1    2    0    0  0.54474441742E+02 -0.58395672542E+01 -0.12822441332E+04  0.12860601634E+04  0.82457027426E+02 0.  0.
         25    2    1    2    0    0 -0.21126600114E+02  0.18905341311E+03 -0.97673253733E+02  0.24774188972E+03  0.12509377757E+03 0.  0.
         24    2    1    2    0    0 -0.33347841628E+02 -0.18321384585E+03  0.33295740075E+03  0.39111178089E+03  0.86188181231E+02 0.  0.
        -13    1    5    5    0    0 -0.60300996472E+02 -0.11762775133E+03  0.24237383902E+03  0.27607530838E+03  0.00000000000E+00 0.  1.
         14    1    5    5    0    0  0.26953154845E+02 -0.65586094528E+02  0.90583561734E+02  0.11503647251E+03  0.00000000000E+00 0. -1.
         11    1    3    3    0    0  0.45193611538E+02  0.23118002836E+02 -0.11094529130E+04  0.11106136460E+04  0.00000000000E+00 0. -1.
        -12    1    3    3    0    0  0.92808302037E+01 -0.28957570090E+02 -0.17279122022E+03  0.17544651738E+03  0.00000000000E+00 0.  1.
          5    1    4    4  501    0  0.11809876346E+02 -0.14993487569E+02 -0.11066675114E+01  0.19569746084E+02  0.41800000000E+01 0.  1.
         -5    1    4    4    0  501 -0.32936476460E+02  0.20404690068E+03 -0.96566586222E+02  0.22817214364E+03  0.41800000000E+01 0.  1.
</event>
<event>
11    1  0.6625361E-009  0.1833966E+03  0.7561462E-02  0.1066928E+00
         22   -1    0    0    0    0  0.00000000000E+00  0.00000000000E+00  0.29589845420E+04  0.29589845420E+04  0.00000000000E+00 0. -1.
         22   -1    0    0    0    0 -0.00000000000E+00 -0.00000000000E+00 -0.24538201505E+03  0.24538201505E+03  0.00000000000E+00 0.  1.
         24    2    1    2    0    0  0.68409970585E+01  0.64288157999E+02 -0.21757561361E+03  0.23999826844E+03  0.77975988067E+02 0.  0.
         25    2    1    2    0    0 -0.13170330556E+02  0.80054818817E+02  0.38587470759E+03  0.41367756735E+03  0.12509039991E+03 0.  0.
        -24    2    1    2    0    0  0.63293334972E+01 -0.14434297682E+03  0.25453034329E+04  0.25506907212E+04  0.81108780054E+02 0.  0.
        -13    1    3    3    0    0  0.23108722389E+02  0.48972709848E+02 -0.20926843412E+03  0.21616109011E+03  0.00000000000E+00 0.  1.
         14    1    3    3    0    0 -0.16267725330E+02  0.15315448151E+02 -0.83071794968E+01  0.23837178328E+02  0.00000000000E+00 0. -1.
         11    1    5    5    0    0 -0.28169437649E+02 -0.11957712534E+03  0.18138681681E+04  0.18180236350E+04  0.00000000000E+00 0. -1.
        -12    1    5    5    0    0  0.34498771146E+02 -0.24765851476E+02  0.73143526482E+03  0.73266708622E+03  0.00000000000E+00 0.  1.
          5    1    4    4  501    0  0.18093951444E+02 -0.66958461250E+01  0.24157054959E+03  0.24237579967E+03  0.41800000000E+01 0.  1.
         -5    1    4    4    0  501 -0.31264281999E+02  0.86750664942E+02  0.14430415800E+03  0.17130176769E+03  0.41800000000E+01 0.  1.
</event>
<event>
11    1  0.6625361E-009  0.1316383E+03  0.7561462E-02  0.1117272E+00
         22   -1    0    0    0    0  0.00000000000E+00  0.00000000000E+00  0.95820749191E+02  0.95820749191E+02  0.00000000000E+00 0.  1.
         22   -1    0    0    0    0 -0.00000000000E+00 -0.00000000000E+00 -0.77211959366E+03  0.77211959366E+03  0.00000000000E+00 0. -1.
         24    2    1    2    0    0  0.30082276153E+02  0.27368853985E+01 -0.36228574642E+03  0.37266379997E+03  0.81944565794E+02 0.  0.
         25    2    1    2    0    0 -0.11851085296E+02  0.35328647266E+02 -0.36194999792E+03  0.38475851837E+03  0.12507099954E+03 0.  0.
        -24    2    1    2    0    0 -0.18231190858E+02 -0.38065532665E+02  0.47936899870E+02  0.11051802452E+03  0.90193826157E+02 0.  0.
        -13    1    3    3    0    0  0.17068676462E+02  0.24081281132E+02 -0.41615250117E+02  0.51020357304E+02  0.00000000000E+00 0.  1.
         14    1    3    3    0    0  0.13013599691E+02 -0.21344395733E+02 -0.32067049631E+03  0.32164344266E+03  0.00000000000E+00 0. -1.
         13    1    5    5    0    0 -0.30921227053E+02 -0.25563440366E+01 -0.17035452911E+02  0.35395816605E+02  0.00000000000E+00 0. -1.
        -14    1    5    5    0    0  0.12690036195E+02 -0.35509188628E+02  0.64972352781E+02  0.75122207912E+02  0.00000000000E+00 0.  1.
          5    1    4    4  501    0 -0.55469149529E+02  0.65954919986E+00 -0.80727689926E+02  0.98039246608E+02  0.41800000000E+01 0. -1.
         -5    1    4    4    0  501  0.43618064234E+02  0.34669098066E+02 -0.28122230799E+03  0.28671927176E+03  0.41800000000E+01 0. -1.
</event>
<event>
11    1  0.6625361E-009  0.1675656E+03  0.7561462E-02  0.1080170E+00
         22   -1    0    0    0    0  0.00000000000E+00  0.00000000000E+00  0.27493858712E+03  0.27493858712E+03  0.00000000000E+00 0. -1.
         22   -1    0    0    0    0 -0.00000000000E+00 -0.00000000000E+00 -0.79174310556E+03  0.79174310556E+03  0.00000000000E+00 0. -1.
        -24    2    1    2    0    0 -0.63333809883E+02 -0.39248840042E+01 -0.63456278501E+03  0.64237821403E+03  0.77157407627E+02 0.  0.
         25    2    1    2    0    0 -0.40147207019E+02  0.63017929815E+02 -0.90168343227E+02  0.17135214727E+03  0.12509264784E+03 0.  0.
         24    2    1    2    0    0  0.10348101690E+03 -0.59093045811E+02  0.20792660980E+03  0.25295133138E+03  0.80935727985E+02 0.  0.
        -13    1    5    5    0    0  0.86648628008E+02 -0.77960736439E+02  0.15175800318E+03  0.19135399837E+03  0.00000000000E+00 0.  1.
         14    1    5    5    0    0  0.16832388894E+02  0.18867690628E+02  0.56168606612E+02  0.61597333013E+02  0.00000000000E+00 0. -1.
         11    1    3    3    0    0 -0.45881584631E+02  0.21469333600E+02 -0.55085650301E+03  0.55318074714E+03  0.00000000000E+00 0. -1.
        -12    1    3    3    0    0 -0.17452225252E+02 -0.25394217605E+02 -0.83706281999E+02  0.89197466893E+02  0.00000000000E+00 0.  1.
          5    1    4    4  501    0  0.82484776154E+00  0.54876427664E+02  0.15888143231E+02  0.57288813762E+02  0.41800000000E+01 0.  1.
         -5    1    4    4    0  501 -0.40972054780E+02  0.81415021512E+01 -0.10605648646E+03  0.11406333350E+03  0.41800000000E+01 0.  1.
</event>
<event>
11    1  0.6625361E-009  0.2383933E+03  0.7561462E-02  0.1030271E+00
         22   -1    0    0    0    0  0.00000000000E+00  0.00000000000E+00  0.26253921855E+03  0.26253921855E+03  0.00000000000E+00 0.  1.
         22   -1    0    0    0    0 -0.00000000000E+00 -0.00000000000E+00 -0.12482453661E+04  0.12482453661E+04  0.00000000000E+00 0. -1.
        -24    2    1    2    0    0 -0.83619924745E+01 -0.76557696731E+02 -0.96104459890E+03  0.96845880578E+03  0.91513570407E+02 0.  0.
         25    2    1    2    0    0 -0.12450767808E+03 -0.95333759372E+02 -0.17530099846E+03  0.26639939846E+03  0.12509001504E+03 0.  0.
         24    2    1    2    0    0  0.13286967056E+03  0.17189145610E+03  0.15063944981E+03  0.27592638041E+03  0.79006971396E+02 0.  0.
        -11    1    5    5    0    0  0.14292704629E+03  0.15853088978E+03  0.14588965209E+03  0.25854201624E+03  0.00000000000E+00 0.  1.
         12    1    5    5    0    0 -0.10057375730E+02  0.13360566328E+02  0.47497977250E+01  0.17384364170E+02  0.00000000000E+00 0. -1.
         11    1    3    3    0    0  0.35773072888E+02 -0.64658220416E+02 -0.59180422824E+03  0.59639973405E+03  0.00000000000E+00 0. -1.
        -12    1    3    3    0    0 -0.44135065362E+02 -0.11899476315E+02 -0.36924037067E+03  0.37205907174E+03  0.00000000000E+00 0.  1.
          5    1    4    4  501    0  0.76346909970E+01 -0.17302940169E+02  0.13091014362E+02  0.23377923392E+02  0.41800000000E+01 0.  1.
         -5    1    4    4    0  501 -0.13214236908E+03 -0.78030819204E+02 -0.18839201282E+03  0.24302147507E+03  0.41800000000E+01 0.  1.
</event>
<event>
11    1  0.6625361E-009  0.1428459E+03  0.7561462E-02  0.1104421E+00
         22   -1    0    0    0    0  0.00000000000E+00  0.00000000000E+00  0.25164698588E+04  0.25164698588E+04  0.00000000000E+00 0. -1.
         22   -1    0    0    0    0 -0.00000000000E+00 -0.00000000000E+00 -0.93113468282E+02  0.93113468282E+02  0.00000000000E+00 0. -1.
        -24    2    1    2    0    0  0.73938723524E+02 -0.16905635721E+01 -0.22158220994E+02  0.11953502488E+03  0.91257013833E+02 0.  0.
         25    2    1    2    0    0 -0.46482835706E+02 -0.26180224712E+02  0.19479122342E+03  0.23756425767E+03  0.12508835924E+03 0.  0.
         24    2    1    2    0    0 -0.27455887817E+02  0.27870788284E+02  0.22507233881E+04  0.22524840445E+04  0.79987465036E+02 0.  0.
        -11    1    5    5    0    0 -0.14460347706E+02 -0.64165500030E+00  0.67441362939E+02  0.68977176022E+02  0.00000000000E+00 0.  1.
         12    1    5    5    0    0 -0.12995540111E+02  0.28512443284E+02  0.21832820251E+04  0.21835068685E+04  0.00000000000E+00 0. -1.
         11    1    3    3    0    0  0.61932642770E+01  0.48523210489E+01 -0.46569137820E+02  0.47229081499E+02  0.00000000000E+00 0. -1.
        -12    1    3    3    0    0  0.67745459247E+02 -0.65428846210E+01  0.24410916826E+02  0.72305943379E+02  0.00000000000E+00 0.  1.
          5    1    4    4  501    0 -0.16760937906E+02  0.19665651778E+02  0.17848282642E+03  0.18039195832E+03  0.41800000000E+01 0.  1.
         -5    1    4    4    0  501 -0.29721897801E+02 -0.45845876490E+02  0.16308396998E+02  0.57172299347E+02  0.41800000000E+01 0.  1.
</event>
<event>
11    1  0.6625361E-009  0.1709838E+03  0.7561462E-02  0.1077179E+00
         22   -1    0    0    0    0  0.00000000000E+00  0.00000000000E+00  0.30283461378E+04  0.30283461378E+04  0.00000000000E+00 0.  1.
         22   -1    0    0    0    0 -0.00000000000E+00 -0.00000000000E+00 -0.42937972054E+03  0.42937972054E+03  0.00000000000E+00 0.  1.
        -24    2    1    2    0    0 -0.11670126662E+03  0.11824472511E+02 -0.40804310470E+03  0.43207758431E+03  0.80205110750E+02 0.  0.
         25    2    1    2    0    0  0.74264219584E+02  0.61450430899E+02  0.79588355946E+03  0.81139898700E+03  0.12508535535E+03 0.  0.
         24    2    1    2    0    0  0.42437047032E+02 -0.73274903410E+02  0.22111259625E+04  0.22142492870E+04  0.81558375550E+02 0.  0.
        -13    1    5    5    0    0  0.41590710918E+02 -0.82339313633E+02  0.21762651625E+04  0.21782193663E+04  0.00000000000E+00 0.  1.
         14    1    5    5    0    0  0.84633611427E+00  0.90644102235E+01  0.34860799948E+02  0.36029920768E+02  0.00000000000E+00 0. -1.
         13    1    3    3    0    0 -0.16947541826E+02 -0.28835671885E+02 -0.77053009538E+02  0.83999294199E+02  0.00000000000E+00 0. -1.
        -14    1    3    3    0    0 -0.99753724790E+02  0.40660144396E+02 -0.33099009516E+03  0.34807829011E+03  0.00000000000E+00 0.  1.
          5    1    4    4  501    0  0.32389961177E+02  0.79308242554E+02  0.26463380745E+03  0.27818596544E+03  0.41800000000E+01 0. -1.
         -5    1    4    4    0  501  0.41874258407E+02 -0.17857811655E+02  0.53124975201E+03  0.53321302156E+03  0.41800000000E+01 0. -1.
</event>
<event>
11    1  0.6625361E-009  0.1517169E+03  0.7561462E-02  0.1095137E+00
         22   -1    0    0    0    0  0.00000000000E+00  0.00000000000E+00  0.12354885218E+04  0.12354885218E+04  0.00000000000E+00 0. -1.
         22   -1    0    0    0    0 -0.00000000000E+00 -0.00000000000E+00 -0.30684290869E+03  0.30684290869E+03  0.00000000000E+00 0. -1.
        -24    2    1    2    0    0 -0.47650735703E+02 -0.71969692837E+02 -0.25235204415E+03  0.27770908442E+03  0.77398656856E+02 0.  0.
         25    2    1    2    0    0 -0.68310266451E+00  0.95088724435E+02  0.11669578758E+03  0.19572387094E+03  0.12509034605E+03 0.  0.
         24    2    1    2    0    0  0.48333838368E+02 -0.23119031598E+02  0.10643018697E+04  0.10688984752E+04  0.83275631323E+02 0.  0.
        -13    1    5    5    0    0  0.29614431838E+02 -0.34468534310E+02  0.23759385459E+03  0.24190067004E+03  0.00000000000E+00 0.  1.
         14    1    5    5    0    0  0.18719406530E+02  0.11349502712E+02  0.82670801513E+03  0.82699780512E+03  0.00000000000E+00 0. -1.
         13    1    3    3    0    0 -0.46330876206E+02 -0.88154471486E+02 -0.21264065182E+03  0.23480589375E+03  0.00000000000E+00 0. -1.
        -14    1    3    3    0    0 -0.13198594975E+01  0.16184778649E+02 -0.39711392332E+02  0.42903190674E+02  0.00000000000E+00 0.  1.
          5    1    4    4  501    0  0.29806737569E+02  0.11347792124E+03  0.69413615901E+02  0.13638695937E+03  0.41800000000E+01 0. -1.
         -5    1    4    4    0  501 -0.30489840233E+02 -0.18389196806E+02  0.47282171679E+02  0.59336911575E+02  0.41800000000E+01 0. -1.
</event>
<event>
11    1  0.6625361E-009  0.1278693E+03  0.7561462E-02  0.1121915E+00
         22   -1    0    0    0    0  0.00000000000E+00  0.00000000000E+00  0.33819418396E+03  0.33819418396E+03  0.00000000000E+00 0.  1.
         22   -1    0    0    0    0 -0.00000000000E+00 -0.00000000000E+00 -0.37646210234E+03  0.37646210234E+03  0.00000000000E+00 0.  1.
        -24    2    1    2    0    0  0.23884065466E+02  0.18916111937E+02 -0.28688878472E+03  0.29971068907E+03  0.81197626038E+02 0.  0.
         25    2    1    2    0    0 -0.12115460090E+02 -0.41970271326E+02 -0.18551898771E+02  0.13379244294E+03  0.12509179346E+03 0.  0.
         24    2    1    2    0    0 -0.11768605376E+02  0.23054159389E+02  0.26717276511E+03  0.28115315429E+03  0.83640991206E+02 0.  0.
        -11    1    5    5    0    0 -0.33721690802E+01  0.39195364795E+02  0.25761413528E+03  0.26060063476E+03  0.00000000000E+00 0.  1.
         12    1    5    5    0    0 -0.83964362961E+01 -0.16141205405E+02  0.95586298394E+01  0.20552519525E+02  0.00000000000E+00 0. -1.
         13    1    3    3    0    0  0.28987934096E+02  0.71690868010E+01 -0.29405937853E+02  0.41909489495E+02  0.00000000000E+00 0. -1.
        -14    1    3    3    0    0 -0.51038686298E+01  0.11747025136E+02 -0.25748284687E+03  0.25780119958E+03  0.00000000000E+00 0.  1.
          5    1    4    4  501    0  0.90701683848E+01 -0.27868736593E+02  0.51356655390E+02  0.59278266563E+02  0.41800000000E+01 0.  1.
         -5    1    4    4    0  501 -0.21185628475E+02 -0.14101534733E+02 -0.69908554161E+02  0.74514176374E+02  0.41800000000E+01 0.  1.
</event>
<event>
11    1  0.6625361E-009  0.1408062E+03  0.7561462E-02  0.1106661E+00
         22   -1    0    0    0    0  0.00000000000E+00  0.00000000000E+00  0.65403950684E+02  0.65403950684E+02  0.00000000000E+00 0. -1.
         22   -1    0    0    0    0 -0.00000000000E+00 -0.00000000000E+00 -0.11311188083E+04  0.11311188083E+04  0.00000000000E+00 0. -1.
         24    2    1    2    0    0 -0.54531428974E+02  0.34441076564E+02 -0.84747294897E+03  0.85432988542E+03  0.86656156036E+02 0.  0.
         25    2    1    2    0    0  0.18102591975E+02 -0.88675687507E+02 -0.16261973964E+03  0.22424036840E+03  0.12508989451E+03 0.  0.
        -24    2    1    2    0    0  0.36428837000E+02  0.54234610943E+02 -0.55622169008E+02  0.11795250517E+03  0.80935249435E+02 0.  0.
        -13    1    3    3    0    0 -0.24887174748E+02  0.24266742636E+02 -0.94255775749E+02  0.10046092537E+03  0.00000000000E+00 0.  1.
         14    1    3    3    0    0 -0.29644254227E+02  0.10174333928E+02 -0.75321717323E+03  0.75386896005E+03  0.00000000000E+00 0. -1.
         11    1    5    5    0    0  0.51301139902E+02  0.50494193680E+02 -0.13648305829E+02  0.73264908398E+02  0.00000000000E+00 0. -1.
        -12    1    5    5    0    0 -0.14872302902E+02  0.37404172623E+01 -0.41973863180E+02  0.44687596770E+02  0.00000000000E+00 0.  1.
          5    1    4    4  501    0  0.52438973457E+02 -0.30317863731E+02 -0.14021701949E+03  0.15279824526E+03  0.41800000000E+01 0. -1.
         -5    1    4    4    0  501 -0.34336381482E+02 -0.58357823776E+02 -0.22402720146E+02  0.71442123142E+02  0.41800000000E+01 0. -1.
</event>
<event>
11    1  0.6625361E-009  0.2957040E+03  0.7561462E-02  0.1002026E+00
         22   -1    0    0    0    0  0.00000000000E+00  0.00000000000E+00  0.32805630134E+03  0.32805630134E+03  0.00000000000E+00 0. -1.
         22   -1    0    0    0    0 -0.00000000000E+00 -0.00000000000E+00 -0.97677737911E+03  0.97677737911E+03  0.00000000000E+00 0. -1.
        -24    2    1    2    0    0  0.43696729453E+02 -0.97416284505E+02 -0.67118225830E+03  0.68313995289E+03  0.69247633349E+02 0.  0.
         25    2    1    2    0    0 -0.12689208950E+03  0.31616206195E+03 -0.43149958532E+02  0.36547044859E+03  0.12508668226E+03 0.  0.
         24    2    1    2    0    0  0.83195360043E+02 -0.21874577745E+03  0.65611139062E+02  0.25622327897E+03  0.81082452065E+02 0.  0.
        -11    1    5    5    0    0 -0.32292448034E+01 -0.99137452947E+02  0.15570471246E+02  0.10040469199E+03  0.00000000000E+00 0.  1.
         12    1    5    5    0    0  0.86424604846E+02 -0.11960832450E+03  0.50040667816E+02  0.15581858698E+03  0.00000000000E+00 0. -1.
         11    1    3    3    0    0  0.56915946672E+02 -0.72394837247E+02 -0.59052723488E+03  0.59766449835E+03  0.00000000000E+00 0. -1.
        -12    1    3    3    0    0 -0.13219217219E+02 -0.25021447258E+02 -0.80655023420E+02  0.85475454545E+02  0.00000000000E+00 0.  1.
          5    1    4    4  501    0 -0.96880069230E+02  0.12412024864E+03 -0.63840404452E+02  0.16995485746E+03  0.41800000000E+01 0. -1.
         -5    1    4    4    0  501 -0.30012020266E+02  0.19204181332E+03  0.20690445920E+02  0.19551559113E+03  0.41800000000E+01 0. -1.
</event>
<event>
11    1  0.6625361E-009  0.1512950E+03  0.7561462E-02  0.1095563E+00
         22   -1    0    0    0    0  0.00000000000E+00  0.00000000000E+00  0.26538716660E+03  0.26538716660E+03  0.00000000000E+00 0. -1.
         22   -1    0    0    0    0 -0.00000000000E+00 -0.00000000000E+00 -0.40641096475E+03  0.40641096475E+03  0.00000000000E+00 0.  1.
        -24    2    1    2    0    0  0.32288865076E+01 -0.26337388351E+02 -0.28416993403E+03  0.29413137194E+03  0.71109976928E+02 0.  0.
         25    2    1    2    0    0 -0.85968279752E+02  0.46909624604E+01 -0.43393225207E+02  0.15793343818E+03  0.12508976236E+03 0.  0.
         24    2    1    2    0    0  0.82739393244E+02  0.21646425890E+02  0.18653936109E+03  0.21973332124E+03  0.78558413168E+02 0.  0.
        -13    1    5    5    0    0  0.40052783703E+02  0.14333800577E+02  0.18828587719E+02  0.46520952664E+02  0.00000000000E+00 0.  1.
         14    1    5    5    0    0  0.42686609541E+02  0.73126253134E+01  0.16771077337E+03  0.17321236857E+03  0.00000000000E+00 0. -1.
         11    1    3    3    0    0  0.22131136631E+02 -0.14580761167E+02 -0.34664929678E+02  0.43635342950E+02  0.00000000000E+00 0. -1.
        -12    1    3    3    0    0 -0.18902250123E+02 -0.11756627184E+02 -0.24950500435E+03  0.25049602899E+03  0.00000000000E+00 0.  1.
          5    1    4    4  501    0 -0.15976284811E+02  0.30119248233E+02 -0.70622795148E+02  0.78533192887E+02  0.41800000000E+01 0.  1.
         -5    1    4    4    0  501 -0.69991994940E+02 -0.25428285773E+02  0.27229569941E+02  0.79400245291E+02  0.41800000000E+01 0.  1.
</event>
<event>
11    1  0.6625361E-009  0.2040607E+03  0.7561462E-02  0.1051689E+00
         22   -1    0    0    0    0  0.00000000000E+00  0.00000000000E+00  0.14855443286E+04  0.14855443286E+04  0.00000000000E+00 0.  1.
         22   -1    0    0    0    0 -0.00000000000E+00 -0.00000000000E+00 -0.39154875291E+03  0.39154875291E+03  0.00000000000E+00 0.  1.
        -24    2    1    2    0    0 -0.11432344026E+03 -0.10971146402E+03 -0.33242280870E+03  0.37666533815E+03  0.79154272716E+02 0.  0.
         25    2    1    2    0    0  0.12420976044E+03  0.20103938344E+03  0.51013484769E+03  0.57596093248E+03  0.12509410312E+03 0.  0.
         24    2    1    2    0    0 -0.98863201822E+01 -0.91327919416E+02  0.91628353672E+03  0.92446681089E+03  0.81393099180E+02 0.  0.
        -13    1    5    5    0    0  0.21798799586E+02 -0.99066509674E+01  0.41010576927E+03  0.41080417645E+03  0.00000000000E+00 0.  1.
         14    1    5    5    0    0 -0.31685119768E+02 -0.81421268449E+02  0.50617776745E+03  0.51366263445E+03  0.00000000000E+00 0. -1.
         13    1    3    3    0    0 -0.26998660773E+02  0.13593093885E+01 -0.19523530175E+02  0.33345818869E+02  0.00000000000E+00 0. -1.
        -14    1    3    3    0    0 -0.87324779488E+02 -0.11107077341E+03 -0.31289927853E+03  0.34331951928E+03  0.00000000000E+00 0.  1.
          5    1    4    4  501    0  0.43343381684E+02  0.31754878985E+02  0.24673110182E+03  0.25254847076E+03  0.41800000000E+01 0.  1.
         -5    1    4    4    0  501  0.80866378759E+02  0.16928450445E+03  0.26340374587E+03  0.32341246172E+03  0.41800000000E+01 0.  1.
</event>
<event>
11    1  0.6625361E-009  0.1357497E+03  0.7561462E-02  0.1112400E+00
         22   -1    0    0    0    0  0.00000000000E+00  0.00000000000E+00  0.68947483668E+03  0.68947483668E+03  0.00000000000E+00 0.  1.
         22   -1    0    0    0    0 -0.00000000000E+00 -0.00000000000E+00 -0.18139222892E+03  0.18139222892E+03  0.00000000000E+00 0.  1.
        -24    2    1    2    0    0 -0.46604536074E+01 -0.14083526582E+01 -0.11190539538E+03  0.13776439227E+03  0.80202911271E+02 0.  0.
         25    2    1    2    0    0 -0.38056145458E+02 -0.30027060267E+02  0.32664883352E+02  0.13807615376E+03  0.12509250608E+03 0.  0.
         24    2    1    2    0    0  0.42716599065E+02  0.31435412925E+02  0.58732311979E+03  0.59502651958E+03  0.79342415820E+02 0.  0.
        -11    1    5    5    0    0  0.60728848601E+02  0.38934308754E+02  0.51839725440E+03  0.52339238323E+03  0.00000000000E+00 0.  1.
         12    1    5    5    0    0 -0.18012249536E+02 -0.74988958292E+01  0.68925865387E+02  0.71634136355E+02  0.00000000000E+00 0. -1.
         13    1    3    3    0    0  0.15611336889E+02  0.35821235060E+01  0.66808212312E+01  0.17354504332E+02  0.00000000000E+00 0. -1.
        -14    1    3    3    0    0 -0.20271790496E+02 -0.49904761642E+01 -0.11858621661E+03  0.12040988794E+03  0.00000000000E+00 0.  1.
          5    1    4    4  501    0 -0.55350648697E+02 -0.10825539857E+02 -0.34323320341E+02  0.66154737877E+02  0.41800000000E+01 0.  1.
         -5    1    4    4    0  501  0.17294503239E+02 -0.19201520410E+02  0.66988203693E+02  0.71921415881E+02  0.41800000000E+01 0.  1.
</event>
<event>
11    1  0.6625361E-009  0.2046028E+03  0.7561462E-02  0.1051316E+00
         22   -1    0    0    0    0  0.00000000000E+00  0.00000000000E+00  0.86934989920E+03  0.86934989920E+03  0.00000000000E+00 0.  1.
         22   -1    0    0    0    0 -0.00000000000E+00 -0.00000000000E+00 -0.45996489660E+03  0.45996489660E+03  0.00000000000E+00 0.  1.
        -24    2    1    2    0    0  0.44689239743E+02  0.47696515382E+02 -0.32554003805E+03  0.34140053237E+03  0.79409831893E+02 0.  0.
         25    2    1    2    0    0 -0.12850068176E+03  0.92478636201E+02 -0.28276655181E+02  0.20374307504E+03  0.12508776131E+03 0.  0.
         24    2    1    2    0    0  0.83811442018E+02 -0.14017515158E+03  0.76320169583E+03  0.78417118840E+03  0.75988112661E+02 0.  0.
        -11    1    5    5    0    0  0.33137961757E+02 -0.68735486548E+02  0.52223073922E+03  0.52777612357E+03  0.00000000000E+00 0.  1.
         12    1    5    5    0    0  0.50673480260E+02 -0.71439665034E+02  0.24097095661E+03  0.25639506483E+03  0.00000000000E+00 0. -1.
         11    1    3    3    0    0  0.30527865941E+01 -0.20567002769E+02 -0.99097956443E+02  0.10125574591E+03  0.00000000000E+00 0. -1.
        -12    1    3    3    0    0  0.41636453149E+02  0.68263518151E+02 -0.22644208161E+03  0.24014478646E+03  0.00000000000E+00 0.  1.
          5    1    4    4  501    0 -0.13728474336E+03  0.35793962517E+02 -0.59886208838E+01  0.14206211491E+03  0.41800000000E+01 0. -1.
         -5    1    4    4    0  501  0.87840616035E+01  0.56684673684E+02 -0.22288034297E+02  0.61680960123E+02  0.41800000000E+01 0. -1.
</event>
<event>
11    1  0.6625361E-009  0.1420613E+03  0.7561462E-02  0.1105278E+00
         22   -1    0    0    0    0  0.00000000000E+00  0.00000000000E+00  0.93711574149E+03  0.93711574149E+03  0.00000000000E+00 0. -1.
         22   -1    0    0    0    0 -0.00000000000E+00 -0.00000000000E+00 -0.28532161788E+03  0.28532161788E+03  0.00000000000E+00 0.  1.
        -24    2    1    2    0    0  0.42997108075E+01 -0.67716185922E+02 -0.24804849652E+03  0.26960324781E+03  0.80956069911E+02 0.  0.
         25    2    1    2    0    0 -0.35973199152E+02  0.54683491129E+02  0.18427901732E+03  0.23214472342E+03  0.12509221051E+03 0.  0.
         24    2    1    2    0    0  0.31673488345E+02  0.13032694793E+02  0.71556360281E+03  0.72068938814E+03  0.78669330158E+02 0.  0.
        -11    1    5    5    0    0  0.35280503169E+01 -0.29975185874E+01  0.24304405491E+00  0.46358739341E+01  0.00000000000E+00 0.  1.
         12    1    5    5    0    0  0.28145438028E+02  0.16030213380E+02  0.71532055876E+03  0.71605351421E+03  0.00000000000E+00 0. -1.
         11    1    3    3    0    0 -0.36378408181E+02 -0.47544282230E+02 -0.12992190646E+03  0.14305086204E+03  0.00000000000E+00 0. -1.
        -12    1    3    3    0    0  0.40678118988E+02 -0.20171903692E+02 -0.11812659006E+03  0.12655238576E+03  0.00000000000E+00 0.  1.
          5    1    4    4  501    0 -0.48160070016E+01 -0.25021221566E+02 -0.31964996539E+01  0.26018175611E+02  0.41800000000E+01 0. -1.
         -5    1    4    4    0  501 -0.31157192151E+02  0.79704712695E+02  0.18747551697E+03  0.20612654781E+03  0.41800000000E+01 0. -1.
</event>
<event>
11    1  0.6625361E-009  0.1315698E+03  0.7561462E-02  0.1117355E+00
         22   -1    0    0    0    0  0.00000000000E+00  0.00000000000E+00  0.19499767494E+03  0.19499767494E+03  0.00000000000E+00 0. -1.
         22   -1    0    0    0    0 -0.00000000000E+00 -0.00000000000E+00 -0.40020495483E+03  0.40020495483E+03  0.00000000000E+00 0. -1.
         24    2    1    2    0    0 -0.24718168272E+01 -0.69649907382E+01 -0.27267027166E+03  0.28371663965E+03  0.78047636704E+02 0.  0.
         25    2    1    2    0    0 -0.27370959778E+02 -0.21852692684E+02 -0.69065117058E+02  0.14713309980E+03  0.12510575144E+03 0.  0.
        -24    2    1    2    0    0  0.29842776606E+02  0.28817683422E+02  0.13652810882E+03  0.16435289033E+03  0.81553037139E+02 0.  0.
        -13    1    3    3    0    0 -0.54172684620E+01 -0.13365329731E+02 -0.40162862985E+01  0.14970283632E+02  0.00000000000E+00 0.  1.
         14    1    3    3    0    0  0.29454516347E+01  0.64003389923E+01 -0.26865398536E+03  0.26874635602E+03  0.00000000000E+00 0. -1.
         11    1    5    5    0    0  0.47366894862E+02 -0.43715602318E+01  0.10523658462E+03  0.11548797344E+03  0.00000000000E+00 0. -1.
        -12    1    5    5    0    0 -0.17524118256E+02  0.33189243654E+02  0.31291524203E+02  0.48864916883E+02  0.00000000000E+00 0.  1.
          5    1    4    4  501    0  0.44018578421E+01 -0.48132156086E+02  0.17165021296E+02  0.51460578679E+02  0.41800000000E+01 0. -1.
         -5    1    4    4    0  501 -0.31772817620E+02  0.26279463402E+02 -0.86230138354E+02  0.95672521116E+02  0.41800000000E+01 0. -1.
</event>
<event>
11    1  0.6625361E-009  0.1455211E+03  0.7561462E-02  0.1101545E+00
         22   -1    0    0    0    0  0.00000000000E+00  0.00000000000E+00  0.20621600812E+03  0.20621600812E+03  0.00000000000E+00 0.  1.
         22   -1    0    0    0    0 -0.00000000000E+00 -0.00000000000E+00 -0.54646584330E+03  0.54646584330E+03  0.00000000000E+00 0. -1.
         24    2    1    2    0    0 -0.53500109486E+01 -0.64212851393E+02 -0.31869079344E+03  0.33539090146E+03  0.82288043234E+02 0.  0.
         25    2    1    2    0    0 -0.22101826096E+02  0.11995409074E+03 -0.16581167860E+03  0.24086961316E+03  0.12508870126E+03 0.  0.
        -24    2    1    2    0    0  0.27451837045E+02 -0.55741239350E+02  0.14425263686E+03  0.17642133680E+03  0.80342863495E+02 0.  0.
        -13    1    3    3    0    0  0.10876822988E+02 -0.14435496919E+02 -0.70788408616E+01  0.19411306951E+02  0.00000000000E+00 0.  1.
         14    1    3    3    0    0 -0.16226833936E+02 -0.49777354475E+02 -0.31161195258E+03  0.31597959451E+03  0.00000000000E+00 0. -1.
         11    1    5    5    0    0 -0.27607895525E+02 -0.10512321888E+02  0.32845048459E+02  0.44175808030E+02  0.00000000000E+00 0. -1.
        -12    1    5    5    0    0  0.55059732570E+02 -0.45228917462E+02  0.11140758840E+03  0.13224552877E+03  0.00000000000E+00 0.  1.
          5    1    4    4  501    0  0.19051726451E+02 -0.11575364699E+02 -0.68366204455E+02  0.72030324588E+02  0.41800000000E+01 0. -1.
         -5    1    4    4    0  501 -0.41153552547E+02  0.13152945544E+03 -0.97445474140E+02  0.16883928857E+03  0.41800000000E+01 0. -1.
</event>
<event>
11    1  0.6625361E-009  0.1387420E+03  0.7561462E-02  0.1108971E+00
         22   -1    0    0    0    0  0.00000000000E+00  0.00000000000E+00  0.22575606061E+04  0.22575606061E+04  0.00000000000E+00 0. -1.
         22   -1    0    0    0    0 -0.00000000000E+00 -0.00000000000E+00 -0.33638031929E+03  0.33638031929E+03  0.00000000000E+00 0. -1.
        -24    2    1    2    0    0  0.41840618082E+02 -0.48954088179E+02 -0.23652721426E+03  0.25769373166E+03  0.79459399578E+02 0.  0.
         25    2    1    2    0    0 -0.53776971009E+02  0.14233100718E+01 -0.35758029711E+02  0.14078454350E+03  0.12509061747E+03 0.  0.
         24    2    1    2    0    0  0.11936352927E+02  0.47530778107E+02  0.21934655308E+04  0.21954626503E+04  0.79771940354E+02 0.  0.
        -11    1    5    5    0    0  0.40269533165E+02  0.81179344516E+01  0.69652871532E+03  0.69773905396E+03  0.00000000000E+00 0.  1.
         12    1    5    5    0    0 -0.28333180238E+02  0.39412843656E+02  0.14969368155E+04  0.14977235963E+04  0.00000000000E+00 0. -1.
         13    1    3    3    0    0 -0.19165172511E+02 -0.18506790499E+02 -0.11786047912E+03  0.12083417427E+03  0.00000000000E+00 0. -1.
        -14    1    3    3    0    0  0.61005790593E+02 -0.30447297680E+02 -0.11866673514E+03  0.13685955739E+03  0.00000000000E+00 0.  1.
          5    1    4    4  501    0  0.25490502352E+02 -0.36639934687E+02 -0.26964590125E+02  0.52314549073E+02  0.41800000000E+01 0. -1.
         -5    1    4    4    0  501 -0.79267473361E+02  0.38063244759E+02 -0.87934395859E+01  0.88469994430E+02  0.41800000000E+01 0. -1.
</event>
<event>
11    1  0.6625361E-009  0.1551206E+03  0.7561462E-02  0.1091758E+00
         22   -1    0    0    0    0  0.00000000000E+00  0.00000000000E+00  0.31638910300E+03  0.31638910300E+03  0.00000000000E+00 0.  1.
         22   -1    0    0    0    0 -0.00000000000E+00 -0.00000000000E+00 -0.25032468011E+03  0.25032468011E+03  0.00000000000E+00 0. -1.
        -24    2    1    2    0    0  0.10173046495E+03  0.49372955635E+01 -0.14827018543E+03  0.19706384637E+03  0.80477619713E+02 0.  0.
         25    2    1    2    0    0 -0.62468236183E+02 -0.34828842338E+01  0.82170685706E+00  0.13986578127E+03  0.12508937027E+03 0.  0.
         24    2    1    2    0    0 -0.39262228765E+02 -0.14544113297E+01  0.21351290146E+03  0.22978415547E+03  0.75295159841E+02 0.  0.
        -11    1    5    5    0    0  0.14331345564E+02  0.19349296082E+02  0.95841916383E+02  0.98820320079E+02  0.00000000000E+00 0.  1.
         12    1    5    5    0    0 -0.53593574329E+02 -0.20803707412E+02  0.11767098508E+03  0.13096383539E+03  0.00000000000E+00 0. -1.
         13    1    3    3    0    0  0.65456772172E+02  0.33983066621E+02 -0.12489665333E+03  0.14504692983E+03  0.00000000000E+00 0. -1.
        -14    1    3    3    0    0  0.36273692776E+02 -0.29045771058E+02 -0.23373532098E+02  0.52016916543E+02  0.00000000000E+00 0.  1.
          5    1    4    4  501    0 -0.76443622091E+02  0.19356006648E+01 -0.46810896637E+02  0.89755815145E+02  0.41800000000E+01 0.  1.
         -5    1    4    4    0  501  0.13975385908E+02 -0.54184848986E+01  0.47632603494E+02  0.50109966130E+02  0.41800000000E+01 0.  1.
</event>
<event>
11    1  0.6625361E-009  0.1371613E+03  0.7561462E-02  0.1110770E+00
         22   -1    0    0    0    0  0.00000000000E+00  0.00000000000E+00  0.73286783436E+03  0.73286783436E+03  0.00000000000E+00 0. -1.
         22   -1    0    0    0    0 -0.00000000000E+00 -0.00000000000E+00 -0.47761376182E+03  0.47761376182E+03  0.00000000000E+00 0. -1.
         24    2    1    2    0    0  0.52584186222E+02  0.16966764284E+02 -0.40219628909E+03  0.41403414661E+03  0.81298535476E+02 0.  0.
         25    2    1    2    0    0 -0.62129677725E+02 -0.33182936273E+02  0.10478925038E+02  0.14394034856E+03  0.12509121456E+03 0.  0.
        -24    2    1    2    0    0  0.95454915028E+01  0.16216171988E+02  0.64697143659E+03  0.65250710101E+03  0.82700643682E+02 0.  0.
        -13    1    3    3    0    0  0.13214955128E+02  0.13995723731E+02 -0.13917265259E+02  0.23753012316E+02  0.00000000000E+00 0.  1.
         14    1    3    3    0    0  0.39369231094E+02  0.29710405536E+01 -0.38827902383E+03  0.39028113430E+03  0.00000000000E+00 0. -1.
         13    1    5    5    0    0  0.38124368816E+02  0.30694910370E+02  0.48007014810E+03  0.48255879654E+03  0.00000000000E+00 0. -1.
        -14    1    5    5    0    0 -0.28578877313E+02 -0.14478738381E+02  0.16690128849E+03  0.16994830447E+03  0.00000000000E+00 0.  1.
          5    1    4    4  501    0 -0.68064227017E+02 -0.50568668609E+02 -0.37188796258E+02  0.92684455069E+02  0.41800000000E+01 0.  1.
         -5    1    4    4    0  501  0.59345492917E+01  0.17385732336E+02  0.47667721297E+02  0.51255893493E+02  0.41800000000E+01 0.  1.
</event>
<event>
11    1  0.6625361E-009  0.1397600E+03  0.7561462E-02  0.1107827E+00
         22   -1    0    0    0    0  0.00000000000E+00  0.00000000000E+00  0.47577270906E+03  0.47577270906E+03  0.00000000000E+00 0. -1.
         22   -1    0    0    0    0 -0.00000000000E+00 -0.00000000000E+00 -0.26328638047E+03  0.26328638047E+03  0.00000000000E+00 0. -1.
         24    2    1    2    0    0 -0.25402469269E+02 -0.53582662640E+02 -0.17114621933E+03  0.19788143627E+03  0.79684673862E+02 0.  0.
         25    2    1    2    0    0  0.23436413188E+01  0.85771823007E+02  0.34098771247E+01  0.15172886393E+03  0.12509085742E+03 0.  0.
        -24    2    1    2    0    0  0.23058827950E+02 -0.32189160367E+02  0.38022267080E+03  0.38944878933E+03  0.74385674249E+02 0.  0.
        -11    1    3    3    0    0  0.39203225480E+01  0.78433768257E+01  0.42476513406E+01  0.97432043406E+01  0.00000000000E+00 0.  1.
         12    1    3    3    0    0 -0.29322791817E+02 -0.61426039466E+02 -0.17539387067E+03  0.18813823193E+03  0.00000000000E+00 0. -1.
         13    1    5    5    0    0  0.15805288007E+00 -0.15066329626E+02  0.33868780716E+03  0.33902278683E+03  0.00000000000E+00 0. -1.
        -14    1    5    5    0    0  0.22900775070E+02 -0.17122830741E+02  0.41534863638E+02  0.50426002507E+02  0.00000000000E+00 0.  1.
          5    1    4    4  501    0 -0.88500589708E+01 -0.47902797298E+01  0.48605959526E+02  0.49812468571E+02  0.41800000000E+01 0. -1.
         -5    1    4    4    0  501  0.11193700290E+02  0.90562102737E+02 -0.45196082402E+02  0.10191639536E+03  0.41800000000E+01 0. -1.
</event>
<event>
11    1  0.6625361E-009  0.1764162E+03  0.7561462E-02  0.1072579E+00
         22   -1    0    0    0    0  0.00000000000E+00  0.00000000000E+00  0.18756703721E+04  0.18756703721E+04  0.00000000000E+00 0. -1.
         22   -1    0    0    0    0 -0.00000000000E+00 -0.00000000000E+00 -0.18837348673E+03  0.18837348673E+03  0.00000000000E+00 0. -1.
         24    2    1    2    0    0 -0.96168948356E+02 -0.48557178959E+02 -0.70727136502E+02  0.15220565061E+03  0.80981269346E+02 0.  0.
         25    2    1    2    0    0  0.17581102058E+03  0.99085791897E+02  0.11429275372E+03  0.26351236243E+03  0.12509365486E+03 0.  0.
        -24    2    1    2    0    0 -0.79642072221E+02 -0.50528612938E+02  0.16437312682E+04  0.16483258458E+04  0.78927888489E+02 0.  0.
        -13    1    3    3    0    0 -0.42115312544E+02 -0.27654633273E+02  0.11430983755E+02  0.51663775334E+02  0.00000000000E+00 0.  1.
         14    1    3    3    0    0 -0.54053635812E+02 -0.20902545685E+02 -0.82158120258E+02  0.10054187528E+03  0.00000000000E+00 0. -1.
         11    1    5    5    0    0 -0.56496610512E+02 -0.23736227310E+02  0.14557603984E+04  0.14570496262E+04  0.00000000000E+00 0. -1.
        -12    1    5    5    0    0 -0.23145461709E+02 -0.26792385628E+02  0.18797086977E+03  0.19127621966E+03  0.00000000000E+00 0.  1.
          5    1    4    4  501    0  0.11403917943E+03  0.10166355583E+03  0.25060148495E+02  0.15487380822E+03  0.41800000000E+01 0. -1.
         -5    1    4    4    0  501  0.61771841147E+02 -0.25777639324E+01  0.89232605226E+02  0.10863855421E+03  0.41800000000E+01 0. -1.
</event>
<event>
11    1  0.6625361E-009  0.1647956E+03  0.7561462E-02  0.1082652E+00
         22   -1    0    0    0    0  0.00000000000E+00  0.00000000000E+00  0.36642909646E+03  0.36642909646E+03  0.00000000000E+00 0.  1.
         22   -1    0    0    0    0 -0.00000000000E+00 -0.00000000000E+00 -0.65067425721E+03  0.65067425721E+03  0.00000000000E+00 0.  1.
        -24    2    1    2    0    0  0.76654563643E+02  0.18600356424E+02 -0.56736841744E+03  0.57894164334E+03  0.83932174361E+02 0.  0.
         25    2    1    2    0    0 -0.83597708886E+02 -0.11781945092E+03  0.10037839914E+03  0.21585179126E+03  0.12508466265E+03 0.  0.
         24    2    1    2    0    0  0.69431452432E+01  0.99219094499E+02  0.18274485755E+03  0.22230991907E+03  0.78315906297E+02 0.  0.
        -13    1    5    5    0    0 -0.17950815412E+02  0.10007854207E+03  0.14569845164E+03  0.17766818840E+03  0.00000000000E+00 0.  1.
         14    1    5    5    0    0  0.24893960655E+02 -0.85944757371E+00  0.37046405905E+02  0.44641730675E+02  0.00000000000E+00 0. -1.
         11    1    3    3    0    0  0.31453057446E+02 -0.28437934061E+02 -0.33210338128E+03  0.33479944261E+03  0.00000000000E+00 0. -1.
        -12    1    3    3    0    0  0.45201506198E+02  0.47038290484E+02 -0.23526503616E+03  0.24414220072E+03  0.00000000000E+00 0.  1.
          5    1    4    4  501    0 -0.10455950062E+03 -0.52845496450E+02  0.37876693653E+02  0.12319680186E+03  0.41800000000E+01 0. -1.
         -5    1    4    4    0  501  0.20961791737E+02 -0.64973954473E+02  0.62501705485E+02  0.92654989402E+02  0.41800000000E+01 0. -1.
</event>
<event>
11    1  0.6625361E-009  0.1457853E+03  0.7561462E-02  0.1101265E+00
         22   -1    0    0    0    0  0.00000000000E+00  0.00000000000E+00  0.13221863669E+03  0.13221863669E+03  0.00000000000E+00 0. -1.
         22   -1    0    0    0    0 -0.00000000000E+00 -0.00000000000E+00 -0.50493696635E+03  0.50493696635E+03  0.00000000000E+00 0. -1.
        -24    2    1    2    0    0  0.27051973210E+02 -0.17305868876E+02 -0.34224569507E+03  0.35322166707E+03  0.81253479600E+02 0.  0.
         25    2    1    2    0    0  0.46664119638E+02 -0.19109317133E+02 -0.83426038600E+02  0.15858660486E+03  0.12508837381E+03 0.  0.
         24    2    1    2    0    0 -0.73716092848E+02  0.36415186009E+02  0.52953404001E+02  0.12534733110E+03  0.78407667374E+02 0.  0.
        -11    1    5    5    0    0  0.31063669061E+01 -0.11498562581E+02  0.29508263383E+02  0.31821440330E+02  0.00000000000E+00 0.  1.
         12    1    5    5    0    0 -0.76822459754E+02  0.47913748590E+02  0.23445140618E+02  0.93525890774E+02  0.00000000000E+00 0. -1.
         13    1    3    3    0    0 -0.18207489368E+02  0.79540964402E+01 -0.21367213201E+03  0.21459394288E+03  0.00000000000E+00 0. -1.
        -14    1    3    3    0    0  0.45259462578E+02 -0.25259965316E+02 -0.12857356305E+03  0.13862772420E+03  0.00000000000E+00 0.  1.
          5    1    4    4  501    0  0.50488902858E+02  0.11439695830E+02  0.16058605481E+02  0.54363104791E+02  0.41800000000E+01 0.  1.
         -5    1    4    4    0  501 -0.38247832201E+01 -0.30549012963E+02 -0.99484644080E+02  0.10422350007E+03  0.41800000000E+01 0.  1.
</event>
<event>
11    1  0.6625361E-009  0.1505098E+03  0.7561462E-02  0.1096359E+00
         22   -1    0    0    0    0  0.00000000000E+00  0.00000000000E+00  0.50220945413E+03  0.50220945413E+03  0.00000000000E+00 0.  1.
         22   -1    0    0    0    0 -0.00000000000E+00 -0.00000000000E+00 -0.17297579328E+03  0.17297579328E+03  0.00000000000E+00 0.  1.
        -24    2    1    2    0    0 -0.63761381750E+02  0.52317166649E+02 -0.10329655317E+03  0.15268918694E+03  0.76427810278E+02 0.  0.
         25    2    1    2    0    0  0.70050393876E+02 -0.58316103366E+02  0.10981174285E+03  0.18977140376E+03  0.12508693466E+03 0.  0.
         24    2    1    2    0    0 -0.62890121266E+01  0.59989367171E+01  0.32271847117E+03  0.33272465671E+03  0.80516747538E+02 0.  0.
        -13    1    5    5    0    0 -0.27450353533E+02 -0.61781149365E+00  0.29899594706E+03  0.30025402572E+03  0.00000000000E+00 0.  1.
         14    1    5    5    0    0  0.21161341407E+02  0.66167482108E+01  0.23722524104E+02  0.32470630990E+02  0.00000000000E+00 0. -1.
         13    1    3    3    0    0 -0.34188614405E+02 -0.13896656849E+02 -0.19054671016E+02  0.41533828550E+02  0.00000000000E+00 0. -1.
        -14    1    3    3    0    0 -0.29572767344E+02  0.66213823498E+02 -0.84241882156E+02  0.11115535839E+03  0.00000000000E+00 0.  1.
          5    1    4    4  501    0  0.99171149230E+02 -0.12184994831E+02  0.73381120325E+02  0.12403891389E+03  0.41800000000E+01 0. -1.
         -5    1    4    4    0  501 -0.29120755354E+02 -0.46131108535E+02  0.36430622521E+02  0.65732489869E+02  0.41800000000E+01 0. -1.
</event>
<event>
11    1  0.6625361E-009  0.1325561E+03  0.7561462E-02  0.1116168E+00
         22   -1    0    0    0    0  0.00000000000E+00  0.00000000000E+00  0.15341731589E+03  0.15341731589E+03  0.00000000000E+00 0. -1.
         22   -1    0    0    0    0 -0.00000000000E+00 -0.00000000000E+00 -0.69920487736E+03  0.69920487736E+03  0.00000000000E+00 0.  1.
        -24    2    1    2    0    0 -0.43593194179E+02  0.71821688363E+01 -0.55489831555E+03  0.56269201507E+03  0.82208351724E+02 0.  0.
         25    2    1    2    0    0  0.42604304617E+02  0.59640463047E+01 -0.91102564041E+02  0.16060983128E+03  0.12508055049E+03 0.  0.
         24    2    1    2    0    0  0.98888956204E+00 -0.13146215141E+02  0.10021331812E+03  0.12932034689E+03  0.80667478670E+02 0.  0.
        -11    1    5    5    0    0 -0.79862680381E+01  0.99548248161E+01 -0.10088688056E+02  0.16268393928E+02  0.00000000000E+00 0.  1.
         12    1    5    5    0    0  0.89751576002E+01 -0.23101039957E+02  0.11030200618E+03  0.11305195296E+03  0.00000000000E+00 0. -1.
         11    1    3    3    0    0 -0.16993773208E+02 -0.31091998488E+02 -0.11509332236E+03  0.12042414023E+03  0.00000000000E+00 0. -1.
        -12    1    3    3    0    0 -0.26599420971E+02  0.38274167324E+02 -0.43980499320E+03  0.44226787485E+03  0.00000000000E+00 0.  1.
          5    1    4    4  501    0  0.16060853329E+02  0.64707267955E+02 -0.37095153750E+02  0.76410106449E+02  0.41800000000E+01 0.  1.
         -5    1    4    4    0  501  0.26543451288E+02 -0.58743221650E+02 -0.54007410291E+02  0.84199724836E+02  0.41800000000E+01 0.  1.
</event>
<event>
11    1  0.6625361E-009  0.1676038E+03  0.7561462E-02  0.1080136E+00
         22   -1    0    0    0    0  0.00000000000E+00  0.00000000000E+00  0.10380585552E+04  0.10380585552E+04  0.00000000000E+00 0.  1.
         22   -1    0    0    0    0 -0.00000000000E+00 -0.00000000000E+00 -0.35449654712E+03  0.35449654712E+03  0.00000000000E+00 0. -1.
         24    2    1    2    0    0 -0.98330152786E+02  0.38314076271E+02 -0.23329786863E+03  0.26817830030E+03  0.79717738664E+02 0.  0.
         25    2    1    2    0    0  0.13048304776E+03 -0.56118924648E+02 -0.13390801990E+02  0.18974317807E+03  0.12509196853E+03 0.  0.
        -24    2    1    2    0    0 -0.32152894969E+02  0.17804848377E+02  0.93025067869E+03  0.93463362394E+03  0.82600632640E+02 0.  0.
        -11    1    3    3    0    0  0.68716909071E+01  0.22109353328E+02 -0.65454820626E+02  0.69428936213E+02  0.00000000000E+00 0.  1.
         12    1    3    3    0    0 -0.10520184369E+03  0.16204722942E+02 -0.16784304800E+03  0.19874936409E+03  0.00000000000E+00 0. -1.
         11    1    5    5    0    0 -0.23691830621E+02 -0.10008530337E+02  0.83207255168E+02  0.87091450960E+02  0.00000000000E+00 0. -1.
        -12    1    5    5    0    0 -0.84610643478E+01  0.27813378714E+02  0.84704342352E+03  0.84754217298E+03  0.00000000000E+00 0.  1.
          5    1    4    4  501    0  0.10913866563E+03 -0.13350108671E+01  0.33690430870E+02  0.11430462861E+03  0.41800000000E+01 0. -1.
         -5    1    4    4    0  501  0.21344382129E+02 -0.54783913781E+02 -0.47081232860E+02  0.75438549464E+02  0.41800000000E+01 0. -1.
</event>
<event>
11    1  0.6625361E-009  0.1307115E+03  0.7561462E-02  0.1118398E+00
         22   -1    0    0    0    0  0.00000000000E+00  0.00000000000E+00  0.55437375227E+03  0.55437375227E+03  0.00000000000E+00 0. -1.
         22   -1    0    0    0    0 -0.00000000000E+00 -0.00000000000E+00 -0.74287692120E+03  0.74287692120E+03  0.00000000000E+00 0.  1.
         24    2    1    2    0    0  0.25924949196E+02  0.27063242495E+02 -0.70239216189E+03  0.70797486940E+03  0.80430992363E+02 0.  0.
         25    2    1    2    0    0 -0.34969375296E+02 -0.53136861394E+02  0.11680850628E+03  0.18258397331E+03  0.12508515868E+03 0.  0.
        -24    2    1    2    0    0  0.90444260998E+01  0.26073618899E+02  0.39708048668E+03  0.40669183077E+03  0.83448769089E+02 0.  0.
        -13    1    3    3    0    0  0.37061090844E+02 -0.96968697555E+00 -0.60221200724E+03  0.60335210815E+03  0.00000000000E+00 0.  1.
         14    1    3    3    0    0 -0.11136141648E+02  0.28032929471E+02 -0.10018015465E+03  0.10462276125E+03  0.00000000000E+00 0. -1.
         13    1    5    5    0    0  0.22463689978E+01  0.53301313664E+02  0.32484457136E+03  0.32919609924E+03  0.00000000000E+00 0. -1.
        -14    1    5    5    0    0  0.67980571020E+01 -0.27227694765E+02  0.72235915325E+02  0.77495731530E+02  0.00000000000E+00 0.  1.
          5    1    4    4  501    0 -0.44087866104E+02 -0.56838859992E+02  0.13977288686E+03  0.15725243478E+03  0.41800000000E+01 0.  1.
         -5    1    4    4    0  501  0.91184908084E+01  0.37019985984E+01 -0.22964380587E+02  0.25331538524E+02  0.41800000000E+01 0.  1.
</event>
<event>
11    1  0.6625361E-009  0.1365464E+03  0.7561462E-02  0.1111477E+00
         22   -1    0    0    0    0  0.00000000000E+00  0.00000000000E+00  0.53141473985E+02  0.53141473985E+02  0.00000000000E+00 0.  1.
         22   -1    0    0    0    0 -0.00000000000E+00 -0.00000000000E+00 -0.19433350626E+04  0.19433350626E+04  0.00000000000E+00 0.  1.
        -24    2    1    2    0    0 -0.38777858313E+02 -0.27204255191E+02 -0.14782022145E+04  0.14811247554E+04  0.80030994591E+02 0.  0.
         25    2    1    2    0    0  0.65293614733E+02  0.68312856794E+02 -0.38740471520E+03  0.41792408235E+03  0.12509285639E+03 0.  0.
         24    2    1    2    0    0 -0.26515756420E+02 -0.41108601603E+02 -0.24586658899E+02  0.97427698893E+02  0.80589392922E+02 0.  0.
        -13    1    5    5    0    0 -0.69852811366E+01 -0.77681512987E+01  0.29307195567E+02  0.31113502521E+02  0.00000000000E+00 0.  1.
         14    1    5    5    0    0 -0.19530475283E+02 -0.33340450304E+02 -0.53893854465E+02  0.66314196372E+02  0.00000000000E+00 0. -1.
         13    1    3    3    0    0  0.15587940542E+02 -0.29295316984E+02 -0.33795306761E+03  0.33957837887E+03  0.00000000000E+00 0. -1.
        -14    1    3    3    0    0 -0.54365798854E+02  0.20910617932E+01 -0.11402491469E+04  0.11415463765E+04  0.00000000000E+00 0.  1.
          5    1    4    4  501    0  0.82042338971E+02 -0.40765427895E+01 -0.21101106893E+03  0.22647451777E+03  0.41800000000E+01 0.  1.
         -5    1    4    4    0  501 -0.16748724238E+02  0.72389399584E+02 -0.17639364627E+03  0.19144956459E+03  0.41800000000E+01 0.  1.
</event>
<event>
11    1  0.6625361E-009  0.1317509E+03  0.7561462E-02  0.1117136E+00
         22   -1    0    0    0    0  0.00000000000E+00  0.00000000000E+00  0.19246209472E+03  0.19246209472E+03  0.00000000000E+00 0. -1.
         22   -1    0    0    0    0 -0.00000000000E+00 -0.00000000000E+00 -0.55514429928E+03  0.55514429928E+03  0.00000000000E+00 0. -1.
         24    2    1    2    0    0 -0.10688276679E+02  0.14029511982E+00 -0.34101424387E+03  0.35129104307E+03  0.83668533372E+02 0.  0.
         25    2    1    2    0    0  0.48970883932E+02 -0.14143842315E+02 -0.17285220633E+03  0.21936636567E+03  0.12508205868E+03 0.  0.
        -24    2    1    2    0    0 -0.38282607253E+02  0.14003547196E+02  0.15118424564E+03  0.17694898526E+03  0.82417291289E+02 0.  0.
        -13    1    3    3    0    0 -0.21627428839E+02 -0.10548046948E+02 -0.24265907965E+02  0.34173692542E+02  0.00000000000E+00 0.  1.
         14    1    3    3    0    0  0.10939152160E+02  0.10688342068E+02 -0.31674833591E+03  0.31711735053E+03  0.00000000000E+00 0. -1.
         13    1    5    5    0    0 -0.42653104548E+02 -0.20140870038E+02  0.12528689304E+03  0.13387213131E+03  0.00000000000E+00 0. -1.
        -14    1    5    5    0    0  0.43704972955E+01  0.34144417233E+02  0.25897352599E+02  0.43076853953E+02  0.00000000000E+00 0.  1.
          5    1    4    4  501    0  0.46902024068E+02 -0.66592416956E+02 -0.92766393414E+02  0.12352095371E+03  0.41800000000E+01 0. -1.
         -5    1    4    4    0  501  0.20688598636E+01  0.52448574641E+02 -0.80085812916E+02  0.95845411958E+02  0.41800000000E+01 0. -1.
</event>
<event>
11    1  0.6625361E-009  0.1290803E+03  0.7561462E-02  0.1120404E+00
         22   -1    0    0    0    0  0.00000000000E+00  0.00000000000E+00  0.19626768660E+03  0.19626768660E+03  0.00000000000E+00 0. -1.
         22   -1    0    0    0    0 -0.00000000000E+00 -0.00000000000E+00 -0.43357396560E+03  0.43357396560E+03  0.00000000000E+00 0. -1.
        -24    2    1    2    0    0 -0.13938215704E+02  0.66317077339E+01 -0.20129306439E+03  0.21767763556E+03  0.81402713991E+02 0.  0.
         25    2    1    2    0    0  0.33256720540E+01 -0.36552364959E+02 -0.19193527542E+03  0.23202152766E+03  0.12509078252E+03 0.  0.
         24    2    1    2    0    0  0.10612543650E+02  0.29920657225E+02  0.15592206081E+03  0.18014248897E+03  0.84449721581E+02 0.  0.
        -11    1    5    5    0    0 -0.17250381303E+02  0.16274058035E+02  0.27666960444E+01  0.23876248178E+02  0.00000000000E+00 0.  1.
         12    1    5    5    0    0  0.27862924954E+02  0.13646599190E+02  0.15315536476E+03  0.15626624079E+03  0.00000000000E+00 0. -1.
         13    1    3    3    0    0 -0.41662986833E+02 -0.17346440485E+02 -0.12813616529E+03  0.13585131698E+03  0.00000000000E+00 0. -1.
        -14    1    3    3    0    0  0.27724771128E+02  0.23978148219E+02 -0.73156899099E+02  0.81826318577E+02  0.00000000000E+00 0.  1.
          5    1    4    4  501    0  0.23789258650E+02  0.36788340803E+02 -0.11744598738E+03  0.12542066495E+03  0.41800000000E+01 0.  1.
         -5    1    4    4    0  501 -0.20463586596E+02 -0.73340705761E+02 -0.74489288039E+02  0.10660086271E+03  0.41800000000E+01 0.  1.
</event>
<event>
11    1  0.6625361E-009  0.1699130E+03  0.7561462E-02  0.1078107E+00
         22   -1    0    0    0    0  0.00000000000E+00  0.00000000000E+00  0.21564116503E+03  0.21564116503E+03  0.00000000000E+00 0.  1.
         22   -1    0    0    0    0 -0.00000000000E+00 -0.00000000000E+00 -0.77414453607E+03  0.77414453607E+03  0.00000000000E+00 0. -1.
         24    2    1    2    0    0 -0.22373712909E+02  0.11946390842E+03 -0.63946578308E+03  0.65650349120E+03  0.85487646960E+02 0.  0.
         25    2    1    2    0    0  0.60482539987E+02 -0.62233276319E+02 -0.54031725075E+02  0.16154719532E+03  0.12508777189E+03 0.  0.
        -24    2    1    2    0    0 -0.38108827078E+02 -0.57230632102E+02  0.13499413711E+03  0.17173501458E+03  0.80881828763E+02 0.  0.
        -11    1    3    3    0    0 -0.13374047158E+02  0.11316412032E+03 -0.37789037079E+03  0.39469749885E+03  0.00000000000E+00 0.  1.
         12    1    3    3    0    0 -0.89996657511E+01  0.62997881008E+01 -0.26157541229E+03  0.26180599235E+03  0.00000000000E+00 0. -1.
         13    1    5    5    0    0  0.64496188745E+01 -0.60999175628E+02  0.81757068443E+02  0.10220917401E+03  0.00000000000E+00 0. -1.
        -14    1    5    5    0    0 -0.44558445952E+02  0.37685435257E+01  0.53237068672E+02  0.69525840569E+02  0.00000000000E+00 0.  1.
          5    1    4    4  501    0  0.83070320153E+02 -0.20321045419E+02  0.47903222918E+01  0.85755714474E+02  0.41800000000E+01 0. -1.
         -5    1    4    4    0  501 -0.22587780166E+02 -0.41912230900E+02 -0.58822047366E+02  0.75791480842E+02  0.41800000000E+01 0. -1.
</event>
<event>
11    1  0.6625361E-009  0.2006125E+03  0.7561462E-02  0.1054091E+00
         22   -1    0    0    0    0  0.00000000000E+00  0.00000000000E+00  0.44208426107E+03  0.44208426107E+03  0.00000000000E+00 0. -1.
         22   -1    0    0    0    0 -0.00000000000E+00 -0.00000000000E+00 -0.11615228568E+04  0.11615228568E+04  0.00000000000E+00 0.  1.
        -24    2    1    2    0    0 -0.23509365321E+00  0.19019604283E+02 -0.10780836594E+04  0.10812176873E+04  0.80034431065E+02 0.  0.
         25    2    1    2    0    0 -0.14553044200E+03 -0.67534548081E+02  0.21661749034E+03  0.29717185573E+03  0.12509176624E+03 0.  0.
         24    2    1    2    0    0  0.14576553565E+03  0.48514943799E+02  0.14202757326E+03  0.22521757487E+03  0.83365660256E+02 0.  0.
        -11    1    5    5    0    0  0.15799847998E+02  0.16496249365E+02  0.69122657500E+02  0.72799060569E+02  0.00000000000E+00 0.  1.
         12    1    5    5    0    0  0.12996568765E+03  0.32018694434E+02  0.72904915757E+02  0.15241851430E+03  0.00000000000E+00 0. -1.
         11    1    3    3    0    0  0.33051939922E+02  0.26377173632E+02 -0.38908869938E+03  0.39137986919E+03  0.00000000000E+00 0. -1.
        -12    1    3    3    0    0 -0.33287033575E+02 -0.73575693498E+01 -0.68899495999E+03  0.68983781813E+03  0.00000000000E+00 0.  1.
          5    1    4    4  501    0  0.22433500913E+02 -0.35465331244E+01  0.32132856898E+02  0.39570604656E+02  0.41800000000E+01 0. -1.
         -5    1    4    4    0  501 -0.16796394291E+03 -0.63988014957E+02  0.18448463344E+03  0.25760125107E+03  0.41800000000E+01 0. -1.
</event>
<event>
11    1  0.6625361E-009  0.1329293E+03  0.7561462E-02  0.1115721E+00
         22   -1    0    0    0    0  0.00000000000E+00  0.00000000000E+00  0.11093118400E+04  0.11093118400E+04  0.00000000000E+00 0. -1.
         22   -1    0    0    0    0 -0.00000000000E+00 -0.00000000000E+00 -0.29504337148E+03  0.29504337148E+03  0.00000000000E+00 0. -1.
         24    2    1    2    0    0 -0.28103382888E+02  0.36279991019E+02 -0.27007196763E+03  0.28555847598E+03  0.80614748214E+02 0.  0.
         25    2    1    2    0    0 -0.26889369143E+02 -0.32785242692E+02  0.28076838982E+03  0.31028433742E+03  0.12509025146E+03 0.  0.
        -24    2    1    2    0    0  0.54992752032E+02 -0.34947483271E+01  0.80357204628E+03  0.80851239804E+03  0.70198633797E+02 0.  0.
        -11    1    3    3    0    0 -0.38169507577E+02 -0.10617944679E+02 -0.76722049051E+02  0.86347697529E+02  0.00000000000E+00 0.  1.
         12    1    3    3    0    0  0.10066124689E+02  0.46897935698E+02 -0.19334991858E+03  0.19921077845E+03  0.00000000000E+00 0. -1.
         13    1    5    5    0    0 -0.54563274956E+01  0.20513290509E+02  0.30125543068E+03  0.30200231972E+03  0.00000000000E+00 0. -1.
        -14    1    5    5    0    0  0.60449079527E+02 -0.24008038836E+02  0.50231661559E+03  0.50651007833E+03  0.00000000000E+00 0.  1.
          5    1    4    4  501    0  0.46707072033E+02 -0.44449819116E+01  0.63178152248E+02  0.78805201374E+02  0.41800000000E+01 0.  1.
         -5    1    4    4    0  501 -0.73596441177E+02 -0.28340260780E+02  0.21759023758E+03  0.23147913604E+03  0.41800000000E+01 0.  1.
</event>
<event>
11    1  0.6625361E-009  0.1564212E+03  0.7561462E-02  0.1090492E+00
         22   -1    0    0    0    0  0.00000000000E+00  0.00000000000E+00  0.10214509386E+03  0.10214509386E+03  0.00000000000E+00 0. -1.
         22   -1    0    0    0    0 -0.00000000000E+00 -0.00000000000E+00 -0.16651033286E+04  0.16651033286E+04  0.00000000000E+00 0.  1.
         24    2    1    2    0    0 -0.28455599898E+02  0.10621891020E+03 -0.11299327373E+04  0.11380139687E+04  0.78965968023E+02 0.  0.
         25    2    1    2    0    0  0.30809905834E+02 -0.49700560958E+02 -0.49582323501E+03  0.51469204482E+03  0.12509126494E+03 0.  0.
        -24    2    1    2    0    0 -0.23543059355E+01 -0.56518349239E+02  0.62797737558E+02  0.11454240895E+03  0.77308091744E+02 0.  0.
        -11    1    3    3    0    0 -0.20128298755E+02  0.69705060887E+02 -0.10043145121E+04  0.10069317668E+04  0.00000000000E+00 0.  1.
         12    1    3    3    0    0 -0.83273011430E+01  0.36513849309E+02 -0.12561822520E+03  0.13108220183E+03  0.00000000000E+00 0. -1.
         13    1    5    5    0    0 -0.12573800263E+02 -0.71487740153E+02  0.63446467798E+02  0.96405662288E+02  0.00000000000E+00 0. -1.
        -14    1    5    5    0    0  0.10219494327E+02  0.14969390914E+02 -0.64873023975E+00  0.18136746664E+02  0.00000000000E+00 0.  1.
          5    1    4    4  501    0  0.51152402185E+02 -0.57031017283E+02 -0.15297471847E+03  0.17113691032E+03  0.41800000000E+01 0.  1.
         -5    1    4    4    0  501 -0.20342496351E+02  0.73304563251E+01 -0.34284851654E+03  0.34355513450E+03  0.41800000000E+01 0.  1.
</event>
<event>
11    1  0.6625361E-009  0.1673948E+03  0.7561462E-02  0.1080321E+00
         22   -1    0    0    0    0  0.00000000000E+00  0.00000000000E+00  0.80483560602E+02  0.80483560602E+02  0.00000000000E+00 0. -1.
         22   -1    0    0    0    0 -0.00000000000E+00 -0.00000000000E+00 -0.28664298787E+04  0.28664298787E+04  0.00000000000E+00 0.  1.
        -24    2    1    2    0    0  0.83024785589E+02 -0.78003156129E+02 -0.24698715615E+04  0.24745136365E+04  0.99872917822E+02 0.  0.
         25    2    1    2    0    0 -0.54092573163E+02  0.76377730685E+02 -0.34820383090E+03  0.38164501272E+03  0.12508974245E+03 0.  0.
         24    2    1    2    0    0 -0.28932212426E+02  0.16254254448E+01  0.32129074325E+02  0.90754790022E+02  0.79777437733E+02 0.  0.
        -11    1    5    5    0    0 -0.18505911751E+02  0.15377033792E+02 -0.22818892321E+02  0.33160575760E+02  0.00000000000E+00 0.  1.
         12    1    5    5    0    0 -0.10426300675E+02 -0.13751608348E+02  0.54947966646E+02  0.57594214261E+02  0.00000000000E+00 0. -1.
         13    1    3    3    0    0  0.91832061335E+02 -0.42773708321E+02 -0.12488242069E+04  0.12529264213E+04  0.00000000000E+00 0. -1.
        -14    1    3    3    0    0 -0.88072757456E+01 -0.35229447808E+02 -0.12210473546E+04  0.12215872152E+04  0.00000000000E+00 0.  1.
          5    1    4    4  501    0 -0.42692289840E+02  0.10761128783E+03 -0.21425797024E+03  0.24357087488E+03  0.41800000000E+01 0. -1.
         -5    1    4    4    0  501 -0.11400283323E+02 -0.31233557144E+02 -0.13394586066E+03  0.13807413783E+03  0.41800000000E+01 0. -1.
</event>
<event>
11    1  0.6625361E-009  0.1410984E+03  0.7561462E-02  0.1106338E+00
         22   -1    0    0    0    0  0.00000000000E+00  0.00000000000E+00  0.12528116639E+04  0.12528116639E+04  0.00000000000E+00 0. -1.
         22   -1    0    0    0    0 -0.00000000000E+00 -0.00000000000E+00 -0.18048235718E+03  0.18048235718E+03  0.00000000000E+00 0. -1.
         24    2    1    2    0    0  0.61312960259E+01  0.46512853358E+02 -0.19209384093E+02  0.95050052529E+02  0.80401951034E+02 0.  0.
         25    2    1    2    0    0  0.55326215136E+02 -0.67974066288E+02 -0.72883649415E+02  0.16923584435E+03  0.12508909182E+03 0.  0.
        -24    2    1    2    0    0 -0.61457511162E+02  0.21461212929E+02  0.11644223402E+04  0.11690081242E+04  0.80392777447E+02 0.  0.
        -13    1    3    3    0    0 -0.68068969774E+01  0.22898060092E+01 -0.42721546957E+02  0.43320983742E+02  0.00000000000E+00 0.  1.
         14    1    3    3    0    0  0.12938193003E+02  0.44223047349E+02  0.23512162864E+02  0.51729068787E+02  0.00000000000E+00 0. -1.
         13    1    5    5    0    0 -0.52203773853E+02  0.11030297668E+01  0.10911640073E+04  0.10924126242E+04  0.00000000000E+00 0. -1.
        -14    1    5    5    0    0 -0.92537373091E+01  0.20358183162E+02  0.73258332908E+02  0.76595499974E+02  0.00000000000E+00 0.  1.
          5    1    4    4  501    0  0.53646896930E+01  0.20643740418E+02 -0.63348083317E+02  0.66973098882E+02  0.41800000000E+01 0. -1.
         -5    1    4    4    0  501  0.49961525443E+02 -0.88617806705E+02 -0.95355660974E+01  0.10226274547E+03  0.41800000000E+01 0. -1.
</event>
<event>
11    1  0.6625361E-009  0.1625301E+03  0.7561462E-02  0.1084721E+00
         22   -1    0    0    0    0  0.00000000000E+00  0.00000000000E+00  0.80167266142E+03  0.80167266142E+03  0.00000000000E+00 0.  1.
         22   -1    0    0    0    0 -0.00000000000E+00 -0.00000000000E+00 -0.92027320266E+03  0.92027320266E+03  0.00000000000E+00 0.  1.
         24    2    1    2    0    0 -0.25720612009E+01  0.89158988292E+02 -0.85079073974E+03  0.85920434999E+03  0.80195333604E+02 0.  0.
         25    2    1    2    0    0  0.71485678016E+02 -0.15742209357E+03  0.13561522445E+03  0.25284197992E+03  0.12508261270E+03 0.  0.
        -24    2    1    2    0    0 -0.68913616815E+02  0.68263105279E+02  0.59657497405E+03  0.60989953418E+03  0.81650499102E+02 0.  0.
        -13    1    3    3    0    0 -0.15107258960E+02  0.10128821633E+03 -0.73858135700E+03  0.74564733819E+03  0.00000000000E+00 0.  1.
         14    1    3    3    0    0  0.12535197759E+02 -0.12129228036E+02 -0.11220938273E+03  0.11355701180E+03  0.00000000000E+00 0. -1.
         11    1    5    5    0    0  0.65549023295E+01 -0.11770025552E+02  0.12203360381E+03  0.12277500033E+03  0.00000000000E+00 0. -1.
        -12    1    5    5    0    0 -0.75468519145E+02  0.80033130831E+02  0.47454137023E+03  0.48712453385E+03  0.00000000000E+00 0.  1.
          5    1    4    4  501    0 -0.35271283495E+02 -0.54458270052E+02  0.41303096792E+02  0.77027169369E+02  0.41800000000E+01 0.  1.
         -5    1    4    4    0  501  0.10675696151E+03 -0.10296382352E+03  0.94312127657E+02  0.17581481055E+03  0.41800000000E+01 0.  1.
</event>
<event>
11    1  0.6625361E-009  0.1608495E+03  0.7561462E-02  0.1086281E+00
         22   -1    0    0    0    0  0.00000000000E+00  0.00000000000E+00  0.12707762673E+04  0.12707762673E+04  0.00000000000E+00 0.  1.
         22   -1    0    0    0    0 -0.00000000000E+00 -0.00000000000E+00 -0.43647874135E+03  0.43647874135E+03  0.00000000000E+00 0.  1.
        -24    2    1    2    0    0 -0.11535990271E+03 -0.19890102452E+02 -0.23511859116E+03  0.27479060795E+03  0.80781204383E+02 0.  0.
         25    2    1    2    0    0  0.78631446140E+02 -0.16919212817E+02 -0.14888321706E+03  0.21043776339E+03  0.12509466758E+03 0.  0.
         24    2    1    2    0    0  0.36728456571E+02  0.36809315269E+02  0.12182993342E+04  0.12220266373E+04  0.79949543032E+02 0.  0.
        -13    1    5    5    0    0  0.53206227965E+02  0.19496098260E+02  0.10930100495E+04  0.10944779436E+04  0.00000000000E+00 0.  1.
         14    1    5    5    0    0 -0.16477771394E+02  0.17313217009E+02  0.12528928466E+03  0.12754869378E+03  0.00000000000E+00 0. -1.
         13    1    3    3    0    0 -0.36106936242E+02 -0.45610328478E+02 -0.83150657901E+02  0.10147928270E+03  0.00000000000E+00 0. -1.
        -14    1    3    3    0    0 -0.79252966468E+02  0.25720226026E+02 -0.15196793326E+03  0.17331132525E+03  0.00000000000E+00 0.  1.
          5    1    4    4  501    0  0.65721154851E+02  0.52751583140E+01 -0.16642738397E+03  0.17906044796E+03  0.41800000000E+01 0.  1.
         -5    1    4    4    0  501  0.12910291289E+02 -0.22194371131E+02  0.17544166910E+02  0.31377315430E+02  0.41800000000E+01 0.  1.
</event>
<event>
11    1  0.6625361E-009  0.1336519E+03  0.7561462E-02  0.1114862E+00
         22   -1    0    0    0    0  0.00000000000E+00  0.00000000000E+00  0.12275040505E+03  0.12275040505E+03  0.00000000000E+00 0.  1.
         22   -1    0    0    0    0 -0.00000000000E+00 -0.00000000000E+00 -0.30348398211E+03  0.30348398211E+03  0.00000000000E+00 0.  1.
        -24    2    1    2    0    0 -0.53362922882E+02 -0.52942276237E+01 -0.17496597598E+03  0.19965794139E+03  0.79840906976E+02 0.  0.
         25    2    1    2    0    0  0.20986933029E+02  0.12521657080E+02 -0.40722511378E+02  0.13380136709E+03  0.12508892696E+03 0.  0.
         24    2    1    2    0    0  0.32375989853E+02 -0.72274294567E+01  0.34954910298E+02  0.92775078680E+02  0.79277544202E+02 0.  0.
        -11    1    5    5    0    0  0.56842521676E+02  0.46958265783E+00  0.35682948279E+02  0.67116060495E+02  0.00000000000E+00 0.  1.
         12    1    5    5    0    0 -0.24466531823E+02 -0.76970121145E+01 -0.72803798133E+00  0.25659018186E+02  0.00000000000E+00 0. -1.
         13    1    3    3    0    0 -0.17909490728E+02 -0.15766936660E+02 -0.33374966586E+01  0.24093257018E+02  0.00000000000E+00 0. -1.
        -14    1    3    3    0    0 -0.35453432154E+02  0.10472709037E+02 -0.17162847932E+03  0.17556468438E+03  0.00000000000E+00 0.  1.
          5    1    4    4  501    0  0.45628660979E+02 -0.30738452070E+02 -0.58834439814E+02  0.80658482794E+02  0.41800000000E+01 0.  1.
         -5    1    4    4    0  501 -0.24641727949E+02  0.43260109150E+02  0.18111928436E+02  0.53142884299E+02  0.41800000000E+01 0.  1.
</event>
<event>
11    1  0.6625361E-009  0.3089247E+03  0.7561462E-02  0.9964833E-01
         22   -1    0    0    0    0  0.00000000000E+00  0.00000000000E+00  0.34219132396E+03  0.34219132396E+03  0.00000000000E+00 0.  1.
         22   -1    0    0    0    0 -0.00000000000E+00 -0.00000000000E+00 -0.31142581605E+04  0.31142581605E+04  0.00000000000E+00 0. -1.
         24    2    1    2    0    0  0.44888463472E+02  0.28265763200E+03 -0.29699197673E+04  0.29847327778E+04  0.79347461951E+02 0.  0.
         25    2    1    2    0    0 -0.36015556093E+02 -0.21544903765E+03  0.21549654052E+01  0.25173142032E+03  0.12509458819E+03 0.  0.
        -24    2    1    2    0    0 -0.88729073795E+01 -0.67208594347E+02  0.19569796540E+03  0.21998528628E+03  0.74162718914E+02 0.  0.
        -13    1    3    3    0    0  0.13431622225E+02  0.24378409901E+03 -0.26020834142E+04  0.26135128065E+04  0.00000000000E+00 0.  1.
         14    1    3    3    0    0  0.31456841247E+02  0.38873532992E+02 -0.36783635311E+03  0.37121997131E+03  0.00000000000E+00 0. -1.
         13    1    5    5    0    0 -0.71988451492E+01 -0.33716940027E+02  0.17508333420E+02  0.38667779293E+02  0.00000000000E+00 0. -1.
        -14    1    5    5    0    0 -0.16740622303E+01 -0.33491654320E+02  0.17818963198E+03  0.18131750699E+03  0.00000000000E+00 0.  1.
          5    1    4    4  501    0  0.37760181130E+02 -0.14033159520E+03 -0.96418498060E+01  0.14570252420E+03  0.41800000000E+01 0. -1.
         -5    1    4    4    0  501 -0.73775737223E+02 -0.75117442451E+02  0.11796815211E+02  0.10602889612E+03  0.41800000000E+01 0. -1.
</event>
<event>
11    1  0.6625361E-009  0.1333392E+03  0.7561462E-02  0.1115233E+00
         22   -1    0    0    0    0  0.00000000000E+00  0.00000000000E+00  0.51097834094E+03  0.51097834094E+03  0.00000000000E+00 0. -1.
         22   -1    0    0    0    0 -0.00000000000E+00 -0.00000000000E+00 -0.58750877564E+03  0.58750877564E+03  0.00000000000E+00 0.  1.
        -24    2    1    2    0    0  0.33935211529E+01 -0.18594571662E+02 -0.53680689868E+03  0.54310612562E+03  0.80282894414E+02 0.  0.
         25    2    1    2    0    0  0.30754337453E+01  0.62305837789E+02  0.73208140418E+02  0.15779225448E+03  0.12508991980E+03 0.  0.
         24    2    1    2    0    0 -0.64689548982E+01 -0.43711266127E+02  0.38706832357E+03  0.39758873648E+03  0.79387619322E+02 0.  0.
        -11    1    5    5    0    0 -0.49782146287E+01 -0.39689114931E+02  0.71008365849E+02  0.81499671689E+02  0.00000000000E+00 0.  1.
         12    1    5    5    0    0 -0.14907402696E+01 -0.40221511966E+01  0.31605995772E+03  0.31608906479E+03  0.00000000000E+00 0. -1.
         11    1    3    3    0    0  0.55351046628E+01 -0.21743914912E+02 -0.36909962903E+02  0.43194682322E+02  0.00000000000E+00 0. -1.
        -12    1    3    3    0    0 -0.21415835098E+01  0.31493432502E+01 -0.49989693577E+03  0.49991144330E+03  0.00000000000E+00 0.  1.
          5    1    4    4  501    0  0.20345589510E+01 -0.30389530220E+02  0.55319858457E+02  0.63288404284E+02  0.41800000000E+01 0. -1.
         -5    1    4    4    0  501  0.10408747943E+01  0.92695368009E+02  0.17888281962E+02  0.94503850198E+02  0.41800000000E+01 0. -1.
</event>
<event>
11    1  0.6625361E-009  0.1394481E+03  0.7561462E-02  0.1108176E+00
         22   -1    0    0    0    0  0.00000000000E+00  0.00000000000E+00  0.44299370888E+03  0.44299370888E+03  0.00000000000E+00 0. -1.
         22   -1    0    0    0    0 -0.00000000000E+00 -0.00000000000E+00 -0.53929101703E+03  0.53929101703E+03  0.00000000000E+00 0.  1.
        -24    2    1    2    0    0 -0.73520144684E+02  0.37692852432E+02 -0.48271745965E+03  0.49305862241E+03  0.57137522587E+02 0.  0.
         25    2    1    2    0    0  0.30317374782E+01 -0.52324131068E+02  0.65242446567E+02  0.15049577155E+03  0.12508155058E+03 0.  0.
         24    2    1    2    0    0  0.70488407205E+02  0.14631278636E+02  0.32117770493E+03  0.33873033196E+03  0.80002686075E+02 0.  0.
        -11    1    5    5    0    0 -0.12845358626E+02  0.82975866325E+00  0.10023308830E+02  0.16314363536E+02  0.00000000000E+00 0.  1.
         12    1    5    5    0    0  0.83333765831E+02  0.13801519973E+02  0.31115439610E+03  0.32241596842E+03  0.00000000000E+00 0. -1.
         13    1    3    3    0    0  0.13141619683E+01  0.24176530632E+02 -0.10391177597E+03  0.10669530843E+03  0.00000000000E+00 0. -1.
        -14    1    3    3    0    0 -0.74834306652E+02  0.13516321800E+02 -0.37880568367E+03  0.38636331398E+03  0.00000000000E+00 0.  1.
          5    1    4    4  501    0  0.36194319686E+02  0.56889844840E+01 -0.20120282715E+02  0.42008231319E+02  0.41800000000E+01 0. -1.
         -5    1    4    4    0  501 -0.33162582208E+02 -0.58013115552E+02  0.85362729282E+02  0.10848754023E+03  0.41800000000E+01 0. -1.
</event>
<event>
11    1  0.6625361E-009  0.1493697E+03  0.7561462E-02  0.1097525E+00
         22   -1    0    0    0    0  0.00000000000E+00  0.00000000000E+00  0.46154675519E+03  0.46154675519E+03  0.00000000000E+00 0.  1.
         22   -1    0    0    0    0 -0.00000000000E+00 -0.00000000000E+00 -0.25767778581E+04  0.25767778581E+04  0.00000000000E+00 0.  1.
        -24    2    1    2    0    0  0.87670804162E+01 -0.51735470689E+02 -0.23926016102E+04  0.23946927731E+04  0.85191502606E+02 0.  0.
         25    2    1    2    0    0  0.47379004634E+02  0.10916754858E+03 -0.13299650500E+03  0.21794176461E+03  0.12509284023E+03 0.  0.
         24    2    1    2    0    0 -0.56146085050E+02 -0.57432077895E+02  0.41036701225E+03  0.42569007555E+03  0.79750418441E+02 0.  0.
        -13    1    5    5    0    0  0.15997748798E+01 -0.22237156570E+02  0.25834376521E+03  0.25930397497E+03  0.00000000000E+00 0.  1.
         14    1    5    5    0    0 -0.57745859930E+02 -0.35194921325E+02  0.15202324704E+03  0.16638610058E+03  0.00000000000E+00 0. -1.
         13    1    3    3    0    0  0.17230258558E+02 -0.26994017574E+02 -0.26465390888E+03  0.26658441492E+03  0.00000000000E+00 0. -1.
        -14    1    3    3    0    0 -0.84631781413E+01 -0.24741453115E+02 -0.21279477013E+04  0.21281083582E+04  0.00000000000E+00 0.  1.
          5    1    4    4  501    0  0.20400779528E+02 -0.24966137714E+02 -0.43854453986E+02  0.54591074106E+02  0.41800000000E+01 0. -1.
         -5    1    4    4    0  501  0.26978225106E+02  0.13413368630E+03 -0.89142051017E+02  0.16335069051E+03  0.41800000000E+01 0. -1.
</event>
<event>
11    1  0.6728997E-009  0.1529928E+03  0.7561462E-02  0.1093859E+00
         22   -1    0    0    0    0  0.00000000000E+00  0.00000000000E+00  0.31717313872E+03  0.31717313872E+03  0.00000000000E+00 0. -1.
         22   -1    0    0    0    0 -0.00000000000E+00 -0.00000000000E+00 -0.78880483710E+03  0.78880483710E+03  0.00000000000E+00 0. -1.
        -24    2    1    2    0    0 -0.21957775756E+01  0.88866966140E+02 -0.58867705543E+03  0.60074937407E+03  0.80355309419E+02 0.  0.
         25    2    1    2    0    0  0.76346224574E+02 -0.35464965532E+02 -0.14932945621E+03  0.21221297108E+03  0.12509415980E+03 0.  0.
         24    2    1    2    0    0 -0.74150446998E+02 -0.53402000608E+02  0.26637481325E+03  0.29301563068E+03  0.80947861165E+02 0.  0.
        -11    1    5    5    0    0 -0.89353897261E+02 -0.30282398153E+02  0.20973774065E+03  0.22998056971E+03  0.00000000000E+00 0.  1.
         12    1    5    5    0    0  0.15203450263E+02 -0.23119602455E+02  0.56637072606E+02  0.63035060965E+02  0.00000000000E+00 0. -1.
         11    1    3    3    0    0 -0.28479667483E+02  0.69480801469E+02 -0.26514784592E+03  0.27557585785E+03  0.00000000000E+00 0. -1.
        -12    1    3    3    0    0  0.26283889907E+02  0.19386164671E+02 -0.32352920951E+03  0.32517351622E+03  0.00000000000E+00 0.  1.
          5    1    4    4  501    0  0.50703528218E+01 -0.66625554871E+02 -0.40065828284E+02  0.78021894592E+02  0.41800000000E+01 0.  1.
         -5    1    4    4    0  501  0.71275871752E+02  0.31160589340E+02 -0.10926362792E+03  0.13419107649E+03  0.41800000000E+01 0.  1.
</event>
<event>
11    1  0.6625361E-009  0.2039592E+03  0.7561462E-02  0.1051759E+00
         22   -1    0    0    0    0  0.00000000000E+00  0.00000000000E+00  0.16466648083E+03  0.16466648083E+03  0.00000000000E+00 0.  1.
         22   -1    0    0    0    0 -0.00000000000E+00 -0.00000000000E+00 -0.82453549164E+03  0.82453549164E+03  0.00000000000E+00 0. -1.
        -24    2    1    2    0    0 -0.38364532296E+02 -0.17041531980E+02 -0.58951132148E+03  0.59629055944E+03  0.79224882298E+02 0.  0.
         25    2    1    2    0    0  0.23401164164E+02  0.17023653446E+03 -0.33918322927E+02  0.21523542099E+03  0.12509093361E+03 0.  0.
         24    2    1    2    0    0  0.14963368132E+02 -0.15319500248E+03 -0.36439366400E+02  0.17767599203E+03  0.80921687765E+02 0.  0.
        -13    1    5    5    0    0  0.15437989514E+02 -0.16277967697E+03 -0.30328380505E+02  0.16629902411E+03  0.00000000000E+00 0.  1.
         14    1    5    5    0    0 -0.47462138199E+00  0.95846744921E+01 -0.61109858946E+01  0.11376967926E+02  0.00000000000E+00 0. -1.
         11    1    3    3    0    0  0.21871172651E+02 -0.56060671574E+01 -0.27051387375E+03  0.27145447514E+03  0.00000000000E+00 0. -1.
        -12    1    3    3    0    0 -0.60235704947E+02 -0.11435464823E+02 -0.31899744773E+03  0.32483608431E+03  0.00000000000E+00 0.  1.
          5    1    4    4  501    0  0.27040803492E+02 -0.10784393442E+02  0.54218393548E+01  0.29906135447E+02  0.41800000000E+01 0.  1.
         -5    1    4    4    0  501 -0.36396393277E+01  0.18102092790E+03 -0.39340162282E+02  0.18532928554E+03  0.41800000000E+01 0.  1.
</event>
<event>
11    1  0.6625361E-009  0.1777986E+03  0.7561462E-02  0.1071438E+00
         22   -1    0    0    0    0  0.00000000000E+00  0.00000000000E+00  0.13273966026E+04  0.13273966026E+04  0.00000000000E+00 0.  1.
         22   -1    0    0    0    0 -0.00000000000E+00 -0.00000000000E+00 -0.77548002314E+03  0.77548002314E+03  0.00000000000E+00 0.  1.
         24    2    1    2    0    0  0.13911054197E+01 -0.12905454594E+03 -0.70393281752E+03  0.72030750210E+03  0.81636235850E+02 0.  0.
         25    2    1    2    0    0  0.18051121257E+02  0.93571471839E+02  0.38504727668E+02  0.16188273556E+03  0.12506775243E+03 0.  0.
        -24    2    1    2    0    0 -0.19442226677E+02  0.35483074104E+02  0.12173446693E+04  0.12206863881E+04  0.80685596040E+02 0.  0.
        -13    1    3    3    0    0  0.61892394426E+01 -0.62272123888E+02 -0.53409248104E+03  0.53774613193E+03  0.00000000000E+00 0.  1.
         14    1    3    3    0    0 -0.47981340230E+01 -0.66782422055E+02 -0.16984033648E+03  0.18256137017E+03  0.00000000000E+00 0. -1.
         13    1    5    5    0    0 -0.17672941955E+01 -0.81870554421E+01  0.13281408241E+02  0.15701815514E+02  0.00000000000E+00 0. -1.
        -14    1    5    5    0    0 -0.17674932481E+02  0.43670129546E+02  0.12040632611E+04  0.12049845726E+04  0.00000000000E+00 0.  1.
          5    1    4    4  501    0 -0.49442955015E+02  0.19243669380E+02  0.29860770998E+02  0.61025098577E+02  0.41800000000E+01 0. -1.
         -5    1    4    4    0  501  0.67494076272E+02  0.74327802460E+02  0.86439566695E+01  0.10085763698E+03  0.41800000000E+01 0. -1.
</event>
<event>
11    1  0.6625361E-009  0.1340576E+03  0.7561462E-02  0.1114382E+00
         22   -1    0    0    0    0  0.00000000000E+00  0.00000000000E+00  0.13999938339E+04  0.13999938339E+04  0.00000000000E+00 0.  1.
         22   -1    0    0    0    0 -0.00000000000E+00 -0.00000000000E+00 -0.10788440604E+04  0.10788440604E+04  0.00000000000E+00 0. -1.
        -24    2    1    2    0    0 -0.24799012844E+02 -0.41804755386E+02 -0.10212390544E+04  0.10257296408E+04  0.82640553252E+02 0.  0.
         25    2    1    2    0    0 -0.16069746753E+02  0.46980366517E+02  0.30286806223E+02  0.13795576284E+03  0.12509640391E+03 0.  0.
         24    2    1    2    0    0  0.40868759597E+02 -0.51756111313E+01  0.13121020217E+04  0.13151524907E+04  0.79481544118E+02 0.  0.
        -11    1    5    5    0    0  0.52491583819E+02  0.24275738841E+02  0.86348681471E+03  0.86542137542E+03  0.00000000000E+00 0.  1.
         12    1    5    5    0    0 -0.11622824222E+02 -0.29451349972E+02  0.44861520703E+03  0.44973111526E+03  0.00000000000E+00 0. -1.
         13    1    3    3    0    0  0.19130345643E+02 -0.27210295111E+02 -0.73664120995E+03  0.73739178358E+03  0.00000000000E+00 0. -1.
        -14    1    3    3    0    0 -0.43929358487E+02 -0.14594460275E+02 -0.28459784446E+03  0.28833785718E+03  0.00000000000E+00 0.  1.
          5    1    4    4  501    0 -0.29427398304E+02  0.29294003940E+02 -0.43808160495E+02  0.60504030971E+02  0.41800000000E+01 0.  1.
         -5    1    4    4    0  501  0.13357651551E+02  0.17686362577E+02  0.74094966718E+02  0.77451731866E+02  0.41800000000E+01 0.  1.
</event>
<event>
11    1  0.6625361E-009  0.1440095E+03  0.7561462E-02  0.1103162E+00
         22   -1    0    0    0    0  0.00000000000E+00  0.00000000000E+00  0.65704752343E+03  0.65704752343E+03  0.00000000000E+00 0. -1.
         22   -1    0    0    0    0 -0.00000000000E+00 -0.00000000000E+00 -0.17503406660E+03  0.17503406660E+03  0.00000000000E+00 0.  1.
         24    2    1    2    0    0  0.14198068448E+02 -0.30371621634E+01 -0.85682224908E+02  0.11745500766E+03  0.79015350772E+02 0.  0.
         25    2    1    2    0    0  0.32940633716E+02 -0.51611957846E+02  0.26421392313E+01  0.13929063606E+03  0.12508405515E+03 0.  0.
        -24    2    1    2    0    0 -0.47138702163E+02  0.54649120009E+02  0.56505354250E+03  0.57533594631E+03  0.80730178141E+02 0.  0.
        -11    1    3    3    0    0 -0.76761690392E+01  0.34520165772E+02 -0.49885097380E+02  0.61148085470E+02  0.00000000000E+00 0.  1.
         12    1    3    3    0    0  0.21874237487E+02 -0.37557327935E+02 -0.35797127528E+02  0.56306922190E+02  0.00000000000E+00 0. -1.
         13    1    5    5    0    0 -0.55068248233E+02  0.67847250676E+02  0.39313492532E+03  0.40272922776E+03  0.00000000000E+00 0. -1.
        -14    1    5    5    0    0  0.79295460693E+01 -0.13198130666E+02  0.17191861718E+03  0.17260671855E+03  0.00000000000E+00 0.  1.
          5    1    4    4  501    0  0.75808763209E+02 -0.18604454262E+02 -0.19687774016E+02  0.80611259408E+02  0.41800000000E+01 0.  1.
         -5    1    4    4    0  501 -0.42868129494E+02 -0.33007503584E+02  0.22329913247E+02  0.58679376656E+02  0.41800000000E+01 0.  1.
</event>
<event>
11    1  0.6625361E-009  0.2016027E+03  0.7561462E-02  0.1053396E+00
         22   -1    0    0    0    0  0.00000000000E+00  0.00000000000E+00  0.44557762828E+03  0.44557762828E+03  0.00000000000E+00 0. -1.
         22   -1    0    0    0    0 -0.00000000000E+00 -0.00000000000E+00 -0.93049036183E+03  0.93049036183E+03  0.00000000000E+00 0.  1.
         24    2    1    2    0    0 -0.12690540122E+03 -0.10411747213E+03 -0.85130181708E+03  0.87073766146E+03  0.80770430591E+02 0.  0.
         25    2    1    2    0    0  0.10382184484E+03  0.57216829121E+01  0.61520510627E+02  0.17390976645E+03  0.12509244788E+03 0.  0.
        -24    2    1    2    0    0  0.23083556381E+02  0.98395789221E+02  0.30486857290E+03  0.33142056220E+03  0.81732248194E+02 0.  0.
        -13    1    3    3    0    0 -0.77531281132E+02 -0.61757763369E+02 -0.68550912442E+03  0.69263834759E+03  0.00000000000E+00 0.  1.
         14    1    3    3    0    0 -0.49374120088E+02 -0.42359708763E+02 -0.16579269266E+03  0.17809931387E+03  0.00000000000E+00 0. -1.
         13    1    5    5    0    0  0.39600641277E+02  0.90394910062E+02  0.29392964845E+03  0.31005497705E+03  0.00000000000E+00 0. -1.
        -14    1    5    5    0    0 -0.16517084896E+02  0.80008791584E+01  0.10938924453E+02  0.21365585153E+02  0.00000000000E+00 0.  1.
          5    1    4    4  501    0  0.10427913069E+03 -0.31557294168E+02  0.76840973110E+02  0.13338668397E+03  0.41800000000E+01 0.  1.
         -5    1    4    4    0  501 -0.45728585104E+00  0.37278977080E+02 -0.15320462483E+02  0.40523082474E+02  0.41800000000E+01 0.  1.
</event>
<event>
11    1  0.6625361E-009  0.1459038E+03  0.7561462E-02  0.1101139E+00
         22   -1    0    0    0    0  0.00000000000E+00  0.00000000000E+00  0.22326526636E+03  0.22326526636E+03  0.00000000000E+00 0.  1.
         22   -1    0    0    0    0 -0.00000000000E+00 -0.00000000000E+00 -0.31608657953E+04  0.31608657953E+04  0.00000000000E+00 0. -1.
         24    2    1    2    0    0  0.37382120905E+02 -0.11368684953E+02 -0.27469851241E+04  0.27484314033E+04  0.80132620800E+02 0.  0.
         25    2    1    2    0    0 -0.65430907445E+02  0.80088318838E+02 -0.38203127955E+03  0.41507924479E+03  0.12509012127E+03 0.  0.
        -24    2    1    2    0    0  0.28048786540E+02 -0.68719633885E+02  0.19141587465E+03  0.22062041358E+03  0.80772565350E+02 0.  0.
        -11    1    3    3    0    0 -0.14216540125E+02  0.22588693731E+02 -0.68023357994E+03  0.68075699216E+03  0.00000000000E+00 0.  1.
         12    1    3    3    0    0  0.51598661029E+02 -0.33957378684E+02 -0.20667515441E+04  0.20676744111E+04  0.00000000000E+00 0. -1.
         11    1    5    5    0    0  0.15954870330E+02  0.13650624237E+02  0.15826532443E+02  0.26294040361E+02  0.00000000000E+00 0. -1.
        -12    1    5    5    0    0  0.12093916209E+02 -0.82370258123E+02  0.17558934220E+03  0.19432637322E+03  0.00000000000E+00 0.  1.
          5    1    4    4  501    0  0.87815023860E+01  0.64983253700E+02 -0.79271951789E+02  0.10296335652E+03  0.41800000000E+01 0.  1.
         -5    1    4    4    0  501 -0.74212409831E+02  0.15105065138E+02 -0.30275932776E+03  0.31211588827E+03  0.41800000000E+01 0.  1.
</event>
<event>
11    1  0.6625361E-009  0.1265037E+03  0.7561462E-02  0.1123641E+00
         22   -1    0    0    0    0  0.00000000000E+00  0.00000000000E+00  0.16242188899E+03  0.16242188899E+03  0.00000000000E+00 0.  1.
         22   -1    0    0    0    0 -0.00000000000E+00 -0.00000000000E+00 -0.75169797678E+03  0.75169797678E+03  0.00000000000E+00 0. -1.
        -24    2    1    2    0    0  0.16388623894E+02 -0.65879907041E+01 -0.63871730066E+03  0.64400658272E+03  0.80453090696E+02 0.  0.
         25    2    1    2    0    0 -0.33915936305E+02  0.20370793768E+02 -0.50938916933E+02  0.14073957543E+03  0.12509034679E+03 0.  0.
         24    2    1    2    0    0  0.17527312411E+02 -0.13782803064E+02  0.10038012980E+03  0.12937370763E+03  0.78512504907E+02 0.  0.
        -13    1    5    5    0    0  0.38368675021E+02 -0.30179865451E+02  0.38904093043E+02  0.62422015002E+02  0.00000000000E+00 0.  1.
         14    1    5    5    0    0 -0.20841362610E+02  0.16397062387E+02  0.61476036762E+02  0.66951692632E+02  0.00000000000E+00 0. -1.
         13    1    3    3    0    0 -0.25465163891E+02 -0.23871256387E+02 -0.35324415819E+03  0.35496443026E+03  0.00000000000E+00 0. -1.
        -14    1    3    3    0    0  0.41853787785E+02  0.17283265683E+02 -0.28547314247E+03  0.28904215246E+03  0.00000000000E+00 0.  1.
          5    1    4    4  501    0 -0.57811173927E+02  0.54374223839E+02 -0.57986343563E+02  0.98379756498E+02  0.41800000000E+01 0. -1.
         -5    1    4    4    0  501  0.23895237622E+02 -0.34003430071E+02  0.70474266297E+01  0.42359818929E+02  0.41800000000E+01 0. -1.
</event>
<event>
11    1  0.6625361E-009  0.1430408E+03  0.7561462E-02  0.1104210E+00
         22   -1    0    0    0    0  0.00000000000E+00  0.00000000000E+00  0.22961220835E+04  0.22961220835E+04  0.00000000000E+00 0. -1.
         22   -1    0    0    0    0 -0.00000000000E+00 -0.00000000000E+00 -0.14904553951E+04  0.14904553951E+04  0.00000000000E+00 0. -1.
         24    2    1    2    0    0 -0.63175244664E+02  0.29119501912E+02 -0.14802085100E+04  0.14840070499E+04  0.80128859155E+02 0.  0.
         25    2    1    2    0    0  0.61021562558E+01 -0.22939613541E+02  0.57829225826E+03  0.59214142882E+03  0.12508426595E+03 0.  0.
        -24    2    1    2    0    0  0.57073088409E+02 -0.61798883716E+01  0.17075829401E+04  0.17104289999E+04  0.80201856353E+02 0.  0.
        -13    1    3    3    0    0  0.14863535633E+02  0.23147557522E+02 -0.33538972550E+03  0.33651597597E+03  0.00000000000E+00 0.  1.
         14    1    3    3    0    0 -0.78038780297E+02  0.59719443904E+01 -0.11448187845E+04  0.11474910739E+04  0.00000000000E+00 0. -1.
         11    1    5    5    0    0  0.45028084950E+02  0.18298489599E+02  0.15291752603E+04  0.15299474958E+04  0.00000000000E+00 0. -1.
        -12    1    5    5    0    0  0.12045003459E+02 -0.24478377971E+02  0.17840767983E+03  0.18048150409E+03  0.00000000000E+00 0.  1.
          5    1    4    4  501    0  0.43254779519E+02  0.23526483738E+02  0.42154583247E+03  0.42443236523E+03  0.41800000000E+01 0. -1.
         -5    1    4    4    0  501 -0.37152623263E+02 -0.46466097278E+02  0.15674642579E+03  0.16770906359E+03  0.41800000000E+01 0. -1.
</event>
<event>
11    1  0.6625361E-009  0.1396032E+03  0.7561462E-02  0.1108002E+00
         22   -1    0    0    0    0  0.00000000000E+00  0.00000000000E+00  0.30266400156E+03  0.30266400156E+03  0.00000000000E+00 0.  1.
         22   -1    0    0    0    0 -0.00000000000E+00 -0.00000000000E+00 -0.36883912895E+03  0.36883912895E+03  0.00000000000E+00 0.  1.
         24    2    1    2    0    0  0.42300175318E+02 -0.41192966067E+02 -0.28293795782E+03  0.30019811919E+03  0.81110156613E+02 0.  0.
         25    2    1    2    0    0 -0.60057708150E+02  0.70544708383E+02  0.21327017088E+02  0.15711871954E+03  0.12509183099E+03 0.  0.
        -24    2    1    2    0    0  0.17757532832E+02 -0.29351742315E+02  0.19543581334E+03  0.21418629178E+03  0.80645865997E+02 0.  0.
        -13    1    3    3    0    0  0.41597974097E+02 -0.62233541777E+02 -0.25117309042E+03  0.26209030223E+03  0.00000000000E+00 0.  1.
         14    1    3    3    0    0  0.70220122051E+00  0.21040575709E+02 -0.31764867394E+02  0.38107816958E+02  0.00000000000E+00 0. -1.
         11    1    5    5    0    0 -0.11490975766E+02 -0.17891935982E+02  0.59035867887E+01  0.22068444309E+02  0.00000000000E+00 0. -1.
        -12    1    5    5    0    0  0.29248508598E+02 -0.11459806333E+02  0.18953222655E+03  0.19211784747E+03  0.00000000000E+00 0.  1.
          5    1    4    4  501    0 -0.20081450699E+02 -0.31274147748E+02  0.29085133634E+02  0.47378838927E+02  0.41800000000E+01 0.  1.
         -5    1    4    4    0  501 -0.39976257451E+02  0.10181885613E+03 -0.77581165454E+01  0.10973988061E+03  0.41800000000E+01 0.  1.
</event>
<event>
11    1  0.6625361E-009  0.1861642E+03  0.7561462E-02  0.1064763E+00
         22   -1    0    0    0    0  0.00000000000E+00  0.00000000000E+00  0.92363746469E+03  0.92363746469E+03  0.00000000000E+00 0. -1.
         22   -1    0    0    0    0 -0.00000000000E+00 -0.00000000000E+00 -0.25733933437E+03  0.25733933437E+03  0.00000000000E+00 0.  1.
        -24    2    1    2    0    0 -0.91568760093E+02  0.11540192361E+03 -0.19211287933E+03  0.25526735278E+03  0.80942085418E+02 0.  0.
         25    2    1    2    0    0  0.46480224900E+02 -0.67723205425E+02  0.15711812682E+03  0.21697891900E+03  0.12508757595E+03 0.  0.
         24    2    1    2    0    0  0.45088535192E+02 -0.47678718188E+02  0.70129288283E+03  0.70873052728E+03  0.78619441734E+02 0.  0.
        -11    1    5    5    0    0  0.19235839573E+02  0.48290838883E+01  0.38033468524E+02  0.42893849247E+02  0.00000000000E+00 0.  1.
         12    1    5    5    0    0  0.25852695619E+02 -0.52507802077E+02  0.66325941431E+03  0.66583667804E+03  0.00000000000E+00 0. -1.
         13    1    3    3    0    0  0.13033515104E+02  0.20627999377E+02 -0.14450666579E+02  0.28358572581E+02  0.00000000000E+00 0. -1.
        -14    1    3    3    0    0 -0.10460227520E+03  0.94773924237E+02 -0.17766221275E+03  0.22690878019E+03  0.00000000000E+00 0.  1.
          5    1    4    4  501    0  0.11399521905E+02  0.28848718331E+02  0.26480555533E+01  0.31411498646E+02  0.41800000000E+01 0.  1.
         -5    1    4    4    0  501  0.35080702995E+02 -0.96571923755E+02  0.15447007127E+03  0.18556742035E+03  0.41800000000E+01 0.  1.
</event>
<event>
11    1  0.6625361E-009  0.2061039E+03  0.7561462E-02  0.1050289E+00
         22   -1    0    0    0    0  0.00000000000E+00  0.00000000000E+00  0.16528766468E+04  0.16528766468E+04  0.00000000000E+00 0.  1.
         22   -1    0    0    0    0 -0.00000000000E+00 -0.00000000000E+00 -0.15115762087E+04  0.15115762087E+04  0.00000000000E+00 0.  1.
         24    2    1    2    0    0 -0.88461168167E+01  0.68087140130E+00 -0.14295538624E+04  0.14317309486E+04  0.78425420468E+02 0.  0.
         25    2    1    2    0    0  0.22989292064E+02 -0.16374621993E+03  0.67014801418E+02  0.21791845986E+03  0.12512449579E+03 0.  0.
        -24    2    1    2    0    0 -0.14143175248E+02  0.16306534853E+03  0.15038394990E+04  0.15148034470E+04  0.79409741685E+02 0.  0.
        -13    1    3    3    0    0  0.25172297253E+02 -0.24615092939E+02 -0.78091475164E+03  0.78170799962E+03  0.00000000000E+00 0.  1.
         14    1    3    3    0    0 -0.34018414070E+02  0.25295964340E+02 -0.64863911072E+03  0.65002294903E+03  0.00000000000E+00 0. -1.
         13    1    5    5    0    0 -0.33064750451E+02  0.22398380491E+02  0.34558960793E+03  0.34788955471E+03  0.00000000000E+00 0. -1.
        -14    1    5    5    0    0  0.18921575203E+02  0.14066696803E+03  0.11582498910E+04  0.11669138923E+04  0.00000000000E+00 0.  1.
          5    1    4    4  501    0  0.42379297814E+02 -0.16460854792E+03  0.85919499846E+02  0.19050357421E+03  0.41800000000E+01 0.  1.
         -5    1    4    4    0  501 -0.19390005750E+02  0.86232799367E+00 -0.18904698429E+02  0.27414885650E+02  0.41800000000E+01 0.  1.
</event>
<event>
11    1  0.6625361E-009  0.1400806E+03  0.7561462E-02  0.1107468E+00
         22   -1    0    0    0    0  0.00000000000E+00  0.00000000000E+00  0.11530475561E+04  0.11530475561E+04  0.00000000000E+00 0.  1.
         22   -1    0    0    0    0 -0.00000000000E+00 -0.00000000000E+00 -0.13420654087E+03  0.13420654087E+03  0.00000000000E+00 0. -1.
         24    2    1    2    0    0 -0.45218442050E+02 -0.14638494349E+02 -0.10280064061E+03  0.13737409933E+03  0.77747530115E+02 0.  0.
         25    2    1    2    0    0 -0.38815953463E+02  0.64862722122E+01  0.56092826568E+03  0.57605262860E+03  0.12508941486E+03 0.  0.
        -24    2    1    2    0    0  0.84034395513E+02  0.81522221368E+01  0.56071339017E+03  0.57382736904E+03  0.88034681730E+02 0.  0.
        -11    1    3    3    0    0 -0.35850335848E+01  0.17658703310E+02  0.38421033377E+01  0.18424006797E+02  0.00000000000E+00 0.  1.
         12    1    3    3    0    0 -0.41633408465E+02 -0.32297197659E+02 -0.10664274395E+03  0.11895009254E+03  0.00000000000E+00 0. -1.
         13    1    5    5    0    0 -0.76811517073E+01  0.19884141981E+02  0.43825193886E+02  0.48734246819E+02  0.00000000000E+00 0. -1.
        -14    1    5    5    0    0  0.91715547220E+02 -0.11731919844E+02  0.51688819628E+03  0.52509312222E+03  0.00000000000E+00 0.  1.
          5    1    4    4  501    0 -0.39267963598E+02 -0.35327202968E+02  0.99622186348E+02  0.11283632681E+03  0.41800000000E+01 0. -1.
         -5    1    4    4    0  501  0.45201013517E+00  0.41813475180E+02  0.46130607933E+03  0.46321630180E+03  0.41800000000E+01 0. -1.
</event>
<event>
11    1  0.6625361E-009  0.1779461E+03  0.7561462E-02  0.1071316E+00
         22   -1    0    0    0    0  0.00000000000E+00  0.00000000000E+00  0.13260164130E+04  0.13260164130E+04  0.00000000000E+00 0. -1.
         22   -1    0    0    0    0 -0.00000000000E+00 -0.00000000000E+00 -0.18260546537E+03  0.18260546537E+03  0.00000000000E+00 0. -1.
         24    2    1    2    0    0 -0.46959373930E+02  0.12134034184E+03 -0.12595959933E+03  0.19884053364E+03  0.82116233460E+02 0.  0.
         25    2    1    2    0    0 -0.51836687790E+02 -0.10300149533E+03  0.46891205804E+03  0.49882165908E+03  0.12509268225E+03 0.  0.
        -24    2    1    2    0    0  0.98796061720E+02 -0.18338846507E+02  0.80045848891E+03  0.81095968563E+03  0.82612614898E+02 0.  0.
        -11    1    3    3    0    0 -0.13451159567E+02  0.10330490018E+03 -0.53769357626E+02  0.11723472145E+03  0.00000000000E+00 0.  1.
         12    1    3    3    0    0 -0.33508214363E+02  0.18035441664E+02 -0.72190241706E+02  0.81605812191E+02  0.00000000000E+00 0. -1.
         13    1    5    5    0    0  0.88229689493E+02  0.14500320970E+02  0.67306272470E+03  0.67897582342E+03  0.00000000000E+00 0. -1.
        -14    1    5    5    0    0  0.10566372227E+02 -0.32839167478E+02  0.12739576421E+03  0.13198386220E+03  0.00000000000E+00 0.  1.
          5    1    4    4  501    0 -0.70289617674E+01  0.28319025635E+02  0.57394970753E+02  0.64521535817E+02  0.41800000000E+01 0.  1.
         -5    1    4    4    0  501 -0.44807726023E+02 -0.13132052097E+03  0.41151708728E+03  0.43430012326E+03  0.41800000000E+01 0.  1.
</event>
<event>
11    1  0.6625361E-009  0.2136429E+03  0.7561462E-02  0.1045274E+00
         22   -1    0    0    0    0  0.00000000000E+00  0.00000000000E+00  0.98189142529E+02  0.98189142529E+02  0.00000000000E+00 0.  1.
         22   -1    0    0    0    0 -0.00000000000E+00 -0.00000000000E+00 -0.15892589868E+04  0.15892589868E+04  0.00000000000E+00 0. -1.
        -24    2    1    2    0    0 -0.37328599855E+02  0.12461580678E+00 -0.11580569120E+04  0.11614217074E+04  0.80069539281E+02 0.  0.
         25    2    1    2    0    0 -0.89036154267E+02  0.13375525638E+03 -0.19745024059E+03  0.28363980821E+03  0.12508812059E+03 0.  0.
         24    2    1    2    0    0  0.12636475412E+03 -0.13387987219E+03 -0.13556269166E+03  0.24238661369E+03  0.80511836802E+02 0.  0.
        -11    1    5    5    0    0  0.11983199131E+03 -0.11589155030E+03 -0.82548175341E+02  0.18602354374E+03  0.00000000000E+00 0.  1.
         12    1    5    5    0    0  0.65327628125E+01 -0.17988321884E+02 -0.53014516314E+02  0.56363069950E+02  0.00000000000E+00 0. -1.
         11    1    3    3    0    0 -0.52292616245E+02  0.20356285206E+02 -0.97878576320E+03  0.98039301625E+03  0.00000000000E+00 0. -1.
        -12    1    3    3    0    0  0.14964016390E+02 -0.20231669399E+02 -0.17927114879E+03  0.18102869116E+03  0.00000000000E+00 0.  1.
          5    1    4    4  501    0 -0.37535892349E+02  0.22156346784E+02 -0.14225494733E+03  0.14884149072E+03  0.41800000000E+01 0. -1.
         -5    1    4    4    0  501 -0.51500261918E+02  0.11159890959E+03 -0.55195293257E+02  0.13479831749E+03  0.41800000000E+01 0. -1.
</event>
<event>
11    1  0.6625361E-009  0.1667681E+03  0.7561462E-02  0.1080879E+00
         22   -1    0    0    0    0  0.00000000000E+00  0.00000000000E+00  0.33774054661E+03  0.33774054661E+03  0.00000000000E+00 0. -1.
         22   -1    0    0    0    0 -0.00000000000E+00 -0.00000000000E+00 -0.77819441125E+03  0.77819441125E+03  0.00000000000E+00 0. -1.
        -24    2    1    2    0    0 -0.63043696965E+01  0.56055772436E+02 -0.68680030371E+03  0.69388981276E+03  0.81279889090E+02 0.  0.
         25    2    1    2    0    0  0.10036776986E+03 -0.97326856039E+02  0.66248916727E+02  0.19895350940E+03  0.12508946319E+03 0.  0.
         24    2    1    2    0    0 -0.94063400167E+02  0.41271083603E+02  0.18009752235E+03  0.22309163571E+03  0.82362216901E+02 0.  0.
        -11    1    5    5    0    0  0.71207148486E+01 -0.11662090072E+01 -0.43864667068E+01  0.84442710504E+01  0.00000000000E+00 0.  1.
         12    1    5    5    0    0 -0.10118411502E+03  0.42437292611E+02  0.18448398906E+03  0.21464736466E+03  0.00000000000E+00 0. -1.
         13    1    3    3    0    0 -0.25309965358E+02  0.63115832547E+02 -0.62843348936E+03  0.63210193261E+03  0.00000000000E+00 0. -1.
        -14    1    3    3    0    0  0.19005595661E+02 -0.70600601113E+01 -0.58366814354E+02  0.61787880147E+02  0.00000000000E+00 0.  1.
          5    1    4    4  501    0  0.19084627958E+02 -0.93294097291E+02  0.68587314697E+02  0.11742956932E+03  0.41800000000E+01 0.  1.
         -5    1    4    4    0  501  0.81283141906E+02 -0.40327587482E+01 -0.23383979694E+01  0.81523940081E+02  0.41800000000E+01 0.  1.
</event>
<event>
11    1  0.6625361E-009  0.2090703E+03  0.7561462E-02  0.1048289E+00
         22   -1    0    0    0    0  0.00000000000E+00  0.00000000000E+00  0.26840188132E+03  0.26840188132E+03  0.00000000000E+00 0. -1.
         22   -1    0    0    0    0 -0.00000000000E+00 -0.00000000000E+00 -0.15603381694E+04  0.15603381694E+04  0.00000000000E+00 0.  1.
        -24    2    1    2    0    0  0.81483558498E-01 -0.84160385618E+02 -0.13858140279E+04  0.13906675617E+04  0.79954801079E+02 0.  0.
         25    2    1    2    0    0 -0.15177539601E+03  0.12900277608E+03 -0.16386682737E+01  0.23519684094E+03  0.12504951694E+03 0.  0.
         24    2    1    2    0    0  0.15169391245E+03 -0.44842390465E+02  0.95516408108E+02  0.20287564802E+03  0.83745216503E+02 0.  0.
        -11    1    5    5    0    0  0.20152384161E+02  0.42194056321E+01  0.51944952791E+02  0.55876650685E+02  0.00000000000E+00 0.  1.
         12    1    5    5    0    0  0.13154152829E+03 -0.49061796097E+02  0.43571455316E+02  0.14699899734E+03  0.00000000000E+00 0. -1.
         11    1    3    3    0    0 -0.25347170385E+01 -0.44327239037E+02 -0.23477049811E+03  0.23893203154E+03  0.00000000000E+00 0. -1.
        -12    1    3    3    0    0  0.26162005970E+01 -0.39833146581E+02 -0.11510435298E+04  0.11517355302E+04  0.00000000000E+00 0.  1.
          5    1    4    4  501    0  0.17771978533E+02  0.20129387013E+02 -0.18624680359E+02  0.32945205432E+02  0.41800000000E+01 0.  1.
         -5    1    4    4    0  501 -0.16954737454E+03  0.10887338907E+03  0.16986012085E+02  0.20225163551E+03  0.41800000000E+01 0.  1.
</event>
<event>
11    1  0.6625361E-009  0.1376932E+03  0.7561462E-02  0.1110162E+00
         22   -1    0    0    0    0  0.00000000000E+00  0.00000000000E+00  0.67698899623E+03  0.67698899623E+03  0.00000000000E+00 0.  1.
         22   -1    0    0    0    0 -0.00000000000E+00 -0.00000000000E+00 -0.43057325163E+03  0.43057325163E+03  0.00000000000E+00 0. -1.
         24    2    1    2    0    0 -0.22106263212E+02 -0.42376478942E+02 -0.21455666468E+03  0.24625284023E+03  0.11100200953E+03 0.  0.
         25    2    1    2    0    0  0.38423400474E+02  0.63365260508E+02 -0.17013142467E+03  0.22379753801E+03  0.12509645245E+03 0.  0.
        -24    2    1    2    0    0 -0.16317137262E+02 -0.20988781566E+02  0.63110383394E+03  0.63751186963E+03  0.86154261548E+02 0.  0.
        -11    1    3    3    0    0  0.14182497955E+02 -0.72343138340E+02 -0.12677742826E+03  0.14665329601E+03  0.00000000000E+00 0.  1.
         12    1    3    3    0    0 -0.36288761167E+02  0.29966659398E+02 -0.87779236419E+02  0.99599544220E+02  0.00000000000E+00 0. -1.
         11    1    5    5    0    0  0.13865878234E+02  0.73454529952E+01  0.22107991285E+02  0.27110542923E+02  0.00000000000E+00 0. -1.
        -12    1    5    5    0    0 -0.30183015496E+02 -0.28334234562E+02  0.60899584266E+03  0.61040132671E+03  0.00000000000E+00 0.  1.
          5    1    4    4  501    0  0.69798763356E+02  0.82364290847E+02 -0.11897636616E+03  0.16071276202E+03  0.41800000000E+01 0. -1.
         -5    1    4    4    0  501 -0.31375362881E+02 -0.18999030338E+02 -0.51155058508E+02  0.63084775982E+02  0.41800000000E+01 0. -1.
</event>
<event>
11    1  0.6625361E-009  0.1743097E+03  0.7561462E-02  0.1074341E+00
         22   -1    0    0    0    0  0.00000000000E+00  0.00000000000E+00  0.63170328296E+03  0.63170328296E+03  0.00000000000E+00 0. -1.
         22   -1    0    0    0    0 -0.00000000000E+00 -0.00000000000E+00 -0.11331302136E+04  0.11331302136E+04  0.00000000000E+00 0.  1.
         24    2    1    2    0    0 -0.11347082107E+03 -0.45445854277E+02 -0.10064211076E+04  0.10166412085E+04  0.75729440510E+02 0.  0.
         25    2    1    2    0    0  0.71767103755E+02  0.11136993680E+03 -0.44508992474E+02  0.18756923675E+03  0.12508952058E+03 0.  0.
        -24    2    1    2    0    0  0.41703717319E+02 -0.65924082520E+02  0.54950316939E+03  0.56062305132E+03  0.79115660897E+02 0.  0.
        -13    1    3    3    0    0 -0.12303412743E+03 -0.45162329731E+02 -0.86232875892E+03  0.87223157533E+03  0.00000000000E+00 0.  1.
         14    1    3    3    0    0  0.95633063524E+01 -0.28352454602E+00 -0.14409234868E+03  0.14440963321E+03  0.00000000000E+00 0. -1.
         13    1    5    5    0    0  0.32403078049E+02 -0.69553155835E+02  0.54367470340E+03  0.54906264130E+03  0.00000000000E+00 0. -1.
        -14    1    5    5    0    0  0.93006392697E+01  0.36290733151E+01  0.58284659967E+01  0.11560410020E+02  0.00000000000E+00 0.  1.
          5    1    4    4  501    0 -0.16441488768E+02  0.46461919724E+02  0.27345820427E+02  0.56518128350E+02  0.41800000000E+01 0. -1.
         -5    1    4    4    0  501  0.88208592523E+02  0.64908017072E+02 -0.71854812901E+02  0.13105110840E+03  0.41800000000E+01 0. -1.
</event>
<event>
11    1  0.6625361E-009  0.1285975E+03  0.7561462E-02  0.1121004E+00
         22   -1    0    0    0    0  0.00000000000E+00  0.00000000000E+00  0.10496195995E+04  0.10496195995E+04  0.00000000000E+00 0.  1.
         22   -1    0    0    0    0 -0.00000000000E+00 -0.00000000000E+00 -0.35298894678E+03  0.35298894678E+03  0.00000000000E+00 0. -1.
         24    2    1    2    0    0 -0.30544828441E+02  0.55092972546E-01 -0.32250136657E+03  0.33508785442E+03  0.85695677616E+02 0.  0.
         25    2    1    2    0    0  0.72338864096E+01  0.11958327109E+02  0.15680954746E+03  0.20108837160E+03  0.12510782676E+03 0.  0.
        -24    2    1    2    0    0  0.23310942031E+02 -0.12013420082E+02  0.86232247188E+03  0.86643232030E+03  0.80107414651E+02 0.  0.
        -13    1    3    3    0    0  0.25398637812E+02  0.18884904878E+02 -0.12583027721E+03  0.12974971714E+03  0.00000000000E+00 0.  1.
         14    1    3    3    0    0 -0.55943466253E+02 -0.18829811905E+02 -0.19667108936E+03  0.20533813728E+03  0.00000000000E+00 0. -1.
         13    1    5    5    0    0  0.20287450906E+02 -0.11929614804E+02  0.65428666199E+02  0.69532774532E+02  0.00000000000E+00 0. -1.
        -14    1    5    5    0    0  0.30234911254E+01 -0.83805278458E-01  0.79689380568E+03  0.79689954577E+03  0.00000000000E+00 0.  1.
          5    1    4    4  501    0 -0.49129019112E+02 -0.19775011576E+02  0.10658267165E+03  0.11908841211E+03  0.41800000000E+01 0.  1.
         -5    1    4    4    0  501  0.56362905521E+02  0.31733338686E+02  0.50226875801E+02  0.81999959486E+02  0.41800000000E+01 0.  1.
</event>
<event>
11    1  0.6625361E-009  0.1501395E+03  0.7561462E-02  0.1096736E+00
         22   -1    0    0    0    0  0.00000000000E+00  0.00000000000E+00  0.44383321762E+03  0.44383321762E+03  0.00000000000E+00 0.  1.
         22   -1    0    0    0    0 -0.00000000000E+00 -0.00000000000E+00 -0.11738968579E+04  0.11738968579E+04  0.00000000000E+00 0.  1.
        -24    2    1    2    0    0 -0.32246211458E+02 -0.39039071802E+02 -0.11149589237E+04  0.11189021768E+04  0.79024126507E+02 0.  0.
         25    2    1    2    0    0  0.10772097089E+03  0.45946529595E+02  0.11414692782E+03  0.20589323048E+03  0.12509040762E+03 0.  0.
         24    2    1    2    0    0 -0.75474759429E+02 -0.69074577935E+01  0.27074835552E+03  0.29293466825E+03  0.82230745874E+02 0.  0.
        -11    1    5    5    0    0 -0.80581185561E+02 -0.36610341799E+01  0.27430246924E+03  0.28591707761E+03  0.00000000000E+00 0.  1.
         12    1    5    5    0    0  0.51064261315E+01 -0.32464236136E+01 -0.35541137234E+01  0.70175906460E+01  0.00000000000E+00 0. -1.
         11    1    3    3    0    0  0.16617519477E+02 -0.13912511945E+02 -0.94010355093E+02  0.96476146311E+02  0.00000000000E+00 0. -1.
        -12    1    3    3    0    0 -0.48863730935E+02 -0.25126559856E+02 -0.10209485686E+04  0.10224260305E+04  0.00000000000E+00 0.  1.
          5    1    4    4  501    0 -0.20921333908E+02 -0.36692946597E+01 -0.65335492844E+01  0.22612509857E+02  0.41800000000E+01 0. -1.
         -5    1    4    4    0  501  0.12864230480E+03  0.49615824255E+02  0.12068047710E+03  0.18328072063E+03  0.41800000000E+01 0. -1.
</event>
<event>
11    1  0.6625361E-009  0.2142429E+03  0.7561462E-02  0.1044885E+00
         22   -1    0    0    0    0  0.00000000000E+00  0.00000000000E+00  0.18865820523E+04  0.18865820523E+04  0.00000000000E+00 0. -1.
         22   -1    0    0    0    0 -0.00000000000E+00 -0.00000000000E+00 -0.24439519041E+04  0.24439519041E+04  0.00000000000E+00 0.  1.
        -24    2    1    2    0    0  0.14938717507E+03  0.91746883007E+02 -0.24054096602E+04  0.24131503212E+04  0.81023580619E+02 0.  0.
         25    2    1    2    0    0 -0.10201880901E+03 -0.27144836640E+02  0.17155165155E+03  0.23711148758E+03  0.12508880383E+03 0.  0.
         24    2    1    2    0    0 -0.47368366058E+02 -0.64602046367E+02  0.16764881569E+04  0.16802721476E+04  0.79276499674E+02 0.  0.
        -11    1    5    5    0    0 -0.46074062115E+02 -0.38930261545E+02  0.51819588721E+03  0.52169470189E+03  0.00000000000E+00 0.  1.
         12    1    5    5    0    0 -0.12943039426E+01 -0.25671784822E+02  0.11582922697E+04  0.11585774458E+04  0.00000000000E+00 0. -1.
         13    1    3    3    0    0  0.82751356613E+02  0.53359866020E+01 -0.91389596944E+03  0.91765031615E+03  0.00000000000E+00 0. -1.
        -14    1    3    3    0    0  0.66635818455E+02  0.86410896405E+02 -0.14915136908E+04  0.14955000051E+04  0.00000000000E+00 0.  1.
          5    1    4    4  501    0 -0.10135281632E+03 -0.64576683019E+02  0.15444784771E+03  0.19574000978E+03  0.41800000000E+01 0. -1.
         -5    1    4    4    0  501 -0.66599268546E+00  0.37431846379E+02  0.17103803847E+02  0.41371477803E+02  0.41800000000E+01 0. -1.
</event>
<event>
11    1  0.6625361E-009  0.1309775E+03  0.7561462E-02  0.1118074E+00
         22   -1    0    0    0    0  0.00000000000E+00  0.00000000000E+00  0.22765885149E+03  0.22765885149E+03  0.00000000000E+00 0.  1.
         22   -1    0    0    0    0 -0.00000000000E+00 -0.00000000000E+00 -0.28889065438E+03  0.28889065438E+03  0.00000000000E+00 0.  1.
         24    2    1    2    0    0 -0.80060451320E+01 -0.95318129410E+01 -0.16040764855E+03  0.17980158583E+03  0.80268576262E+02 0.  0.
         25    2    1    2    0    0 -0.30645635663E+02  0.17124722515E+02 -0.68065975017E+02  0.14667316745E+03  0.12509048720E+03 0.  0.
        -24    2    1    2    0    0  0.38651680795E+02 -0.75929095737E+01  0.16724182068E+03  0.19007475260E+03  0.81283333387E+02 0.  0.
        -13    1    3    3    0    0  0.33425778714E+02  0.64561041486E+01 -0.93425241938E+02  0.99434600591E+02  0.00000000000E+00 0.  1.
         14    1    3    3    0    0 -0.41431823846E+02 -0.15987917090E+02 -0.66982406614E+02  0.80366985236E+02  0.00000000000E+00 0. -1.
         13    1    5    5    0    0 -0.10308154979E+02  0.16702348727E+02  0.71152402847E+01  0.20877096455E+02  0.00000000000E+00 0. -1.
        -14    1    5    5    0    0  0.48959835774E+02 -0.24295258301E+02  0.16012658040E+03  0.16919765614E+03  0.00000000000E+00 0.  1.
          5    1    4    4  501    0 -0.23531503257E+02  0.66753348812E+02 -0.65132215696E+02  0.96277822704E+02  0.41800000000E+01 0. -1.
         -5    1    4    4    0  501 -0.71141324062E+01 -0.49628626298E+02 -0.29337593204E+01  0.50395344744E+02  0.41800000000E+01 0. -1.
</event>
<event>
11    1  0.6625361E-009  0.1432313E+03  0.7561462E-02  0.1104003E+00
         22   -1    0    0    0    0  0.00000000000E+00  0.00000000000E+00  0.66265716973E+03  0.66265716973E+03  0.00000000000E+00 0. -1.
         22   -1    0    0    0    0 -0.00000000000E+00 -0.00000000000E+00 -0.93728911359E+03  0.93728911359E+03  0.00000000000E+00 0. -1.
        -24    2    1    2    0    0  0.69167242203E+02  0.61174941932E+01 -0.88346645757E+03  0.88981269359E+03  0.80200479472E+02 0.  0.
         25    2    1    2    0    0 -0.81876549238E+02 -0.50834113350E+01  0.70078272845E+02  0.16519168757E+03  0.12509084272E+03 0.  0.
         24    2    1    2    0    0  0.12709307035E+02 -0.10340828583E+01  0.53875624086E+03  0.54494190215E+03  0.80875174468E+02 0.  0.
        -11    1    5    5    0    0  0.39766475080E+02 -0.23032803676E+02  0.34842018302E+03  0.35143777048E+03  0.00000000000E+00 0.  1.
         12    1    5    5    0    0 -0.27057168045E+02  0.21998720818E+02  0.19033605784E+03  0.19350413167E+03  0.00000000000E+00 0. -1.
         11    1    3    3    0    0  0.75611179342E+02 -0.16673252709E+02 -0.77108385120E+03  0.77496151736E+03  0.00000000000E+00 0. -1.
        -12    1    3    3    0    0 -0.64439371395E+01  0.22790746902E+02 -0.11238260636E+03  0.11485117624E+03  0.00000000000E+00 0.  1.
          5    1    4    4  501    0 -0.11470074168E+02  0.25398451738E+02  0.82661274367E+02  0.87332712268E+02  0.41800000000E+01 0.  1.
         -5    1    4    4    0  501 -0.70406475070E+02 -0.30481863073E+02 -0.12583001522E+02  0.77858975304E+02  0.41800000000E+01 0.  1.
</event>
<event>
11    1  0.6625361E-009  0.1372439E+03  0.7561462E-02  0.1110676E+00
         22   -1    0    0    0    0  0.00000000000E+00  0.00000000000E+00  0.15009086105E+03  0.15009086105E+03  0.00000000000E+00 0. -1.
         22   -1    0    0    0    0 -0.00000000000E+00 -0.00000000000E+00 -0.10226151114E+04  0.10226151114E+04  0.00000000000E+00 0. -1.
        -24    2    1    2    0    0  0.45689133634E+02  0.32684780905E+02 -0.88635423731E+03  0.89158867769E+03  0.78426681427E+02 0.  0.
         25    2    1    2    0    0 -0.36705677367E+02 -0.53291890614E+02 -0.74310978825E+02  0.15923973847E+03  0.12509132815E+03 0.  0.
         24    2    1    2    0    0 -0.89834562667E+01  0.20607109708E+02  0.88140965782E+02  0.12187755629E+03  0.81116912059E+02 0.  0.
        -13    1    5    5    0    0 -0.11843736364E+02 -0.30477061759E+02  0.39557156998E+02  0.51321477515E+02  0.00000000000E+00 0.  1.
         14    1    5    5    0    0  0.28602800976E+01  0.51084171467E+02  0.48583808784E+02  0.70556078779E+02  0.00000000000E+00 0. -1.
         13    1    3    3    0    0  0.68851940326E+01  0.29978759480E+02 -0.72349401183E+03  0.72414757962E+03  0.00000000000E+00 0. -1.
        -14    1    3    3    0    0  0.38803939601E+02  0.27060214253E+01 -0.16286022548E+03  0.16744109807E+03  0.00000000000E+00 0.  1.
          5    1    4    4  501    0 -0.79397902431E+02 -0.28302713304E+02 -0.69563016126E+02  0.10936889916E+03  0.41800000000E+01 0.  1.
         -5    1    4    4    0  501  0.42692225064E+02 -0.24989177310E+02 -0.47479626991E+01  0.49870839308E+02  0.41800000000E+01 0.  1.
</event>
<event>
11    1  0.1123787E-008  0.1442188E+03  0.7561462E-02  0.1102937E+00
         22   -1    0    0    0    0  0.00000000000E+00  0.00000000000E+00  0.99669986862E+03  0.99669986862E+03  0.00000000000E+00 0. -1.
         22   -1    0    0    0    0 -0.00000000000E+00 -0.00000000000E+00 -0.14931879364E+04  0.14931879364E+04  0.00000000000E+00 0. -1.
        -24    2    1    2    0    0  0.62178332238E+02 -0.82920017394E+01 -0.10614251226E+04  0.10663670580E+04  0.81120338393E+02 0.  0.
         25    2    1    2    0    0 -0.11086334948E+01 -0.30120639317E+02 -0.41666626228E+03  0.43608374848E+03  0.12509907908E+03 0.  0.
         24    2    1    2    0    0 -0.61069698743E+02  0.38412641056E+02  0.98160331711E+03  0.98743699847E+03  0.79257269010E+02 0.  0.
        -11    1    5    5    0    0 -0.81909341424E+01  0.32822239892E+02  0.13530376064E+03  0.13946862900E+03  0.00000000000E+00 0.  1.
         12    1    5    5    0    0 -0.52878764600E+02  0.55904011642E+01  0.84629955648E+03  0.84796836947E+03  0.00000000000E+00 0. -1.
         11    1    3    3    0    0  0.54188148909E+02 -0.11539607950E+02 -0.10524937884E+04  0.10539509916E+04  0.00000000000E+00 0. -1.
        -12    1    3    3    0    0  0.79901833290E+01  0.32476062103E+01 -0.89313341882E+01  0.12416066451E+02  0.00000000000E+00 0.  1.
          5    1    4    4  501    0 -0.47113171387E+02 -0.30047208540E+01 -0.65456480001E+02  0.80812761614E+02  0.41800000000E+01 0. -1.
         -5    1    4    4    0  501  0.46004537893E+02 -0.27115918463E+02 -0.35120978228E+03  0.35527098687E+03  0.41800000000E+01 0. -1.
</event>
<event>
11    1  0.6625361E-009  0.1627858E+03  0.7561462E-02  0.1084486E+00
         22   -1    0    0    0    0  0.00000000000E+00  0.00000000000E+00  0.24224567017E+04  0.24224567017E+04  0.00000000000E+00 0.  1.
         22   -1    0    0    0    0 -0.00000000000E+00 -0.00000000000E+00 -0.12456565788E+03  0.12456565788E+03  0.00000000000E+00 0.  1.
         24    2    1    2    0    0  0.79030645892E-02 -0.98047017151E+02  0.34657628758E+02  0.13278486031E+03  0.82567852478E+02 0.  0.
         25    2    1    2    0    0  0.42832521964E+02  0.19044847922E+03  0.10919184723E+03  0.25627544715E+03  0.12509595172E+03 0.  0.
        -24    2    1    2    0    0 -0.42840425028E+02 -0.92401462070E+02  0.21540415678E+04  0.21579620521E+04  0.80819615450E+02 0.  0.
        -13    1    3    3    0    0 -0.13505573713E+02 -0.28447667579E+02 -0.24935079549E+02  0.40167505575E+02  0.00000000000E+00 0.  1.
         14    1    3    3    0    0  0.13513476778E+02 -0.69599349572E+02  0.59592708307E+02  0.92617354739E+02  0.00000000000E+00 0. -1.
         11    1    5    5    0    0 -0.19830913457E+02 -0.60004904360E+01  0.10819789875E+04  0.10821773424E+04  0.00000000000E+00 0. -1.
        -12    1    5    5    0    0 -0.23009511572E+02 -0.86400971633E+02  0.10720625803E+04  0.10757847097E+04  0.00000000000E+00 0.  1.
          5    1    4    4  501    0  0.65786671550E+02  0.91154957501E+02  0.82837595399E+01  0.11279718748E+03  0.41800000000E+01 0.  1.
         -5    1    4    4    0  501 -0.22954149586E+02  0.99293521720E+02  0.10090808769E+03  0.14347825968E+03  0.41800000000E+01 0.  1.
</event>
<event>
11    1  0.6625361E-009  0.1478961E+03  0.7561462E-02  0.1099048E+00
         22   -1    0    0    0    0  0.00000000000E+00  0.00000000000E+00  0.26507330599E+04  0.26507330599E+04  0.00000000000E+00 0. -1.
         22   -1    0    0    0    0 -0.00000000000E+00 -0.00000000000E+00 -0.31220740457E+03  0.31220740457E+03  0.00000000000E+00 0.  1.
         24    2    1    2    0    0  0.64474370434E+02 -0.34034131574E+02 -0.20455146872E+03  0.23123118044E+03  0.79443620870E+02 0.  0.
         25    2    1    2    0    0 -0.94689091722E+02  0.62182190799E+02 -0.17414619666E+02  0.16967446780E+03  0.12511397644E+03 0.  0.
        -24    2    1    2    0    0  0.30214721288E+02 -0.28148059224E+02  0.25604917437E+04  0.25620348163E+04  0.78734917653E+02 0.  0.
        -11    1    3    3    0    0  0.24940266925E+02  0.52603428793E+01 -0.15363882018E+03  0.15573880437E+03  0.00000000000E+00 0.  1.
         12    1    3    3    0    0  0.39534103509E+02 -0.39294474454E+02 -0.50912648545E+02  0.75492376070E+02  0.00000000000E+00 0. -1.
         13    1    5    5    0    0  0.29258999614E+02 -0.11896932765E+02  0.24623137476E+04  0.24625163182E+04  0.00000000000E+00 0. -1.
        -14    1    5    5    0    0  0.95572167432E+00 -0.16251126459E+02  0.98177996178E+02  0.99518498022E+02  0.00000000000E+00 0.  1.
          5    1    4    4  501    0 -0.43715587266E+02 -0.27182489773E+02 -0.38693331686E+02  0.64533608587E+02  0.41800000000E+01 0. -1.
         -5    1    4    4    0  501 -0.50973504456E+02  0.89364680572E+02  0.21278712021E+02  0.10514085921E+03  0.41800000000E+01 0. -1.
</event>
<event>
11    1  0.6625361E-009  0.1895200E+03  0.7561462E-02  0.1062192E+00
         22   -1    0    0    0    0  0.00000000000E+00  0.00000000000E+00  0.26793416662E+04  0.26793416662E+04  0.00000000000E+00 0.  1.
         22   -1    0    0    0    0 -0.00000000000E+00 -0.00000000000E+00 -0.26469926207E+03  0.26469926207E+03  0.00000000000E+00 0. -1.
        -24    2    1    2    0    0  0.16262682499E+02 -0.27602847088E+02 -0.23798550246E+03  0.25314000021E+03  0.80102236628E+02 0.  0.
         25    2    1    2    0    0 -0.15522805590E+03  0.89994980288E+01  0.60877986986E+03  0.64065383776E+03  0.12509064551E+03 0.  0.
         24    2    1    2    0    0  0.13896537340E+03  0.18603349059E+02  0.20438480367E+04  0.20502470903E+04  0.80875672786E+02 0.  0.
        -11    1    5    5    0    0  0.28574175201E+02  0.99815633135E+01  0.10162501842E+04  0.10167008173E+04  0.00000000000E+00 0.  1.
         12    1    5    5    0    0  0.11039119820E+03  0.86217857453E+01  0.10275978525E+04  0.10335462730E+04  0.00000000000E+00 0. -1.
         11    1    3    3    0    0  0.16136818013E+02  0.24510211737E+02 -0.12954782222E+03  0.13282991235E+03  0.00000000000E+00 0. -1.
        -12    1    3    3    0    0  0.12586448669E+00 -0.52113058824E+02 -0.10843768024E+03  0.12031008785E+03  0.00000000000E+00 0.  1.
          5    1    4    4  501    0 -0.57810170026E+01 -0.40901424609E+02  0.11063169716E+03  0.11816594902E+03  0.41800000000E+01 0.  1.
         -5    1    4    4    0  501 -0.14944703890E+03  0.49900922638E+02  0.49814817270E+03  0.52248788874E+03  0.41800000000E+01 0.  1.
</event>
<event>
11    1  0.6625361E-009  0.1881856E+03  0.7561462E-02  0.1063207E+00
         22   -1    0    0    0    0  0.00000000000E+00  0.00000000000E+00  0.38017180015E+03  0.38017180015E+03  0.00000000000E+00 0. -1.
         22   -1    0    0    0    0 -0.00000000000E+00 -0.00000000000E+00 -0.37509374996E+03  0.37509374996E+03  0.00000000000E+00 0. -1.
         24    2    1    2    0    0  0.52534468309E+02 -0.54781140778E+02 -0.17108012090E+03  0.20374153177E+03  0.80506895705E+02 0.  0.
         25    2    1    2    0    0 -0.18491012335E+03  0.23895444813E+02 -0.90165528051E+02  0.24195044473E+03  0.12508976479E+03 0.  0.
        -24    2    1    2    0    0  0.13237565504E+03  0.30885695965E+02  0.26632369915E+03  0.30957357361E+03  0.80188805264E+02 0.  0.
        -11    1    3    3    0    0  0.23611837045E+02 -0.13465775999E+02 -0.19492708640E+01  0.27251525256E+02  0.00000000000E+00 0.  1.
         12    1    3    3    0    0  0.28922631265E+02 -0.41315364780E+02 -0.16913085003E+03  0.17649000651E+03  0.00000000000E+00 0. -1.
         13    1    5    5    0    0  0.81165023869E+02 -0.99055022880E+00  0.21689934489E+03  0.23159030227E+03  0.00000000000E+00 0. -1.
        -14    1    5    5    0    0  0.51210631169E+02  0.31876246194E+02  0.49424354253E+02  0.77983271344E+02  0.00000000000E+00 0.  1.
          5    1    4    4  501    0  0.73263955909E+01 -0.14494238859E+02  0.12221610510E+02  0.20750884220E+02  0.41800000000E+01 0. -1.
         -5    1    4    4    0  501 -0.19223651894E+03  0.38389683672E+02 -0.10238713856E+03  0.22119956051E+03  0.41800000000E+01 0. -1.
</event>
<event>
11    1  0.6625361E-009  0.2990385E+03  0.7561462E-02  0.1000599E+00
         22   -1    0    0    0    0  0.00000000000E+00  0.00000000000E+00  0.85032135925E+03  0.85032135925E+03  0.00000000000E+00 0.  1.
         22   -1    0    0    0    0 -0.00000000000E+00 -0.00000000000E+00 -0.36244320938E+03  0.36244320938E+03  0.00000000000E+00 0. -1.
         24    2    1    2    0    0  0.27513726228E+03  0.12846113476E+02 -0.24754571714E+03  0.37917378346E+03  0.81414619450E+02 0.  0.
         25    2    1    2    0    0 -0.24069007570E+03 -0.63802722132E+02  0.43495630242E+03  0.51656225709E+03  0.12508829098E+03 0.  0.
        -24    2    1    2    0    0 -0.34447186588E+02  0.50956608655E+02  0.30046756459E+03  0.31702852808E+03  0.80269207184E+02 0.  0.
        -13    1    3    3    0    0  0.67846087308E+02 -0.16379513222E+02 -0.26298736745E+02  0.74585545320E+02  0.00000000000E+00 0.  1.
         14    1    3    3    0    0  0.20729117498E+03  0.29225626698E+02 -0.22124698039E+03  0.30458823814E+03  0.00000000000E+00 0. -1.
         13    1    5    5    0    0 -0.53143367509E+02  0.33210225453E+02  0.12660674106E+03  0.14126713513E+03  0.00000000000E+00 0. -1.
        -14    1    5    5    0    0  0.18696180921E+02  0.17746383202E+02  0.17386082353E+03  0.17576139296E+03  0.00000000000E+00 0.  1.
          5    1    4    4  501    0 -0.10247424534E+03 -0.90740655526E+02  0.23444090419E+03  0.27150478353E+03  0.41800000000E+01 0.  1.
         -5    1    4    4    0  501 -0.13821583036E+03  0.26937933394E+02  0.20051539823E+03  0.24505747355E+03  0.41800000000E+01 0.  1.
</event>
<event>
11    1  0.6625361E-009  0.2455532E+03  0.7561462E-02  0.1026295E+00
         22   -1    0    0    0    0  0.00000000000E+00  0.00000000000E+00  0.33706040982E+04  0.33706040982E+04  0.00000000000E+00 0. -1.
         22   -1    0    0    0    0 -0.00000000000E+00 -0.00000000000E+00 -0.28883080518E+03  0.28883080518E+03  0.00000000000E+00 0.  1.
         24    2    1    2    0    0 -0.78161987569E+02  0.50843475273E+02 -0.25460492856E+03  0.28309179850E+03  0.81381456441E+02 0.  0.
         25    2    1    2    0    0  0.14955980067E+03  0.15316191118E+03  0.10756506952E+04  0.11038563204E+04  0.12509057916E+03 0.  0.
        -24    2    1    2    0    0 -0.71397813097E+02 -0.20400538645E+03  0.22607275264E+04  0.22724867845E+04  0.81187386389E+02 0.  0.
        -11    1    3    3    0    0 -0.89230612898E+02  0.58804729011E+02 -0.24190817980E+03  0.26446108577E+03  0.00000000000E+00 0.  1.
         12    1    3    3    0    0  0.11068625329E+02 -0.79612537386E+01 -0.12696748758E+02  0.18630712729E+02  0.00000000000E+00 0. -1.
         11    1    5    5    0    0 -0.69808085750E+02 -0.10811219629E+03  0.15471654371E+04  0.15525083915E+04  0.00000000000E+00 0. -1.
        -12    1    5    5    0    0 -0.15897273474E+01 -0.95893190168E+02  0.71356208932E+03  0.71997839306E+03  0.00000000000E+00 0.  1.
          5    1    4    4  501    0  0.88831092373E+02  0.72714201713E+01  0.42672630994E+03  0.43595487440E+03  0.41800000000E+01 0. -1.
         -5    1    4    4    0  501  0.60728708293E+02  0.14589049101E+03  0.64892438522E+03  0.66790144596E+03  0.41800000000E+01 0. -1.
</event>
<event>
11    1  0.6625361E-009  0.1825866E+03  0.7561462E-02  0.1067570E+00
         22   -1    0    0    0    0  0.00000000000E+00  0.00000000000E+00  0.65337864765E+03  0.65337864765E+03  0.00000000000E+00 0. -1.
         22   -1    0    0    0    0 -0.00000000000E+00 -0.00000000000E+00 -0.18912645965E+03  0.18912645965E+03  0.00000000000E+00 0.  1.
         24    2    1    2    0    0 -0.76723160571E+02  0.89249287418E+02 -0.23031531532E+02  0.14564743768E+03  0.82648932155E+02 0.  0.
         25    2    1    2    0    0  0.15394963760E+03 -0.71870747287E+02  0.15438234114E+02  0.21154474432E+03  0.12508774737E+03 0.  0.
        -24    2    1    2    0    0 -0.77226477033E+02 -0.17378540131E+02  0.47184548542E+03  0.48531292530E+03  0.81391221522E+02 0.  0.
        -11    1    3    3    0    0 -0.62060710517E+02  0.48463305785E+02  0.23386064491E+02  0.82140926522E+02  0.00000000000E+00 0.  1.
         12    1    3    3    0    0 -0.14662450054E+02  0.40785981633E+02 -0.46417596023E+02  0.63506511161E+02  0.00000000000E+00 0. -1.
         13    1    5    5    0    0 -0.73600010275E+02  0.10676724619E+02  0.22778271645E+03  0.23961619285E+03  0.00000000000E+00 0. -1.
        -14    1    5    5    0    0 -0.36264667576E+01 -0.28055264749E+02  0.24406276897E+03  0.24569673245E+03  0.00000000000E+00 0.  1.
          5    1    4    4  501    0  0.13179448805E+03 -0.59670349757E+00 -0.10836563839E+02  0.13230663873E+03  0.41800000000E+01 0.  1.
         -5    1    4    4    0  501  0.22155149555E+02 -0.71274043790E+02  0.26274797953E+02  0.79238105590E+02  0.41800000000E+01 0.  1.
</event>
<event>
11    1  0.6625361E-009  0.1618448E+03  0.7561462E-02  0.1085355E+00
         22   -1    0    0    0    0  0.00000000000E+00  0.00000000000E+00  0.41581037368E+03  0.41581037368E+03  0.00000000000E+00 0. -1.
         22   -1    0    0    0    0 -0.00000000000E+00 -0.00000000000E+00 -0.11631218184E+04  0.11631218184E+04  0.00000000000E+00 0. -1.
         24    2    1    2    0    0  0.10229589324E+02 -0.17410878183E+02 -0.64155668697E+03  0.64687431541E+03  0.80272125682E+02 0.  0.
         25    2    1    2    0    0  0.91902734778E+02  0.29591218715E+02 -0.49599151646E+03  0.52055515525E+03  0.12509329467E+03 0.  0.
        -24    2    1    2    0    0 -0.10213232410E+03 -0.12180340532E+02  0.39023675873E+03  0.41150272141E+03  0.80438731601E+02 0.  0.
        -11    1    3    3    0    0 -0.22196904500E+00  0.13078975067E+02 -0.16824955478E+02  0.21311686604E+02  0.00000000000E+00 0.  1.
         12    1    3    3    0    0  0.10451558369E+02 -0.30489853249E+02 -0.62473173149E+03  0.62556262881E+03  0.00000000000E+00 0. -1.
         11    1    5    5    0    0 -0.46555720021E+02  0.18086670442E+02  0.27976799329E+03  0.28419129611E+03  0.00000000000E+00 0. -1.
        -12    1    5    5    0    0 -0.55576604081E+02 -0.30267010974E+02  0.11046876544E+03  0.12731142530E+03  0.00000000000E+00 0.  1.
          5    1    4    4  501    0  0.75677557303E+01  0.64314487040E+02 -0.24594199631E+03  0.25435912038E+03  0.41800000000E+01 0.  1.
         -5    1    4    4    0  501  0.84334979047E+02 -0.34723268325E+02 -0.25004952016E+03  0.26619603488E+03  0.41800000000E+01 0.  1.
</event>
<event>
11    1  0.6625361E-009  0.1434304E+03  0.7561462E-02  0.1103787E+00
         22   -1    0    0    0    0  0.00000000000E+00  0.00000000000E+00  0.11233248543E+04  0.11233248543E+04  0.00000000000E+00 0.  1.
         22   -1    0    0    0    0 -0.00000000000E+00 -0.00000000000E+00 -0.11952182601E+04  0.11952182601E+04  0.00000000000E+00 0. -1.
         24    2    1    2    0    0  0.69347186608E+02 -0.96505749619E+01 -0.11685133646E+04  0.11732506719E+04  0.78686021122E+02 0.  0.
         25    2    1    2    0    0 -0.94273341760E+02 -0.26282131373E+02  0.26689703388E+03  0.31057967140E+03  0.12508993645E+03 0.  0.
        -24    2    1    2    0    0  0.24926155152E+02  0.35932706335E+02  0.82972292499E+03  0.83471277101E+03  0.79955020067E+02 0.  0.
        -11    1    3    3    0    0 -0.19975730814E+01 -0.94463037419E+01 -0.17166922512E+02  0.19695841722E+02  0.00000000000E+00 0.  1.
         12    1    3    3    0    0  0.71344759690E+02 -0.20427122006E+00 -0.11513464421E+04  0.11535548302E+04  0.00000000000E+00 0. -1.
         13    1    5    5    0    0 -0.23955160203E+02  0.79239742941E+01  0.11317318477E+03  0.11595175212E+03  0.00000000000E+00 0. -1.
        -14    1    5    5    0    0  0.48881315355E+02  0.28008732041E+02  0.71654974022E+03  0.71876101889E+03  0.00000000000E+00 0.  1.
          5    1    4    4  501    0 -0.26757055751E+02 -0.23242615721E+02  0.47909823363E+00  0.35691191534E+02  0.41800000000E+01 0. -1.
         -5    1    4    4    0  501 -0.67516286009E+02 -0.30395156528E+01  0.26641793565E+03  0.27488847987E+03  0.41800000000E+01 0. -1.
</event>
<event>
11    1  0.6625361E-009  0.1416842E+03  0.7561462E-02  0.1105692E+00
         22   -1    0    0    0    0  0.00000000000E+00  0.00000000000E+00  0.10645054911E+04  0.10645054911E+04  0.00000000000E+00 0.  1.
         22   -1    0    0    0    0 -0.00000000000E+00 -0.00000000000E+00 -0.71676862600E+03  0.71676862600E+03  0.00000000000E+00 0. -1.
         24    2    1    2    0    0 -0.55442526964E+02  0.30063007153E+01 -0.58712474473E+03  0.59415391108E+03  0.72252976035E+02 0.  0.
         25    2    1    2    0    0  0.11251058520E+03 -0.35043928084E+02 -0.63525384709E+02  0.18321965469E+03  0.12508900305E+03 0.  0.
        -24    2    1    2    0    0 -0.57068058239E+02  0.32037627369E+02  0.99838699456E+03  0.10039005514E+04  0.82198255809E+02 0.  0.
        -13    1    3    3    0    0 -0.43407887919E+02  0.53867107773E+01 -0.13597048444E+03  0.14283288846E+03  0.00000000000E+00 0.  1.
         14    1    3    3    0    0 -0.12034639045E+02 -0.23804100620E+01 -0.45115426028E+03  0.45132102262E+03  0.00000000000E+00 0. -1.
         11    1    5    5    0    0  0.26222438406E+01 -0.93896076595E+01  0.15363461654E+02  0.18195517271E+02  0.00000000000E+00 0. -1.
        -12    1    5    5    0    0 -0.59690302080E+02  0.41427235029E+02  0.98302353291E+03  0.98570503408E+03  0.00000000000E+00 0.  1.
          5    1    4    4  501    0  0.95492662132E+02 -0.50656716836E+02 -0.94991507303E+02  0.14396461489E+03  0.41800000000E+01 0.  1.
         -5    1    4    4    0  501  0.17017923071E+02  0.15612788752E+02  0.31466122594E+02  0.39255039795E+02  0.41800000000E+01 0.  1.
</event>
<event>
11    1  0.6625361E-009  0.1349309E+03  0.7561462E-02  0.1113355E+00
         22   -1    0    0    0    0  0.00000000000E+00  0.00000000000E+00  0.11106955288E+04  0.11106955288E+04  0.00000000000E+00 0. -1.
         22   -1    0    0    0    0 -0.00000000000E+00 -0.00000000000E+00 -0.13263907720E+03  0.13263907720E+03  0.00000000000E+00 0.  1.
         24    2    1    2    0    0 -0.13963528090E+02 -0.48651275531E+02 -0.98402538031E+02  0.13987935758E+03  0.85564294298E+02 0.  0.
         25    2    1    2    0    0  0.14152769138E+02  0.48187589361E+02  0.40132178911E+03  0.42335310165E+03  0.12508527340E+03 0.  0.
        -24    2    1    2    0    0 -0.18924104803E+00  0.46368616984E+00  0.67513720057E+03  0.68010214682E+03  0.82027066890E+02 0.  0.
        -11    1    3    3    0    0 -0.21591956276E+02  0.89674487062E+00 -0.85395687385E+02  0.88087684446E+02  0.00000000000E+00 0.  1.
         12    1    3    3    0    0  0.76284281860E+01 -0.49548020401E+02 -0.13006850646E+02  0.51791673134E+02  0.00000000000E+00 0. -1.
         13    1    5    5    0    0 -0.36149028969E+02 -0.11907380128E+02  0.46474137325E+03  0.46629720352E+03  0.00000000000E+00 0. -1.
        -14    1    5    5    0    0  0.35959787921E+02  0.12371066298E+02  0.21039582731E+03  0.21380494330E+03  0.00000000000E+00 0.  1.
          5    1    4    4  501    0  0.10180166093E+01  0.83570414607E+02  0.17632374882E+03  0.19517322397E+03  0.41800000000E+01 0.  1.
         -5    1    4    4    0  501  0.13134752529E+02 -0.35382825246E+02  0.22499804029E+03  0.22817987769E+03  0.41800000000E+01 0.  1.
</event>
<event>
11    1  0.6625361E-009  0.1388357E+03  0.7561462E-02  0.1108865E+00
         22   -1    0    0    0    0  0.00000000000E+00  0.00000000000E+00  0.97065566279E+03  0.97065566279E+03  0.00000000000E+00 0. -1.
         22   -1    0    0    0    0 -0.00000000000E+00 -0.00000000000E+00 -0.77537863428E+02  0.77537863428E+02  0.00000000000E+00 0. -1.
         24    2    1    2    0    0  0.39253874847E+02 -0.33544870675E+02 -0.13438936719E+02  0.91926685658E+02  0.74858436243E+02 0.  0.
         25    2    1    2    0    0 -0.75929002725E+02 -0.14113709710E+02  0.23386085515E+03  0.27623016994E+03  0.12509115460E+03 0.  0.
        -24    2    1    2    0    0  0.36675127878E+02  0.47658580385E+02  0.67269588093E+03  0.68003667062E+03  0.79458919405E+02 0.  0.
        -11    1    3    3    0    0 -0.38783359060E+01 -0.62601423268E+01  0.26256296651E+02  0.27269469836E+02  0.00000000000E+00 0.  1.
         12    1    3    3    0    0  0.43132210753E+02 -0.27284728348E+02 -0.39695233370E+02  0.64657215821E+02  0.00000000000E+00 0. -1.
         13    1    5    5    0    0  0.52000009733E+02  0.60281021723E+02  0.55427464552E+03  0.55996266417E+03  0.00000000000E+00 0. -1.
        -14    1    5    5    0    0 -0.15324881855E+02 -0.12622441337E+02  0.11842123541E+03  0.12007400645E+03  0.00000000000E+00 0.  1.
          5    1    4    4  501    0 -0.58272050120E+02  0.41445029900E+02  0.62111473240E+02  0.94808384844E+02  0.41800000000E+01 0.  1.
         -5    1    4    4    0  501 -0.17656952605E+02 -0.55558739611E+02  0.17174938191E+03  0.18142178510E+03  0.41800000000E+01 0.  1.
</event>
<event>
11    1  0.6625361E-009  0.1334525E+03  0.7561462E-02  0.1115098E+00
         22   -1    0    0    0    0  0.00000000000E+00  0.00000000000E+00  0.35969265327E+04  0.35969265327E+04  0.00000000000E+00 0. -1.
         22   -1    0    0    0    0 -0.00000000000E+00 -0.00000000000E+00 -0.81876857734E+02  0.81876857734E+02  0.00000000000E+00 0. -1.
        -24    2    1    2    0    0  0.16337442755E+02  0.44095491668E+02 -0.34952971027E+02  0.10002885977E+03  0.81072425530E+02 0.  0.
         25    2    1    2    0    0 -0.29051263804E+02 -0.33053243480E+02  0.30336302731E+03  0.33107908117E+03  0.12509092221E+03 0.  0.
         24    2    1    2    0    0  0.12713821049E+02 -0.11042248188E+02  0.32466396186E+04  0.32476954494E+04  0.81076177539E+02 0.  0.
        -13    1    5    5    0    0 -0.81164808960E+01  0.13943556334E+02  0.14659266883E+03  0.14747783081E+03  0.00000000000E+00 0.  1.
         14    1    5    5    0    0  0.20830301945E+02 -0.24985804522E+02  0.31000469498E+04  0.31002176186E+04  0.00000000000E+00 0. -1.
         13    1    3    3    0    0  0.25407097944E+02 -0.89030135100E+01  0.11209511063E+02  0.29162260094E+02  0.00000000000E+00 0. -1.
        -14    1    3    3    0    0 -0.90696551890E+01  0.52998505178E+02 -0.46162482091E+02  0.70866599673E+02  0.00000000000E+00 0.  1.
          5    1    4    4  501    0 -0.46561760386E+02 -0.62451311100E+02  0.11111675240E+03  0.13576659697E+03  0.41800000000E+01 0.  1.
         -5    1    4    4    0  501  0.17510496582E+02  0.29398067620E+02  0.19224627491E+03  0.19531248421E+03  0.41800000000E+01 0.  1.
</event>
<event>
11    1  0.6625361E-009  0.1414342E+03  0.7561462E-02  0.1105967E+00
         22   -1    0    0    0    0  0.00000000000E+00  0.00000000000E+00  0.27995003575E+04  0.27995003575E+04  0.00000000000E+00 0.  1.
         22   -1    0    0    0    0 -0.00000000000E+00 -0.00000000000E+00 -0.94161737051E+03  0.94161737051E+03  0.00000000000E+00 0.  1.
        -24    2    1    2    0    0 -0.23547558033E+01 -0.13053263569E+02 -0.87950714635E+03  0.88323043124E+03  0.79920220345E+02 0.  0.
         25    2    1    2    0    0  0.25791453274E+02 -0.48729822130E+02  0.19656010640E+02  0.13815994181E+03  0.12514797697E+03 0.  0.
         24    2    1    2    0    0 -0.23436697470E+02  0.61783085700E+02  0.27177341227E+04  0.27197273550E+04  0.80446847267E+02 0.  0.
        -13    1    5    5    0    0 -0.43308502925E+01  0.13875080172E+01  0.17090920913E+04  0.17090981417E+04  0.00000000000E+00 0.  1.
         14    1    5    5    0    0 -0.19105847178E+02  0.60395577682E+02  0.10086420314E+04  0.10106292132E+04  0.00000000000E+00 0. -1.
         13    1    3    3    0    0  0.26741056533E+00  0.20646794726E+02 -0.69112035197E+02  0.72130680365E+02  0.00000000000E+00 0. -1.
        -14    1    3    3    0    0 -0.26221663687E+01 -0.33700058295E+02 -0.81039511115E+03  0.81109975087E+03  0.00000000000E+00 0.  1.
          5    1    4    4  501    0 -0.38948937412E+02 -0.14810065250E+01  0.39326607579E+02  0.55527178657E+02  0.41800000000E+01 0.  1.
         -5    1    4    4    0  501  0.64740390686E+02 -0.47248815605E+02 -0.19670596939E+02  0.82632763152E+02  0.41800000000E+01 0.  1.
</event>
<event>
11    1  0.6625361E-009  0.1369081E+03  0.7561462E-02  0.1111061E+00
         22   -1    0    0    0    0  0.00000000000E+00  0.00000000000E+00  0.15369404270E+03  0.15369404270E+03  0.00000000000E+00 0. -1.
         22   -1    0    0    0    0 -0.00000000000E+00 -0.00000000000E+00 -0.35042816854E+03  0.35042816854E+03  0.00000000000E+00 0.  1.
        -24    2    1    2    0    0  0.33439227698E+02  0.40792538480E+02 -0.22426804143E+03  0.24407306422E+03  0.80580972469E+02 0.  0.
         25    2    1    2    0    0 -0.41029354552E+02 -0.57921934904E+02 -0.46485096575E+02  0.15115831752E+03  0.12509841835E+03 0.  0.
         24    2    1    2    0    0  0.75901268542E+01  0.17129396423E+02  0.74019012164E+02  0.10889082950E+03  0.77636153561E+02 0.  0.
        -11    1    5    5    0    0 -0.52419112633E+01  0.31537539600E+02 -0.43944611156E+00  0.31973225527E+02  0.00000000000E+00 0.  1.
         12    1    5    5    0    0  0.12832038118E+02 -0.14408143176E+02  0.74458458276E+02  0.76917603972E+02  0.00000000000E+00 0. -1.
         11    1    3    3    0    0 -0.22350628674E+02  0.21806722159E+02 -0.40836115708E+02  0.51406926378E+02  0.00000000000E+00 0. -1.
        -12    1    3    3    0    0  0.55789856372E+02  0.18985816321E+02 -0.18343192573E+03  0.19266613784E+03  0.00000000000E+00 0.  1.
          5    1    4    4  501    0  0.12311383410E+02  0.14450044211E+02  0.28168404853E+02  0.34224338870E+02  0.41800000000E+01 0.  1.
         -5    1    4    4    0  501 -0.53340737961E+02 -0.72371979115E+02 -0.74653501427E+02  0.11693397865E+03  0.41800000000E+01 0.  1.
</event>
<event>
11    1  0.6625361E-009  0.1405488E+03  0.7561462E-02  0.1106947E+00
         22   -1    0    0    0    0  0.00000000000E+00  0.00000000000E+00  0.44110525085E+03  0.44110525085E+03  0.00000000000E+00 0.  1.
         22   -1    0    0    0    0 -0.00000000000E+00 -0.00000000000E+00 -0.84505776029E+03  0.84505776029E+03  0.00000000000E+00 0. -1.
         24    2    1    2    0    0 -0.61322961796E+02 -0.12133668535E+02 -0.74388905001E+03  0.75084155399E+03  0.80525703448E+02 0.  0.
         25    2    1    2    0    0  0.89003425860E+02  0.34741069577E+02 -0.25446288648E+02  0.15945117908E+03  0.12509441704E+03 0.  0.
        -24    2    1    2    0    0 -0.27680464064E+02 -0.22607401043E+02  0.36538282921E+03  0.37587027807E+03  0.80601187239E+02 0.  0.
        -11    1    3    3    0    0 -0.40396960707E+01  0.27402267560E+02 -0.12392638449E+03  0.12698406272E+03  0.00000000000E+00 0.  1.
         12    1    3    3    0    0 -0.57283265726E+02 -0.39535936095E+02 -0.61996266552E+03  0.62385749127E+03  0.00000000000E+00 0. -1.
         11    1    5    5    0    0 -0.66105417489E+01 -0.51591794265E+02  0.23187971792E+03  0.23764178101E+03  0.00000000000E+00 0. -1.
        -12    1    5    5    0    0 -0.21069922315E+02  0.28984393223E+02  0.13350311129E+03  0.13822849706E+03  0.00000000000E+00 0.  1.
          5    1    4    4  501    0  0.52025007667E+02  0.81897377463E+02 -0.19821668171E+02  0.99116864292E+02  0.41800000000E+01 0.  1.
         -5    1    4    4    0  501  0.36978418193E+02 -0.47156307886E+02 -0.56246204773E+01  0.60334314788E+02  0.41800000000E+01 0.  1.
</event>
<event>
11    1  0.6625361E-009  0.1329795E+03  0.7561462E-02  0.1115661E+00
         22   -1    0    0    0    0  0.00000000000E+00  0.00000000000E+00  0.56258601121E+02  0.56258601121E+02  0.00000000000E+00 0. -1.
         22   -1    0    0    0    0 -0.00000000000E+00 -0.00000000000E+00 -0.10498489176E+04  0.10498489176E+04  0.00000000000E+00 0. -1.
         24    2    1    2    0    0  0.11540885151E+02  0.44312869305E+02 -0.82952401466E+03  0.83472344931E+03  0.80971127707E+02 0.  0.
         25    2    1    2    0    0 -0.11771195677E+02 -0.33621416658E+02 -0.72299023766E+02  0.14880299403E+03  0.12508485716E+03 0.  0.
        -24    2    1    2    0    0  0.23031052624E+00 -0.10691452647E+02 -0.91767278077E+02  0.12258107540E+03  0.80563804013E+02 0.  0.
        -11    1    3    3    0    0 -0.14512316143E+02  0.22516557675E+02 -0.78752512705E+02  0.83183898362E+02  0.00000000000E+00 0.  1.
         12    1    3    3    0    0  0.26053201294E+02  0.21796311631E+02 -0.75077150195E+03  0.75153955095E+03  0.00000000000E+00 0. -1.
         11    1    5    5    0    0  0.10982193594E+02  0.95066790424E+01  0.10411678098E+02  0.17871445475E+02  0.00000000000E+00 0. -1.
        -12    1    5    5    0    0 -0.10751883068E+02 -0.20198131690E+02 -0.10217895618E+03  0.10470962992E+03  0.00000000000E+00 0.  1.
          5    1    4    4  501    0  0.38793464240E+02 -0.60491879401E+02 -0.32732579345E+02  0.79076510367E+02  0.41800000000E+01 0. -1.
         -5    1    4    4    0  501 -0.50564659917E+02  0.26870462743E+02 -0.39566444421E+02  0.69726483668E+02  0.41800000000E+01 0. -1.
</event>
<event>
11    1  0.6625361E-009  0.2066930E+03  0.7561462E-02  0.1049889E+00
         22   -1    0    0    0    0  0.00000000000E+00  0.00000000000E+00  0.17784237746E+04  0.17784237746E+04  0.00000000000E+00 0.  1.
         22   -1    0    0    0    0 -0.00000000000E+00 -0.00000000000E+00 -0.17153381997E+03  0.17153381997E+03  0.00000000000E+00 0. -1.
        -24    2    1    2    0    0  0.64338910924E+02 -0.15675304212E+03 -0.98840848400E+02  0.21219176673E+03  0.80900067263E+02 0.  0.
         25    2    1    2    0    0 -0.12118284471E+02  0.12097963150E+03  0.53786611622E+03  0.56544671858E+03  0.12508840281E+03 0.  0.
         24    2    1    2    0    0 -0.52220626453E+02  0.35773410626E+02  0.11678646868E+04  0.11723191093E+04  0.80108904000E+02 0.  0.
        -11    1    5    5    0    0 -0.19063651678E+02 -0.12586085695E+02  0.75138765593E+03  0.75173482150E+03  0.00000000000E+00 0.  1.
         12    1    5    5    0    0 -0.33156974775E+02  0.48359496321E+02  0.41647703089E+03  0.42058428777E+03  0.00000000000E+00 0. -1.
         13    1    3    3    0    0  0.61641983128E+02 -0.11526999758E+03 -0.10807405655E+03  0.16960810160E+03  0.00000000000E+00 0. -1.
        -14    1    3    3    0    0  0.26969277966E+01 -0.41483044537E+02  0.92332081539E+01  0.42583665136E+02  0.00000000000E+00 0.  1.
          5    1    4    4  501    0  0.49694811238E+02  0.75517392827E+02  0.36871357276E+03  0.37965724281E+03  0.41800000000E+01 0.  1.
         -5    1    4    4    0  501 -0.61813095709E+02  0.45462238669E+02  0.16915254346E+03  0.18578947577E+03  0.41800000000E+01 0.  1.
</event>
<event>
11    1  0.6625361E-009  0.1545744E+03  0.7561462E-02  0.1092294E+00
         22   -1    0    0    0    0  0.00000000000E+00  0.00000000000E+00  0.29108673059E+03  0.29108673059E+03  0.00000000000E+00 0. -1.
         22   -1    0    0    0    0 -0.00000000000E+00 -0.00000000000E+00 -0.12685547972E+04  0.12685547972E+04  0.00000000000E+00 0.  1.
         24    2    1    2    0    0 -0.43736287690E+02 -0.59613076357E+02 -0.76008277947E+03  0.77120245284E+03  0.10752120667E+03 0.  0.
         25    2    1    2    0    0  0.78196475290E+02  0.12810359361E+03 -0.47190828584E+03  0.51075441807E+03  0.12508967139E+03 0.  0.
        -24    2    1    2    0    0 -0.34460187600E+02 -0.68490517256E+02  0.25452299872E+03  0.27768465687E+03  0.80301658124E+02 0.  0.
        -13    1    3    3    0    0 -0.37828666709E+02 -0.78714663076E+00 -0.58858528419E+03  0.58980019022E+03  0.00000000000E+00 0.  1.
         14    1    3    3    0    0 -0.59076209804E+01 -0.58825929726E+02 -0.17149749528E+03  0.18140226262E+03  0.00000000000E+00 0. -1.
         13    1    5    5    0    0 -0.57083546591E+02 -0.29263576319E+02  0.17168638299E+03  0.18327875571E+03  0.00000000000E+00 0. -1.
        -14    1    5    5    0    0  0.22623358991E+02 -0.39226940936E+02  0.82836615726E+02  0.94405901151E+02  0.00000000000E+00 0.  1.
          5    1    4    4  501    0 -0.31444734130E+02  0.47612161521E+02 -0.10766183178E+03  0.12191895526E+03  0.41800000000E+01 0.  1.
         -5    1    4    4    0  501  0.10964120942E+03  0.80491432092E+02 -0.36424645405E+03  0.38883546280E+03  0.41800000000E+01 0.  1.
</event>
<event>
11    1  0.8719019E-009  0.1763445E+03  0.7561462E-02  0.1072639E+00
         22   -1    0    0    0    0  0.00000000000E+00  0.00000000000E+00  0.19095572218E+03  0.19095572218E+03  0.00000000000E+00 0. -1.
         22   -1    0    0    0    0 -0.00000000000E+00 -0.00000000000E+00 -0.77187848062E+03  0.77187848062E+03  0.00000000000E+00 0.  1.
         24    2    1    2    0    0  0.22846882735E+02  0.71032448018E+01 -0.40897810134E+03  0.42363421649E+03  0.10784445222E+03 0.  0.
         25    2    1    2    0    0 -0.14190409909E+03 -0.33656317970E+02 -0.29224215440E+03  0.34974496780E+03  0.12508614877E+03 0.  0.
        -24    2    1    2    0    0  0.11905721635E+03  0.26553073168E+02  0.12029749730E+03  0.18945501851E+03  0.80882814742E+02 0.  0.
        -13    1    3    3    0    0  0.55769112134E+02  0.73243380631E+01 -0.36154908861E+03  0.36589832368E+03  0.00000000000E+00 0.  1.
         14    1    3    3    0    0 -0.32922229400E+02 -0.22109326130E+00 -0.47429012725E+02  0.57735892813E+02  0.00000000000E+00 0. -1.
         13    1    5    5    0    0  0.37124497274E+02  0.24323325023E+02  0.93030667063E+02  0.10307549395E+03  0.00000000000E+00 0. -1.
        -14    1    5    5    0    0  0.81932719076E+02  0.22297481449E+01  0.27266830237E+02  0.86379524560E+02  0.00000000000E+00 0.  1.
          5    1    4    4  501    0 -0.23822524820E+01 -0.17395360879E+02 -0.14531978895E+03  0.14643629048E+03  0.41800000000E+01 0. -1.
         -5    1    4    4    0  501 -0.13952184660E+03 -0.16260957091E+02 -0.14692236545E+03  0.20330867732E+03  0.41800000000E+01 0. -1.
</event>
<event>
11    1  0.6625361E-009  0.1343416E+03  0.7561462E-02  0.1114047E+00
         22   -1    0    0    0    0  0.00000000000E+00  0.00000000000E+00  0.10884196539E+04  0.10884196539E+04  0.00000000000E+00 0.  1.
         22   -1    0    0    0    0 -0.00000000000E+00 -0.00000000000E+00 -0.30100377653E+03  0.30100377653E+03  0.00000000000E+00 0.  1.
        -24    2    1    2    0    0 -0.45469583542E+01 -0.47729618472E+02 -0.15811560175E+03  0.17987570604E+03  0.71105096844E+02 0.  0.
         25    2    1    2    0    0  0.29451310049E+02  0.48441508783E+02 -0.94165038847E+02  0.16651917650E+03  0.12509045593E+03 0.  0.
         24    2    1    2    0    0 -0.24904351695E+02 -0.71189031043E+00  0.10396965180E+04  0.10430285479E+04  0.79491941323E+02 0.  0.
        -11    1    5    5    0    0 -0.26506743464E+02 -0.19128331945E+02  0.97977950026E+03  0.98032462463E+03  0.00000000000E+00 0.  1.
         12    1    5    5    0    0  0.16023917691E+01  0.18416441634E+02  0.59917017706E+02  0.62703923264E+02  0.00000000000E+00 0. -1.
         11    1    3    3    0    0  0.63739293440E+01  0.17736430010E+02 -0.27120816557E+02  0.33026453269E+02  0.00000000000E+00 0. -1.
        -12    1    3    3    0    0 -0.10920887698E+02 -0.65466048483E+02 -0.13099478519E+03  0.14684925277E+03  0.00000000000E+00 0.  1.
          5    1    4    4  501    0  0.56964565960E+02  0.66303875340E+02 -0.26882500937E+02  0.91549477971E+02  0.41800000000E+01 0. -1.
         -5    1    4    4    0  501 -0.27513255911E+02 -0.17862366558E+02 -0.67282537910E+02  0.74969698529E+02  0.41800000000E+01 0. -1.
</event>
<event>
11    1  0.6625361E-009  0.3449233E+03  0.7561462E-02  0.9827886E-01
         22   -1    0    0    0    0  0.00000000000E+00  0.00000000000E+00  0.15790147321E+04  0.15790147321E+04  0.00000000000E+00 0.  1.
         22   -1    0    0    0    0 -0.00000000000E+00 -0.00000000000E+00 -0.87646287623E+03  0.87646287623E+03  0.00000000000E+00 0. -1.
         24    2    1    2    0    0 -0.21185971442E+02 -0.32940476873E+02 -0.77786204255E+03  0.78332844974E+03  0.83667093451E+02 0.  0.
         25    2    1    2    0    0  0.17238154900E+03  0.30557167152E+03  0.40901188693E+03  0.55319699617E+03  0.12508696193E+03 0.  0.
        -24    2    1    2    0    0 -0.15119557756E+03 -0.27263119465E+03  0.10714020115E+04  0.11189521625E+04  0.83449389598E+02 0.  0.
        -13    1    3    3    0    0 -0.13942795701E+02  0.27474355815E+02 -0.21721178232E+03  0.21938596163E+03  0.00000000000E+00 0.  1.
         14    1    3    3    0    0 -0.72431757413E+01 -0.60414832688E+02 -0.56065026023E+03  0.56394248811E+03  0.00000000000E+00 0. -1.
         11    1    5    5    0    0 -0.80790195122E+02 -0.90347880737E+02  0.30935616108E+03  0.33225145535E+03  0.00000000000E+00 0. -1.
        -12    1    5    5    0    0 -0.70405382439E+02 -0.18228331391E+03  0.76204585043E+03  0.78670070711E+03  0.00000000000E+00 0.  1.
          5    1    4    4  501    0  0.48823902434E+02  0.10460551481E+03  0.22877823339E+03  0.25628702591E+03  0.41800000000E+01 0.  1.
         -5    1    4    4    0  501  0.12355764657E+03  0.20096615671E+03  0.18023365354E+03  0.29690997025E+03  0.41800000000E+01 0.  1.
</event>
<event>
11    1  0.6625361E-009  0.1320565E+03  0.7561462E-02  0.1116768E+00
         22   -1    0    0    0    0  0.00000000000E+00  0.00000000000E+00  0.76766564643E+03  0.76766564643E+03  0.00000000000E+00 0. -1.
         22   -1    0    0    0    0 -0.00000000000E+00 -0.00000000000E+00 -0.47715863724E+03  0.47715863724E+03  0.00000000000E+00 0. -1.
         24    2    1    2    0    0 -0.33329789374E+02 -0.24805713896E+02 -0.40368589642E+03  0.41392115746E+03  0.81499836316E+02 0.  0.
         25    2    1    2    0    0  0.49986830478E+02  0.21410957284E+02  0.43228753092E+01  0.13646745429E+03  0.12509023350E+03 0.  0.
        -24    2    1    2    0    0 -0.16657041104E+02  0.33947566127E+01  0.68987003030E+03  0.69443567192E+03  0.77661202221E+02 0.  0.
        -13    1    3    3    0    0  0.21058766585E+02 -0.78321939962E+01 -0.40690331356E+02  0.46481372385E+02  0.00000000000E+00 0.  1.
         14    1    3    3    0    0 -0.54388555960E+02 -0.16973519900E+02 -0.36299556507E+03  0.36743978507E+03  0.00000000000E+00 0. -1.
         11    1    5    5    0    0  0.30734916206E+01 -0.11172593405E+02  0.62463852179E+03  0.62474599326E+03  0.00000000000E+00 0. -1.
        -12    1    5    5    0    0 -0.19730532724E+02  0.14567350017E+02  0.65231508516E+02  0.69689678658E+02  0.00000000000E+00 0.  1.
          5    1    4    4  501    0  0.30668152675E+02 -0.44469593758E+02 -0.27408805651E+02  0.60718987020E+02  0.41800000000E+01 0. -1.
         -5    1    4    4    0  501  0.19318677803E+02  0.65880551042E+02  0.31731680960E+02  0.75748467273E+02  0.41800000000E+01 0. -1.
</event>
<event>
11    1  0.6625361E-009  0.1404774E+03  0.7561462E-02  0.1107026E+00
         22   -1    0    0    0    0  0.00000000000E+00  0.00000000000E+00  0.11491129181E+04  0.11491129181E+04  0.00000000000E+00 0. -1.
         22   -1    0    0    0    0 -0.00000000000E+00 -0.00000000000E+00 -0.54670684421E+03  0.54670684421E+03  0.00000000000E+00 0.  1.
         24    2    1    2    0    0 -0.64936171474E+02 -0.18764330240E+01 -0.52240340184E+03  0.53232452492E+03  0.79018087876E+02 0.  0.
         25    2    1    2    0    0  0.14851514699E+02  0.94401018456E+01  0.21614222227E+03  0.25034891677E+03  0.12508971528E+03 0.  0.
        -24    2    1    2    0    0  0.50084656775E+02 -0.75636688216E+01  0.90866725348E+03  0.91314632063E+03  0.74795343509E+02 0.  0.
        -13    1    3    3    0    0 -0.54750599968E+02  0.34150038932E+02 -0.35067346101E+03  0.35656097601E+03  0.00000000000E+00 0.  1.
         14    1    3    3    0    0 -0.10185571506E+02 -0.36026471956E+02 -0.17172994083E+03  0.17576354892E+03  0.00000000000E+00 0. -1.
         13    1    5    5    0    0  0.15395948357E+02 -0.23173996827E+00  0.76547785153E+03  0.76563269922E+03  0.00000000000E+00 0. -1.
        -14    1    5    5    0    0  0.34688708418E+02 -0.73319288534E+01  0.14318940194E+03  0.14751362141E+03  0.00000000000E+00 0.  1.
          5    1    4    4  501    0  0.66744030855E+02  0.25907849459E+02  0.12308510241E+03  0.14245489515E+03  0.41800000000E+01 0. -1.
         -5    1    4    4    0  501 -0.51892516155E+02 -0.16467747613E+02  0.93057119864E+02  0.10789402162E+03  0.41800000000E+01 0. -1.
</event>
<event>
11    1  0.6625361E-009  0.1698361E+03  0.7561462E-02  0.1078174E+00
         22   -1    0    0    0    0  0.00000000000E+00  0.00000000000E+00  0.57119423004E+03  0.57119423004E+03  0.00000000000E+00 0.  1.
         22   -1    0    0    0    0 -0.00000000000E+00 -0.00000000000E+00 -0.79625647336E+02  0.79625647336E+02  0.00000000000E+00 0. -1.
        -24    2    1    2    0    0  0.22074151179E+02  0.58665218255E+02  0.82050317908E+02  0.13072683669E+03  0.80177148728E+02 0.  0.
         25    2    1    2    0    0 -0.10421652336E+03  0.39014445170E+02  0.25222527845E+03  0.30274176011E+03  0.12510704036E+03 0.  0.
         24    2    1    2    0    0  0.82142372185E+02 -0.97679663425E+02  0.15729298634E+03  0.21735128058E+03  0.78815034503E+02 0.  0.
        -13    1    5    5    0    0  0.22512640180E+02 -0.79975317936E+02  0.11602231638E+03  0.14270265710E+03  0.00000000000E+00 0.  1.
         14    1    5    5    0    0  0.59629732005E+02 -0.17704345489E+02  0.41270669969E+02  0.74648623483E+02  0.00000000000E+00 0. -1.
         11    1    3    3    0    0  0.21562398204E+02  0.76645568060E+02  0.50131447842E+02  0.94088480603E+02  0.00000000000E+00 0. -1.
        -12    1    3    3    0    0  0.51175297531E+00 -0.17980349805E+02  0.31918870067E+02  0.36638356084E+02  0.00000000000E+00 0.  1.
          5    1    4    4  501    0  0.25612355766E+02 -0.92600361821E+01  0.29017269661E+02  0.40015189323E+02  0.41800000000E+01 0. -1.
         -5    1    4    4    0  501 -0.12982887913E+03  0.48274481352E+02  0.22320800879E+03  0.26272657078E+03  0.41800000000E+01 0. -1.
</event>
<event>
11    1  0.6625361E-009  0.1338112E+03  0.7561462E-02  0.1114673E+00
         22   -1    0    0    0    0  0.00000000000E+00  0.00000000000E+00  0.20232565657E+03  0.20232565657E+03  0.00000000000E+00 0. -1.
         22   -1    0    0    0    0 -0.00000000000E+00 -0.00000000000E+00 -0.71635437875E+03  0.71635437875E+03  0.00000000000E+00 0. -1.
        -24    2    1    2    0    0 -0.14653605858E+02 -0.37910316055E+02 -0.16850727307E+03  0.18770526544E+03  0.72018368289E+02 0.  0.
         25    2    1    2    0    0  0.15660967231E+02  0.84556159019E+02 -0.51514239078E+03  0.53704179496E+03  0.12508875580E+03 0.  0.
         24    2    1    2    0    0 -0.10073613726E+01 -0.46645842964E+02  0.16962094167E+03  0.19393297492E+03  0.81620374097E+02 0.  0.
        -13    1    5    5    0    0 -0.21254581707E+02  0.26346651071E+01  0.65760317666E+01  0.22404082163E+02  0.00000000000E+00 0.  1.
         14    1    5    5    0    0  0.20247220335E+02 -0.49280508071E+02  0.16304490990E+03  0.17152889276E+03  0.00000000000E+00 0. -1.
         11    1    3    3    0    0 -0.12359616924E+02 -0.76363141548E+01 -0.15286123025E+03  0.15355008674E+03  0.00000000000E+00 0. -1.
        -12    1    3    3    0    0 -0.22939889344E+01 -0.30274001901E+02 -0.15646042812E+02  0.34155178699E+02  0.00000000000E+00 0.  1.
          5    1    4    4  501    0  0.60069661871E+02  0.14958952145E+02 -0.30455666934E+03  0.31081243825E+03  0.41800000000E+01 0.  1.
         -5    1    4    4    0  501 -0.44408694640E+02  0.69597206874E+02 -0.21058572144E+03  0.22622935671E+03  0.41800000000E+01 0.  1.
</event>
<event>
11    1  0.6625361E-009  0.1475056E+03  0.7561462E-02  0.1099455E+00
         22   -1    0    0    0    0  0.00000000000E+00  0.00000000000E+00  0.11366629001E+04  0.11366629001E+04  0.00000000000E+00 0.  1.
         22   -1    0    0    0    0 -0.00000000000E+00 -0.00000000000E+00 -0.86835195768E+02  0.86835195768E+02  0.00000000000E+00 0.  1.
         24    2    1    2    0    0  0.26960604004E+02 -0.73669957207E+02 -0.28149387932E+02  0.12137963450E+03  0.88241095113E+02 0.  0.
         25    2    1    2    0    0 -0.64646482897E+01  0.76274122173E+02  0.67822165231E+03  0.69389630531E+03  0.12509172422E+03 0.  0.
        -24    2    1    2    0    0 -0.20495955714E+02 -0.26041649664E+01  0.39975543998E+03  0.40822215609E+03  0.80087770921E+02 0.  0.
        -11    1    3    3    0    0  0.29650329130E+01 -0.84692859565E+02 -0.38418943203E+02  0.93046693001E+02  0.00000000000E+00 0.  1.
         12    1    3    3    0    0  0.23995571091E+02  0.11022902359E+02  0.10269555271E+02  0.28332941497E+02  0.00000000000E+00 0. -1.
         13    1    5    5    0    0 -0.16346288919E+02  0.31430120561E+02  0.92373118060E+02  0.98933546283E+02  0.00000000000E+00 0. -1.
        -14    1    5    5    0    0 -0.41496667951E+01 -0.34034285528E+02  0.30738232192E+03  0.30928860981E+03  0.00000000000E+00 0.  1.
          5    1    4    4  501    0  0.55357980621E+02  0.36127830748E+02  0.21966876939E+03  0.22943750090E+03  0.41800000000E+01 0.  1.
         -5    1    4    4    0  501 -0.61822628911E+02  0.40146291425E+02  0.45855288292E+03  0.46445880441E+03  0.41800000000E+01 0.  1.
</event>
<event>
11    1  0.6625361E-009  0.1652484E+03  0.7561462E-02  0.1082242E+00
         22   -1    0    0    0    0  0.00000000000E+00  0.00000000000E+00  0.78333591574E+03  0.78333591574E+03  0.00000000000E+00 0. -1.
         22   -1    0    0    0    0 -0.00000000000E+00 -0.00000000000E+00 -0.30053590207E+03  0.30053590207E+03  0.00000000000E+00 0. -1.
        -24    2    1    2    0    0  0.93349705207E+02 -0.52793664942E+02 -0.25760373685E+03  0.29063553166E+03  0.81289535022E+02 0.  0.
         25    2    1    2    0    0 -0.91084460841E+02  0.10515480676E+03  0.50861185147E+03  0.54192936298E+03  0.12508999406E+03 0.  0.
         24    2    1    2    0    0 -0.22652443660E+01 -0.52361141814E+02  0.23179189905E+03  0.25130692316E+03  0.81736556450E+02 0.  0.
        -13    1    5    5    0    0  0.15197142165E+02 -0.67959171198E+02  0.13721136283E+03  0.15387124543E+03  0.00000000000E+00 0.  1.
         14    1    5    5    0    0 -0.17462386531E+02  0.15598029384E+02  0.94580536215E+02  0.97435677731E+02  0.00000000000E+00 0. -1.
         11    1    3    3    0    0  0.78666190560E+02 -0.36429146815E+02 -0.25396039924E+03  0.26834928108E+03  0.00000000000E+00 0. -1.
        -12    1    3    3    0    0  0.14683514646E+02 -0.16364518127E+02 -0.36433376099E+01  0.22286250578E+02  0.00000000000E+00 0.  1.
          5    1    4    4  501    0 -0.71720956218E+02  0.99136775757E+02  0.21366189760E+03  0.24625367967E+03  0.41800000000E+01 0.  1.
         -5    1    4    4    0  501 -0.19363504623E+02  0.60180309993E+01  0.29494995388E+03  0.29567568331E+03  0.41800000000E+01 0.  1.
</event>
<event>
11    1  0.6625361E-009  0.2248365E+03  0.7561462E-02  0.1038229E+00
         22   -1    0    0    0    0  0.00000000000E+00  0.00000000000E+00  0.10050031281E+04  0.10050031281E+04  0.00000000000E+00 0.  1.
         22   -1    0    0    0    0 -0.00000000000E+00 -0.00000000000E+00 -0.11839996105E+04  0.11839996105E+04  0.00000000000E+00 0.  1.
        -24    2    1    2    0    0 -0.31615595708E+02  0.17602428654E+02 -0.11116032381E+04  0.11150604500E+04  0.79929073051E+02 0.  0.
         25    2    1    2    0    0 -0.13210501776E+03  0.85797088538E+02  0.11909750487E+03  0.23376520853E+03  0.12509628666E+03 0.  0.
         24    2    1    2    0    0  0.16372061347E+03 -0.10339951719E+03  0.81350925086E+03  0.84017708010E+03  0.81266999791E+02 0.  0.
        -13    1    5    5    0    0  0.13596119958E+03 -0.93696247325E+02  0.77103131124E+03  0.78851361273E+03  0.00000000000E+00 0.  1.
         14    1    5    5    0    0  0.27759413890E+02 -0.97032698675E+01  0.42477939620E+02  0.51663467363E+02  0.00000000000E+00 0. -1.
         11    1    3    3    0    0 -0.31475771098E+01 -0.30427414822E+02 -0.30615819598E+03  0.30768258934E+03  0.00000000000E+00 0. -1.
        -12    1    3    3    0    0 -0.28468018599E+02  0.48029843476E+02 -0.80544504215E+03  0.80737786065E+03  0.00000000000E+00 0.  1.
          5    1    4    4  501    0 -0.15641921184E+03  0.74552519192E+02  0.95937169656E+02  0.19810719541E+03  0.41800000000E+01 0.  1.
         -5    1    4    4    0  501  0.24314194074E+02  0.11244569345E+02  0.23160335209E+02  0.35658013128E+02  0.41800000000E+01 0.  1.
</event>
<event>
11    1  0.6625361E-009  0.1830413E+03  0.7561462E-02  0.1067209E+00
         22   -1    0    0    0    0  0.00000000000E+00  0.00000000000E+00  0.16219076662E+03  0.16219076662E+03  0.00000000000E+00 0. -1.
         22   -1    0    0    0    0 -0.00000000000E+00 -0.00000000000E+00 -0.19228473640E+04  0.19228473640E+04  0.00000000000E+00 0.  1.
        -24    2    1    2    0    0  0.23346334277E+02  0.11226370833E+02 -0.15698745484E+04  0.15721197789E+04  0.79896300092E+02 0.  0.
         25    2    1    2    0    0 -0.73315085281E+02  0.11293931661E+03 -0.26704221787E+03  0.32417214738E+03  0.12508254893E+03 0.  0.
         24    2    1    2    0    0  0.49968751005E+02 -0.12416568745E+03  0.76260168907E+02  0.18874620433E+03  0.10906659557E+03 0.  0.
        -11    1    5    5    0    0  0.19385511040E+02 -0.25973670586E+00 -0.20779545286E+02  0.28419271696E+02  0.00000000000E+00 0.  1.
         12    1    5    5    0    0  0.30583239965E+02 -0.12390595074E+03  0.97039714193E+02  0.16032693263E+03  0.00000000000E+00 0. -1.
         11    1    3    3    0    0  0.61386601185E+01  0.25276791255E+02 -0.16240108490E+03  0.16447100566E+03  0.00000000000E+00 0. -1.
        -12    1    3    3    0    0  0.17207674158E+02 -0.14050420422E+02 -0.14074734635E+04  0.14076487732E+04  0.00000000000E+00 0.  1.
          5    1    4    4  501    0 -0.52187612178E+02  0.10540996120E+03 -0.27569864284E+03  0.29976994654E+03  0.41800000000E+01 0.  1.
         -5    1    4    4    0  501 -0.21127473104E+02  0.75293554128E+01  0.86564249714E+01  0.24402200843E+02  0.41800000000E+01 0.  1.
</event>
<event>
11    1  0.6625361E-009  0.2272758E+03  0.7561462E-02  0.1036753E+00
         22   -1    0    0    0    0  0.00000000000E+00  0.00000000000E+00  0.66498089604E+03  0.66498089604E+03  0.00000000000E+00 0. -1.
         22   -1    0    0    0    0 -0.00000000000E+00 -0.00000000000E+00 -0.54965715082E+03  0.54965715082E+03  0.00000000000E+00 0. -1.
        -24    2    1    2    0    0  0.15894670057E+02 -0.73783870595E+02 -0.46871385218E+03  0.48164969977E+03  0.81222275087E+02 0.  0.
         25    2    1    2    0    0 -0.18794050939E+03  0.92968931998E+02  0.39359204287E+03  0.46316859017E+03  0.12508233015E+03 0.  0.
         24    2    1    2    0    0  0.17204583934E+03 -0.19185061404E+02  0.19044555452E+03  0.26981975693E+03  0.81026875648E+02 0.  0.
        -13    1    5    5    0    0  0.73715952791E+02 -0.13955828428E+02  0.28437342953E+02  0.80233966107E+02  0.00000000000E+00 0.  1.
         14    1    5    5    0    0  0.98329886545E+02 -0.52292329761E+01  0.16200821157E+03  0.18958579082E+03  0.00000000000E+00 0. -1.
         11    1    3    3    0    0  0.23091822114E+02 -0.88061922968E+02 -0.43378069715E+03  0.44323112226E+03  0.00000000000E+00 0. -1.
        -12    1    3    3    0    0 -0.71971520567E+01  0.14278052374E+02 -0.34933155028E+02  0.38418577505E+02  0.00000000000E+00 0.  1.
          5    1    4    4  501    0  0.86224659811E+01  0.18013533455E+02  0.45999695938E+01  0.20915698109E+02  0.41800000000E+01 0.  1.
         -5    1    4    4    0  501 -0.19656297537E+03  0.74955398543E+02  0.38899207328E+03  0.44225289206E+03  0.41800000000E+01 0.  1.
</event>
<event>
11    1  0.6625361E-009  0.1479820E+03  0.7561462E-02  0.1098959E+00
         22   -1    0    0    0    0  0.00000000000E+00  0.00000000000E+00  0.26741439016E+03  0.26741439016E+03  0.00000000000E+00 0. -1.
         22   -1    0    0    0    0 -0.00000000000E+00 -0.00000000000E+00 -0.17493965390E+04  0.17493965390E+04  0.00000000000E+00 0.  1.
        -24    2    1    2    0    0  0.67220690742E+02 -0.29198064729E+02 -0.13318401024E+04  0.13363615003E+04  0.81809859103E+02 0.  0.
         25    2    1    2    0    0 -0.12550049290E+03  0.39367820927E+02 -0.38482473372E+03  0.42548710072E+03  0.12509595579E+03 0.  0.
         24    2    1    2    0    0  0.58279802158E+02 -0.10169756198E+02  0.23468268721E+03  0.25496232814E+03  0.80186444073E+02 0.  0.
        -11    1    5    5    0    0  0.84930313032E+00 -0.32044659669E+02  0.42767611438E+02  0.53447639023E+02  0.00000000000E+00 0.  1.
         12    1    5    5    0    0  0.57430499028E+02  0.21874903471E+02  0.19191507577E+03  0.20151468912E+03  0.00000000000E+00 0. -1.
         11    1    3    3    0    0 -0.50919645009E+01 -0.34385022703E+02 -0.57763841258E+03  0.57868332755E+03  0.00000000000E+00 0. -1.
        -12    1    3    3    0    0  0.72312655243E+02  0.51869579739E+01 -0.75420168978E+03  0.75767817278E+03  0.00000000000E+00 0.  1.
          5    1    4    4  501    0 -0.14954639568E+03  0.45103835182E+02 -0.33807681354E+03  0.37244044445E+03  0.41800000000E+01 0. -1.
         -5    1    4    4    0  501  0.24045902784E+02 -0.57360142548E+01 -0.46747920184E+02  0.53046656273E+02  0.41800000000E+01 0. -1.
</event>
<event>
11    1  0.6625361E-009  0.1581116E+03  0.7561462E-02  0.1088867E+00
         22   -1    0    0    0    0  0.00000000000E+00  0.00000000000E+00  0.13229633259E+04  0.13229633259E+04  0.00000000000E+00 0. -1.
         22   -1    0    0    0    0 -0.00000000000E+00 -0.00000000000E+00 -0.60447357636E+03  0.60447357636E+03  0.00000000000E+00 0.  1.
        -24    2    1    2    0    0  0.13557500068E+01 -0.12497624326E+02 -0.53520475123E+03  0.54133410284E+03  0.80252454679E+02 0.  0.
         25    2    1    2    0    0  0.93294588448E+02 -0.80702410726E+01  0.34107136985E+02  0.15996128619E+03  0.12512117032E+03 0.  0.
         24    2    1    2    0    0 -0.94650338454E+02  0.20567865399E+02  0.12195873638E+04  0.12261415132E+04  0.81534955204E+02 0.  0.
        -13    1    5    5    0    0 -0.20606287181E+02 -0.20710036348E+02  0.12911491078E+03  0.13237894418E+03  0.00000000000E+00 0.  1.
         14    1    5    5    0    0 -0.74044051274E+02  0.41277901747E+02  0.10904724530E+04  0.10937625691E+04  0.00000000000E+00 0. -1.
         13    1    3    3    0    0  0.21056975352E+02 -0.64298450130E+01 -0.39664959798E+02  0.45365715620E+02  0.00000000000E+00 0. -1.
        -14    1    3    3    0    0 -0.19701225345E+02 -0.60677793135E+01 -0.49553979143E+03  0.49596838722E+03  0.00000000000E+00 0.  1.
          5    1    4    4  501    0  0.55883854763E+02  0.47996924513E+02  0.51797458303E+02  0.90150757471E+02  0.41800000000E+01 0. -1.
         -5    1    4    4    0  501  0.37410733684E+02 -0.56067165586E+02 -0.17690321318E+02  0.69810528719E+02  0.41800000000E+01 0. -1.
</event>
<event>
11    1  0.6625361E-009  0.1392941E+03  0.7561462E-02  0.1108349E+00
         22   -1    0    0    0    0  0.00000000000E+00  0.00000000000E+00  0.40148942596E+03  0.40148942596E+03  0.00000000000E+00 0. -1.
         22   -1    0    0    0    0 -0.00000000000E+00 -0.00000000000E+00 -0.60770837444E+03  0.60770837444E+03  0.00000000000E+00 0. -1.
         24    2    1    2    0    0 -0.85271703320E+01 -0.64453892205E+02 -0.48303310741E+03  0.49355788677E+03  0.77790667082E+02 0.  0.
         25    2    1    2    0    0  0.53361678414E+02  0.22173488417E+02 -0.70398386076E+02  0.15473845543E+03  0.12509566145E+03 0.  0.
        -24    2    1    2    0    0 -0.44834508082E+02  0.42280403788E+02  0.34721254501E+03  0.36090145821E+03  0.76782455435E+02 0.  0.
        -13    1    3    3    0    0  0.24129447675E+02 -0.14535297261E+02 -0.59345457573E+02  0.65691616254E+02  0.00000000000E+00 0.  1.
         14    1    3    3    0    0 -0.32656618008E+02 -0.49918594944E+02 -0.42368764984E+03  0.42786627052E+03  0.00000000000E+00 0. -1.
         11    1    5    5    0    0 -0.21648033307E+02  0.36625710973E+02  0.32662033686E+03  0.32937960547E+03  0.00000000000E+00 0. -1.
        -12    1    5    5    0    0 -0.23186474774E+02  0.56546928154E+01  0.20592208154E+02  0.31521852737E+02  0.00000000000E+00 0.  1.
          5    1    4    4  501    0  0.85159884301E+01 -0.37107709736E+01 -0.96198491593E+02  0.96736312028E+02  0.41800000000E+01 0.  1.
         -5    1    4    4    0  501  0.44845689984E+02  0.25884259391E+02  0.25800105517E+02  0.58002143400E+02  0.41800000000E+01 0.  1.
</event>
<event>
11    1  0.6625361E-009  0.2071975E+03  0.7561462E-02  0.1049547E+00
         22   -1    0    0    0    0  0.00000000000E+00  0.00000000000E+00  0.61856241207E+03  0.61856241207E+03  0.00000000000E+00 0. -1.
         22   -1    0    0    0    0 -0.00000000000E+00 -0.00000000000E+00 -0.71066129845E+03  0.71066129845E+03  0.00000000000E+00 0.  1.
        -24    2    1    2    0    0  0.87851855489E+01 -0.80723934802E+02 -0.56993684722E+03  0.58548491995E+03  0.10663511870E+03 0.  0.
         25    2    1    2    0    0  0.15721470086E+03  0.60974638322E+02 -0.21460334046E+02  0.21105065041E+03  0.12508981739E+03 0.  0.
         24    2    1    2    0    0 -0.16599988641E+03  0.19749296480E+02  0.49929829488E+03  0.53268814016E+03  0.80696160952E+02 0.  0.
        -11    1    5    5    0    0  0.48727066527E+01  0.28778456942E+01  0.71418591360E+02  0.71642448714E+02  0.00000000000E+00 0.  1.
         12    1    5    5    0    0 -0.17087259306E+03  0.16871450786E+02  0.42787970352E+03  0.46104569144E+03  0.00000000000E+00 0. -1.
         11    1    3    3    0    0 -0.81761875117E+01 -0.12148653473E+02 -0.40329457255E+01  0.15188958973E+02  0.00000000000E+00 0. -1.
        -12    1    3    3    0    0  0.16961373061E+02 -0.68575281329E+02 -0.56590390149E+03  0.57029596098E+03  0.00000000000E+00 0.  1.
          5    1    4    4  501    0  0.72287856984E+02  0.95368521059E+01 -0.69369340181E+02  0.10072767034E+03  0.41800000000E+01 0. -1.
         -5    1    4    4    0  501  0.84926843879E+02  0.51437786216E+02  0.47909006135E+02  0.11032298007E+03  0.41800000000E+01 0. -1.
</event>
<event>
11    1  0.6625361E-009  0.1807829E+03  0.7561462E-02  0.1069011E+00
         22   -1    0    0    0    0  0.00000000000E+00  0.00000000000E+00  0.26603969110E+04  0.26603969110E+04  0.00000000000E+00 0. -1.
         22   -1    0    0    0    0 -0.00000000000E+00 -0.00000000000E+00 -0.51549601130E+03  0.51549601130E+03  0.00000000000E+00 0.  1.
         24    2    1    2    0    0  0.10253831315E+02  0.15170479376E+02 -0.49808393129E+03  0.50450986778E+03  0.78149341465E+02 0.  0.
         25    2    1    2    0    0  0.99507792194E+02 -0.85857703248E+02  0.72519858655E+03  0.74755061967E+03  0.12508234537E+03 0.  0.
        -24    2    1    2    0    0 -0.10976162351E+03  0.70687223872E+02  0.19177862444E+04  0.19238324348E+04  0.78631166984E+02 0.  0.
        -11    1    3    3    0    0  0.31711615427E+01  0.33601410734E+02 -0.46318089238E+03  0.46440892555E+03  0.00000000000E+00 0.  1.
         12    1    3    3    0    0  0.70826697725E+01 -0.18430931358E+02 -0.34903038915E+02  0.40100942225E+02  0.00000000000E+00 0. -1.
         11    1    5    5    0    0 -0.11543439610E+03  0.73180911223E+02  0.15554813179E+04  0.15614745198E+04  0.00000000000E+00 0. -1.
        -12    1    5    5    0    0  0.56727725951E+01 -0.24936873507E+01  0.36230492654E+03  0.36235791508E+03  0.00000000000E+00 0.  1.
          5    1    4    4  501    0  0.12122640467E+02 -0.91343676863E+02  0.42025251270E+03  0.43025605463E+03  0.41800000000E+01 0. -1.
         -5    1    4    4    0  501  0.87385151727E+02  0.54859736151E+01  0.30494607385E+03  0.31729456504E+03  0.41800000000E+01 0. -1.
</event>
<event>
11    1  0.6625361E-009  0.1598483E+03  0.7561462E-02  0.1087220E+00
         22   -1    0    0    0    0  0.00000000000E+00  0.00000000000E+00  0.22204675181E+03  0.22204675181E+03  0.00000000000E+00 0.  1.
         22   -1    0    0    0    0 -0.00000000000E+00 -0.00000000000E+00 -0.18413921566E+03  0.18413921566E+03  0.00000000000E+00 0. -1.
        -24    2    1    2    0    0 -0.59017366830E+02  0.64650584071E+02 -0.21284130802E+02  0.12118486111E+03  0.81055590369E+02 0.  0.
         25    2    1    2    0    0  0.11072468684E+03 -0.69463696945E+02  0.48551813182E+02  0.18732715192E+03  0.12509605035E+03 0.  0.
         24    2    1    2    0    0 -0.51707320009E+02  0.48131128737E+01  0.10639853770E+02  0.97673954443E+02  0.82037685792E+02 0.  0.
        -11    1    5    5    0    0 -0.29662333257E+02 -0.13454293626E+01  0.46476172088E+02  0.55151598040E+02  0.00000000000E+00 0.  1.
         12    1    5    5    0    0 -0.22044986753E+02  0.61585422363E+01 -0.35836318319E+02  0.42522356403E+02  0.00000000000E+00 0. -1.
         13    1    3    3    0    0 -0.50429700412E+02  0.77810174374E+02  0.24090630272E+01  0.92754415013E+02  0.00000000000E+00 0. -1.
        -14    1    3    3    0    0 -0.85876664181E+01 -0.13159590303E+02 -0.23693193829E+02  0.28430446097E+02  0.00000000000E+00 0.  1.
          5    1    4    4  501    0 -0.10567304443E+02  0.89440952437E+01  0.40058510829E+02  0.42588982762E+02  0.41800000000E+01 0. -1.
         -5    1    4    4    0  501  0.12129199128E+03 -0.78407792188E+02  0.84933023532E+01  0.14473816915E+03  0.41800000000E+01 0. -1.
</event>
<event>
11    1  0.6625361E-009  0.2379533E+03  0.7561462E-02  0.1030520E+00
         22   -1    0    0    0    0  0.00000000000E+00  0.00000000000E+00  0.16379867529E+04  0.16379867529E+04  0.00000000000E+00 0. -1.
         22   -1    0    0    0    0 -0.00000000000E+00 -0.00000000000E+00 -0.55882984586E+03  0.55882984586E+03  0.00000000000E+00 0.  1.
         24    2    1    2    0    0  0.53349550142E+02  0.39362981396E+02 -0.45335440476E+03  0.46480808501E+03  0.78235035472E+02 0.  0.
         25    2    1    2    0    0  0.40317928113E+02 -0.21782137025E+03  0.84771707101E+02  0.26814601406E+03  0.12507740749E+03 0.  0.
        -24    2    1    2    0    0 -0.93667478255E+02  0.17845838886E+03  0.14477396047E+04  0.14638624997E+04  0.79513910515E+02 0.  0.
        -11    1    3    3    0    0  0.55086048221E+02  0.22649708458E+02 -0.43804746618E+03  0.44207812051E+03  0.00000000000E+00 0.  1.
         12    1    3    3    0    0 -0.17364980789E+01  0.16713272938E+02 -0.15306938573E+02  0.22729964504E+02  0.00000000000E+00 0. -1.
         13    1    5    5    0    0 -0.52423036504E+02  0.73088396194E+02  0.90462982372E+03  0.90909031805E+03  0.00000000000E+00 0. -1.
        -14    1    5    5    0    0 -0.41244441751E+02  0.10536999266E+03  0.54310978097E+03  0.55477218163E+03  0.00000000000E+00 0.  1.
          5    1    4    4  501    0  0.74567391740E+02 -0.15150332411E+03  0.93196329628E+02  0.19291599567E+03  0.41800000000E+01 0.  1.
         -5    1    4    4    0  501 -0.34249463627E+02 -0.66318046142E+02 -0.84246225270E+01  0.75230018394E+02  0.41800000000E+01 0.  1.
</event>
<event>
11    1  0.6625361E-009  0.1368893E+03  0.7561462E-02  0.1111083E+00
         22   -1    0    0    0    0  0.00000000000E+00  0.00000000000E+00  0.17182636853E+03  0.17182636853E+03  0.00000000000E+00 0.  1.
         22   -1    0    0    0    0 -0.00000000000E+00 -0.00000000000E+00 -0.36088325087E+03  0.36088325087E+03  0.00000000000E+00 0.  1.
        -24    2    1    2    0    0  0.24191989304E+01 -0.53043236941E+02 -0.24505224179E+03  0.26409213289E+03  0.82913303764E+02 0.  0.
         25    2    1    2    0    0  0.15381213409E+02  0.71422808764E+02 -0.30025133100E+02  0.14794193314E+03  0.12508999810E+03 0.  0.
         24    2    1    2    0    0 -0.17800412339E+02 -0.18379571823E+02  0.86020492550E+02  0.12067555337E+03  0.80674659606E+02 0.  0.
        -11    1    5    5    0    0 -0.43824584159E+02 -0.88271417261E+01  0.80978517114E+02  0.92498826164E+02  0.00000000000E+00 0.  1.
         12    1    5    5    0    0  0.26024171820E+02 -0.95524300966E+01  0.50419754358E+01  0.28176727205E+02  0.00000000000E+00 0. -1.
         13    1    3    3    0    0 -0.10037321433E+02 -0.21716185404E+02 -0.22192122604E+03  0.22320701400E+03  0.00000000000E+00 0. -1.
        -14    1    3    3    0    0  0.12456520364E+02 -0.31327051537E+02 -0.23131015751E+02  0.40885118897E+02  0.00000000000E+00 0.  1.
          5    1    4    4  501    0  0.54801281193E+02 -0.86466504704E+00  0.10683434813E+02  0.55995859181E+02  0.41800000000E+01 0. -1.
         -5    1    4    4    0  501 -0.39420067784E+02  0.72287473811E+02 -0.40708567914E+02  0.91946073955E+02  0.41800000000E+01 0. -1.
</event>
<event>
11    1  0.6625361E-009  0.1366700E+03  0.7561462E-02  0.1111335E+00
         22   -1    0    0    0    0  0.00000000000E+00  0.00000000000E+00  0.46552319031E+03  0.46552319031E+03  0.00000000000E+00 0. -1.
         22   -1    0    0    0    0 -0.00000000000E+00 -0.00000000000E+00 -0.10381501894E+04  0.10381501894E+04  0.00000000000E+00 0.  1.
         24    2    1    2    0    0  0.54090703326E+02  0.74997572616E+01 -0.97418228074E+03  0.97900480470E+03  0.80232418442E+02 0.  0.
         25    2    1    2    0    0 -0.73355234480E+02  0.11792184744E+01  0.35964943918E+02  0.14940775545E+03  0.12508724642E+03 0.  0.
        -24    2    1    2    0    0  0.19264531154E+02 -0.86789757359E+01  0.36559033776E+03  0.37526081954E+03  0.81963045598E+02 0.  0.
        -11    1    3    3    0    0  0.33603675332E+02 -0.20573180123E+02 -0.82034877766E+03  0.82129445374E+03  0.00000000000E+00 0.  1.
         12    1    3    3    0    0  0.20487027993E+02  0.28072937385E+02 -0.15383350308E+03  0.15771035096E+03  0.00000000000E+00 0. -1.
         13    1    5    5    0    0 -0.77893880078E+01 -0.23977841016E+02  0.31415169776E+03  0.31516170553E+03  0.00000000000E+00 0. -1.
        -14    1    5    5    0    0  0.27053919162E+02  0.15298865280E+02  0.51438639993E+02  0.60099114013E+02  0.00000000000E+00 0.  1.
          5    1    4    4  501    0  0.18078235777E+02 -0.13633979849E+02 -0.28381768795E+02  0.36547301066E+02  0.41800000000E+01 0. -1.
         -5    1    4    4    0  501 -0.91433470257E+02  0.14813198323E+02  0.64346712712E+02  0.11286045439E+03  0.41800000000E+01 0. -1.
</event>
<event>
11    1  0.6625361E-009  0.1682546E+03  0.7561462E-02  0.1079561E+00
         22   -1    0    0    0    0  0.00000000000E+00  0.00000000000E+00  0.26465408452E+03  0.26465408452E+03  0.00000000000E+00 0.  1.
         22   -1    0    0    0    0 -0.00000000000E+00 -0.00000000000E+00 -0.25378604618E+04  0.25378604618E+04  0.00000000000E+00 0. -1.
        -24    2    1    2    0    0 -0.69292662198E+02  0.58972470656E+02 -0.22596419035E+04  0.22629742051E+04  0.82410528571E+02 0.  0.
         25    2    1    2    0    0 -0.31011593606E+02  0.58062070652E+01 -0.23916118465E+03  0.27173775637E+03  0.12509158650E+03 0.  0.
         24    2    1    2    0    0  0.10030425580E+03 -0.64778677721E+02  0.22559671089E+03  0.26780258490E+03  0.81037816467E+02 0.  0.
        -13    1    5    5    0    0  0.41525253643E+02 -0.73318382371E+02  0.11964928092E+03  0.14634166293E+03  0.00000000000E+00 0.  1.
         14    1    5    5    0    0  0.58779002161E+02  0.85397046500E+01  0.10594742996E+03  0.12146092197E+03  0.00000000000E+00 0. -1.
         11    1    3    3    0    0 -0.42928704090E+02  0.36177515882E+02 -0.20230764880E+04  0.20238552722E+04  0.00000000000E+00 0. -1.
        -12    1    3    3    0    0 -0.26363958108E+02  0.22794954774E+02 -0.23656541548E+03  0.23911893286E+03  0.00000000000E+00 0.  1.
          5    1    4    4  501    0  0.10962750276E+02  0.10807138606E+02 -0.22699174005E+03  0.22755152952E+03  0.41800000000E+01 0.  1.
         -5    1    4    4    0  501 -0.41974343882E+02 -0.50009315412E+01 -0.12169444599E+02  0.44186226841E+02  0.41800000000E+01 0.  1.
</event>
<event>
11    1  0.6625361E-009  0.1298846E+03  0.7561462E-02  0.1119411E+00
         22   -1    0    0    0    0  0.00000000000E+00  0.00000000000E+00  0.16523337693E+04  0.16523337693E+04  0.00000000000E+00 0. -1.
         22   -1    0    0    0    0 -0.00000000000E+00 -0.00000000000E+00 -0.30189118109E+03  0.30189118109E+03  0.00000000000E+00 0. -1.
        -24    2    1    2    0    0 -0.83869521218E+01  0.35538943475E+02 -0.24358684195E+03  0.25924830042E+03  0.80881235346E+02 0.  0.
         25    2    1    2    0    0  0.25108396781E+02 -0.65218759258E+02  0.55197888609E+02  0.15355106648E+03  0.12508878831E+03 0.  0.
         24    2    1    2    0    0 -0.16721444659E+02  0.29679815783E+02  0.15388315416E+04  0.15414255835E+04  0.82642712897E+02 0.  0.
        -11    1    5    5    0    0  0.31185390145E+02 -0.21601296701E+01  0.63052134619E+03  0.63129578069E+03  0.00000000000E+00 0.  1.
         12    1    5    5    0    0 -0.47906834804E+02  0.31839945453E+02  0.90831019539E+03  0.91012980282E+03  0.00000000000E+00 0. -1.
         11    1    3    3    0    0 -0.14964663175E+02 -0.10962623442E+02 -0.17583371487E+03  0.17680954596E+03  0.00000000000E+00 0. -1.
        -12    1    3    3    0    0  0.65777110530E+01  0.46501566917E+02 -0.67753127076E+02  0.82438754461E+02  0.00000000000E+00 0.  1.
          5    1    4    4  501    0 -0.27387064019E+02  0.64968096803E+01  0.57923061540E+02  0.64535364489E+02  0.41800000000E+01 0. -1.
         -5    1    4    4    0  501  0.52495460800E+02 -0.71715568939E+02 -0.27251729304E+01  0.89015701987E+02  0.41800000000E+01 0. -1.
</event>
<event>
11    1  0.6625361E-009  0.2137819E+03  0.7561462E-02  0.1045184E+00
         22   -1    0    0    0    0  0.00000000000E+00  0.00000000000E+00  0.24589531208E+04  0.24589531208E+04  0.00000000000E+00 0. -1.
         22   -1    0    0    0    0 -0.00000000000E+00 -0.00000000000E+00 -0.13677474797E+04  0.13677474797E+04  0.00000000000E+00 0.  1.
         24    2    1    2    0    0  0.46343106909E+02  0.22335480092E+02 -0.10830706678E+04  0.10870635949E+04  0.77579834542E+02 0.  0.
         25    2    1    2    0    0 -0.98300576967E+02  0.14316174790E+03 -0.23781362705E+03  0.31993999178E+03  0.12509191672E+03 0.  0.
        -24    2    1    2    0    0  0.51957470058E+02 -0.16549722800E+03  0.24120899359E+04  0.24196970139E+04  0.81650898122E+02 0.  0.
        -11    1    3    3    0    0  0.50596064696E+02  0.44847583964E+02 -0.90557600994E+03  0.90809645817E+03  0.00000000000E+00 0.  1.
         12    1    3    3    0    0 -0.42529577878E+01 -0.22512103872E+02 -0.17749465781E+03  0.17896713671E+03  0.00000000000E+00 0. -1.
         13    1    5    5    0    0  0.44359856531E+02 -0.99222663808E+02  0.19242750254E+04  0.19273420317E+04  0.00000000000E+00 0. -1.
        -14    1    5    5    0    0  0.75976135275E+01 -0.66274564188E+02  0.48781491045E+03  0.49235498215E+03  0.00000000000E+00 0.  1.
          5    1    4    4  501    0  0.25221417449E+02  0.59545981184E+02 -0.71474776874E+02  0.96477768955E+02  0.41800000000E+01 0. -1.
         -5    1    4    4    0  501 -0.12352199442E+03  0.83615766720E+02 -0.16633885018E+03  0.22346222282E+03  0.41800000000E+01 0. -1.
</event>
<event>
11    1  0.6625361E-009  0.1292187E+03  0.7561462E-02  0.1120233E+00
         22   -1    0    0    0    0  0.00000000000E+00  0.00000000000E+00  0.32371391016E+02  0.32371391016E+02  0.00000000000E+00 0.  1.
         22   -1    0    0    0    0 -0.00000000000E+00 -0.00000000000E+00 -0.20052105496E+04  0.20052105496E+04  0.00000000000E+00 0.  1.
         24    2    1    2    0    0 -0.75266151020E+00  0.49934902690E+01 -0.15818132144E+04  0.15836840788E+04  0.76790068089E+02 0.  0.
         25    2    1    2    0    0  0.32838848106E+02 -0.67636779408E+01 -0.30680306974E+03  0.33301587040E+03  0.12508920438E+03 0.  0.
        -24    2    1    2    0    0 -0.32086186596E+02  0.17701876718E+01 -0.84222874406E+02  0.12088199144E+03  0.80537608273E+02 0.  0.
        -13    1    3    3    0    0 -0.28937845735E+02  0.13887667931E+02 -0.12854747326E+04  0.12858754039E+04  0.00000000000E+00 0.  1.
         14    1    3    3    0    0  0.28185184225E+02 -0.88941776620E+01 -0.29633848184E+03  0.29780867486E+03  0.00000000000E+00 0. -1.
         11    1    5    5    0    0 -0.16878909035E+01  0.15603435455E+02 -0.86015977458E+02  0.87436059791E+02  0.00000000000E+00 0. -1.
        -12    1    5    5    0    0 -0.30398295692E+02 -0.13833247783E+02  0.17931030521E+01  0.33445931647E+02  0.00000000000E+00 0.  1.
          5    1    4    4  501    0  0.74724580594E+02 -0.25096715171E+02 -0.14833678579E+03  0.16803238520E+03  0.41800000000E+01 0. -1.
         -5    1    4    4    0  501 -0.41885732488E+02  0.18333037231E+02 -0.15846628396E+03  0.16498348521E+03  0.41800000000E+01 0. -1.
</event>
<event>
11    1  0.6625361E-009  0.1616100E+03  0.7561462E-02  0.1085573E+00
         22   -1    0    0    0    0  0.00000000000E+00  0.00000000000E+00  0.23672685648E+03  0.23672685648E+03  0.00000000000E+00 0. -1.
         22   -1    0    0    0    0 -0.00000000000E+00 -0.00000000000E+00 -0.20887141167E+04  0.20887141167E+04  0.00000000000E+00 0.  1.
         24    2    1    2    0    0  0.80651590052E+02  0.59957530879E+02 -0.19309549517E+04  0.19352382979E+04  0.80378228973E+02 0.  0.
         25    2    1    2    0    0 -0.14186238023E+03 -0.10312227912E+03 -0.49662321334E+02  0.22107344743E+03  0.12509190071E+03 0.  0.
        -24    2    1    2    0    0  0.61210790178E+02  0.43164748242E+02  0.12863001276E+03  0.16912922790E+03  0.80306034785E+02 0.  0.
        -13    1    3    3    0    0  0.96363494404E+02  0.43182304446E+02 -0.15546821076E+04  0.15582641272E+04  0.00000000000E+00 0.  1.
         14    1    3    3    0    0 -0.15711904352E+02  0.16775226433E+02 -0.37627284408E+03  0.37697417067E+03  0.00000000000E+00 0. -1.
         13    1    5    5    0    0  0.25936159577E+02  0.17341844550E+02  0.12074077249E+03  0.12470668823E+03  0.00000000000E+00 0. -1.
        -14    1    5    5    0    0  0.35274630601E+02  0.25822903692E+02  0.78892402645E+01  0.44422539674E+02  0.00000000000E+00 0.  1.
          5    1    4    4  501    0 -0.10534436666E+03 -0.66899756103E+00 -0.13051575546E+02  0.10623417138E+03  0.41800000000E+01 0.  1.
         -5    1    4    4    0  501 -0.36518013575E+02 -0.10245328156E+03 -0.36610745788E+02  0.11483927606E+03  0.41800000000E+01 0.  1.
</event>
<event>
11    1  0.6625361E-009  0.1363104E+03  0.7561462E-02  0.1111750E+00
         22   -1    0    0    0    0  0.00000000000E+00  0.00000000000E+00  0.34931540229E+03  0.34931540229E+03  0.00000000000E+00 0. -1.
         22   -1    0    0    0    0 -0.00000000000E+00 -0.00000000000E+00 -0.25527217316E+03  0.25527217316E+03  0.00000000000E+00 0.  1.
         24    2    1    2    0    0  0.46246863336E+02  0.27487313693E+02 -0.16759052272E+03  0.19384897148E+03  0.81218936562E+02 0.  0.
         25    2    1    2    0    0  0.36927915247E+01 -0.55283518777E+02  0.59829745370E+01  0.13694139622E+03  0.12508895178E+03 0.  0.
        -24    2    1    2    0    0 -0.49939654860E+02  0.27796205084E+02  0.25565077731E+03  0.27379720774E+03  0.79630351529E+02 0.  0.
        -13    1    3    3    0    0  0.57328667379E+02  0.47555508360E+02 -0.12936005990E+03  0.14927199194E+03  0.00000000000E+00 0.  1.
         14    1    3    3    0    0 -0.11081804043E+02 -0.20068194667E+02 -0.38230462822E+02  0.44576979548E+02  0.00000000000E+00 0. -1.
         11    1    5    5    0    0 -0.30800724992E+02  0.48979688321E+02  0.22319258312E+03  0.23057021423E+03  0.00000000000E+00 0. -1.
        -12    1    5    5    0    0 -0.19138929868E+02 -0.21183483237E+02  0.32458194188E+02  0.43226993517E+02  0.00000000000E+00 0.  1.
          5    1    4    4  501    0 -0.11552637808E+02  0.34533263256E+02 -0.20473738374E+02  0.41983997838E+02  0.41800000000E+01 0. -1.
         -5    1    4    4    0  501  0.15245429333E+02 -0.89816782033E+02  0.26456712911E+02  0.94957398386E+02  0.41800000000E+01 0. -1.
</event>
<event>
11    1  0.6625361E-009  0.1347152E+03  0.7561462E-02  0.1113608E+00
         22   -1    0    0    0    0  0.00000000000E+00  0.00000000000E+00  0.14373675597E+03  0.14373675597E+03  0.00000000000E+00 0. -1.
         22   -1    0    0    0    0 -0.00000000000E+00 -0.00000000000E+00 -0.38390921543E+03  0.38390921543E+03  0.00000000000E+00 0. -1.
        -24    2    1    2    0    0 -0.63278358451E+02  0.27827805721E+02 -0.19381245645E+03  0.22526835990E+03  0.91673487307E+02 0.  0.
         25    2    1    2    0    0 -0.40255276466E+00 -0.32095302932E+02 -0.11957338094E+03  0.17599861395E+03  0.12508976043E+03 0.  0.
         24    2    1    2    0    0  0.63680911216E+02  0.42674972118E+01  0.73213377929E+02  0.12637899755E+03  0.80857790774E+02 0.  0.
        -11    1    5    5    0    0  0.60014950402E+02  0.33945615796E+02  0.33476111995E+02  0.76646912383E+02  0.00000000000E+00 0.  1.
         12    1    5    5    0    0  0.36659608136E+01 -0.29678118584E+02  0.39737265934E+02  0.49732085169E+02  0.00000000000E+00 0. -1.
         13    1    3    3    0    0 -0.76350855048E+01 -0.95962461075E+01 -0.13651755929E+03  0.13706723337E+03  0.00000000000E+00 0. -1.
        -14    1    3    3    0    0 -0.55643272946E+02  0.37424051828E+02 -0.57294897165E+02  0.88201126527E+02  0.00000000000E+00 0.  1.
          5    1    4    4  501    0 -0.14251967892E+02  0.45786862436E+02 -0.31417278910E+02  0.57481067967E+02  0.41800000000E+01 0.  1.
         -5    1    4    4    0  501  0.13849415127E+02 -0.77882165368E+02 -0.88156102025E+02  0.11851754598E+03  0.41800000000E+01 0.  1.
</event>
<event>
11    1  0.6625361E-009  0.1622872E+03  0.7561462E-02  0.1084946E+00
         22   -1    0    0    0    0  0.00000000000E+00  0.00000000000E+00  0.45999208887E+03  0.45999208887E+03  0.00000000000E+00 0.  1.
         22   -1    0    0    0    0 -0.00000000000E+00 -0.00000000000E+00 -0.44062590807E+03  0.44062590807E+03  0.00000000000E+00 0. -1.
         24    2    1    2    0    0  0.97432728591E+02  0.25414538220E+02 -0.33966729357E+03  0.36320446915E+03  0.80028624473E+02 0.  0.
         25    2    1    2    0    0 -0.13868258308E+03  0.29028700478E+02  0.30511106059E+02  0.19145843159E+03  0.12509947694E+03 0.  0.
        -24    2    1    2    0    0  0.41249854494E+02 -0.54443238698E+02  0.32852236832E+03  0.34595509620E+03  0.84216182311E+02 0.  0.
        -13    1    3    3    0    0 -0.98171945976E+01 -0.11356872428E+02 -0.47202378046E+02  0.49532013429E+02  0.00000000000E+00 0.  1.
         14    1    3    3    0    0  0.10724992319E+03  0.36771410648E+02 -0.29246491553E+03  0.31367245572E+03  0.00000000000E+00 0. -1.
         13    1    5    5    0    0  0.13929691145E+02 -0.22425839171E+02  0.16554893628E+02  0.31161178748E+02  0.00000000000E+00 0. -1.
        -14    1    5    5    0    0  0.27320163349E+02 -0.32017399527E+02  0.31196747469E+03  0.31479391745E+03  0.00000000000E+00 0.  1.
          5    1    4    4  501    0 -0.99918861883E+02  0.77609714964E+02  0.17073896591E+02  0.12773424428E+03  0.41800000000E+01 0. -1.
         -5    1    4    4    0  501 -0.38763721202E+02 -0.48581014487E+02  0.13437209468E+02  0.63724187309E+02  0.41800000000E+01 0. -1.
</event>
<event>
11    1  0.6625361E-009  0.1383997E+03  0.7561462E-02  0.1109359E+00
         22   -1    0    0    0    0  0.00000000000E+00  0.00000000000E+00  0.75372344337E+03  0.75372344337E+03  0.00000000000E+00 0.  1.
         22   -1    0    0    0    0 -0.00000000000E+00 -0.00000000000E+00 -0.94064798137E+02  0.94064798137E+02  0.00000000000E+00 0.  1.
         24    2    1    2    0    0  0.53680218721E+02 -0.11957742306E+01 -0.27330940535E+02  0.10093590255E+03  0.80981975492E+02 0.  0.
         25    2    1    2    0    0 -0.10323903791E+03 -0.23793332465E+01  0.24283754753E+03  0.29202929975E+03  0.12508827784E+03 0.  0.
        -24    2    1    2    0    0  0.49558819185E+02  0.35751074771E+01  0.44415203824E+03  0.45482303921E+03  0.84404419110E+02 0.  0.
        -13    1    3    3    0    0  0.43412287467E+02 -0.93815678306E+01 -0.54770778732E+02  0.70515804760E+02  0.00000000000E+00 0.  1.
         14    1    3    3    0    0  0.10267931253E+02  0.81857936000E+01  0.27439838197E+02  0.30420097787E+02  0.00000000000E+00 0. -1.
         11    1    5    5    0    0  0.43579327248E+01  0.38829615132E+02  0.22089833626E+03  0.22432745162E+03  0.00000000000E+00 0. -1.
        -12    1    5    5    0    0  0.45200886460E+02 -0.35254507655E+02  0.22325370198E+03  0.23049558759E+03  0.00000000000E+00 0.  1.
          5    1    4    4  501    0 -0.65600700240E+00 -0.24696908252E+02 -0.24606065026E+01  0.25177263687E+02  0.41800000000E+01 0. -1.
         -5    1    4    4    0  501 -0.10258303090E+03  0.22317575006E+02  0.24529815403E+03  0.26685203607E+03  0.41800000000E+01 0. -1.
</event>
<event>
11    1  0.6625361E-009  0.1602416E+03  0.7561462E-02  0.1086850E+00
         22   -1    0    0    0    0  0.00000000000E+00  0.00000000000E+00  0.48538838855E+03  0.48538838855E+03  0.00000000000E+00 0.  1.
         22   -1    0    0    0    0 -0.00000000000E+00 -0.00000000000E+00 -0.32532572378E+03  0.32532572378E+03  0.00000000000E+00 0. -1.
        -24    2    1    2    0    0  0.54466403455E+02  0.89366913561E+00 -0.26065727668E+03  0.27959567147E+03  0.85229900084E+02 0.  0.
         25    2    1    2    0    0 -0.56361221114E+01  0.92989094940E+02  0.10439780700E+03  0.18768379141E+03  0.12509023064E+03 0.  0.
         24    2    1    2    0    0 -0.48830281344E+02 -0.93882764076E+02  0.31632213446E+03  0.34343464945E+03  0.81788116061E+02 0.  0.
        -13    1    5    5    0    0 -0.14591929708E+02 -0.58536365412E+02  0.26711653311E+03  0.27384424907E+03  0.00000000000E+00 0.  1.
         14    1    5    5    0    0 -0.34238351636E+02 -0.35346398663E+02  0.49205601350E+02  0.69590400382E+02  0.00000000000E+00 0. -1.
         11    1    3    3    0    0  0.18302261445E+02  0.19890240418E+02 -0.22105216912E+03  0.22269857635E+03  0.00000000000E+00 0. -1.
        -12    1    3    3    0    0  0.36164142010E+02 -0.18996571282E+02 -0.39605107566E+02  0.56897095120E+02  0.00000000000E+00 0.  1.
          5    1    4    4  501    0  0.25264752669E+02  0.30031038661E+01 -0.18841861570E+02  0.31934534718E+02  0.41800000000E+01 0. -1.
         -5    1    4    4    0  501 -0.30900874780E+02  0.89985991074E+02  0.12323966857E+03  0.15574925669E+03  0.41800000000E+01 0. -1.
</event>
<event>
11    1  0.6625361E-009  0.1308807E+03  0.7561462E-02  0.1118192E+00
         22   -1    0    0    0    0  0.00000000000E+00  0.00000000000E+00  0.69264519639E+03  0.69264519639E+03  0.00000000000E+00 0.  1.
         22   -1    0    0    0    0 -0.00000000000E+00 -0.00000000000E+00 -0.50116454630E+04  0.50116454630E+04  0.00000000000E+00 0.  1.
         24    2    1    2    0    0  0.16894566057E+02  0.33183170836E+02 -0.43024924747E+04  0.43034317971E+04  0.81836346107E+02 0.  0.
         25    2    1    2    0    0  0.71403218065E+01 -0.66667927476E+02 -0.69860232977E+03  0.71287478598E+03  0.12509855547E+03 0.  0.
        -24    2    1    2    0    0 -0.24034887864E+02  0.33484756641E+02  0.68209453792E+03  0.68798407633E+03  0.79813694671E+02 0.  0.
        -13    1    3    3    0    0  0.44646429030E+02  0.38745235245E+02 -0.33405966485E+04  0.33411196424E+04  0.00000000000E+00 0.  1.
         14    1    3    3    0    0 -0.27751862973E+02 -0.55620644097E+01 -0.96189582622E+03  0.96231215463E+03  0.00000000000E+00 0. -1.
         13    1    5    5    0    0  0.28202248165E+02  0.10544656695E+02  0.16242214531E+03  0.16518931525E+03  0.00000000000E+00 0. -1.
        -14    1    5    5    0    0 -0.52237136029E+02  0.22940099946E+02  0.51967239261E+03  0.52279476108E+03  0.00000000000E+00 0.  1.
          5    1    4    4  501    0  0.27305705752E+02 -0.38907662998E+02 -0.65724603074E+03  0.65897589116E+03  0.41800000000E+01 0.  1.
         -5    1    4    4    0  501 -0.20165383945E+02 -0.27760264478E+02 -0.41356299029E+02  0.53898894821E+02  0.41800000000E+01 0.  1.
</event>
<event>
11    1  0.6625361E-009  0.1465382E+03  0.7561462E-02  0.1100469E+00
         22   -1    0    0    0    0  0.00000000000E+00  0.00000000000E+00  0.83432209310E+03  0.83432209310E+03  0.00000000000E+00 0. -1.
         22   -1    0    0    0    0 -0.00000000000E+00 -0.00000000000E+00 -0.14714704191E+03  0.14714704191E+03  0.00000000000E+00 0. -1.
         24    2    1    2    0    0 -0.68519629590E+02  0.33297473889E+02 -0.10348779367E+03  0.15231639510E+03  0.81773463730E+02 0.  0.
         25    2    1    2    0    0  0.52525149639E+02 -0.73516493278E+02  0.56500367769E+03  0.58569583143E+03  0.12508750945E+03 0.  0.
        -24    2    1    2    0    0  0.15994479950E+02  0.40219019390E+02  0.22565916717E+03  0.24345690849E+03  0.80472440321E+02 0.  0.
        -13    1    3    3    0    0  0.68140793304E+01  0.34309341866E+02 -0.21929827027E+02  0.41285347641E+02  0.00000000000E+00 0.  1.
         14    1    3    3    0    0 -0.75333708920E+02 -0.10118679769E+01 -0.81557966640E+02  0.11103104745E+03  0.00000000000E+00 0. -1.
         13    1    5    5    0    0 -0.22102839159E+02 -0.88590595394E+01  0.10586358156E+03  0.10850860028E+03  0.00000000000E+00 0. -1.
        -14    1    5    5    0    0  0.38097319109E+02  0.49078078929E+02  0.11979558562E+03  0.13494830821E+03  0.00000000000E+00 0.  1.
          5    1    4    4  501    0  0.88718032207E+02 -0.54107861445E+02  0.30044463477E+03  0.31793552942E+03  0.41800000000E+01 0.  1.
         -5    1    4    4    0  501 -0.36192882567E+02 -0.19408631833E+02  0.26455904292E+03  0.26776030201E+03  0.41800000000E+01 0.  1.
</event>
<event>
11    1  0.6625361E-009  0.1465442E+03  0.7561462E-02  0.1100463E+00
         22   -1    0    0    0    0  0.00000000000E+00  0.00000000000E+00  0.70419973483E+03  0.70419973483E+03  0.00000000000E+00 0. -1.
         22   -1    0    0    0    0 -0.00000000000E+00 -0.00000000000E+00 -0.68592851917E+02  0.68592851917E+02  0.00000000000E+00 0.  1.
        -24    2    1    2    0    0 -0.24648092314E+02 -0.11263984199E+03  0.10592985633E+03  0.17502865173E+03  0.78221685019E+02 0.  0.
         25    2    1    2    0    0 -0.49757277871E+01  0.32134160851E+02  0.13899436477E+03  0.18979992941E+03  0.12508883886E+03 0.  0.
         24    2    1    2    0    0  0.29623820101E+02  0.80505681135E+02  0.39068266181E+03  0.40796400560E+03  0.80268002427E+02 0.  0.
        -11    1    5    5    0    0  0.36030553128E+02  0.37427799237E+02  0.88210549175E+02  0.10237256420E+03  0.00000000000E+00 0.  1.
         12    1    5    5    0    0 -0.64067330269E+01  0.43077881898E+02  0.30247211264E+03  0.30559144141E+03  0.00000000000E+00 0. -1.
         13    1    3    3    0    0 -0.42267004848E+02 -0.30562631404E+02  0.59394940389E+02  0.79046398279E+02  0.00000000000E+00 0. -1.
        -14    1    3    3    0    0  0.17618912534E+02 -0.82077210583E+02  0.46534915937E+02  0.95982253450E+02  0.00000000000E+00 0.  1.
          5    1    4    4  501    0 -0.42927513887E+02 -0.32609525326E+02  0.56874208726E+02  0.78474840610E+02  0.41800000000E+01 0.  1.
         -5    1    4    4    0  501  0.37951786100E+02  0.64743686177E+02  0.82120156045E+02  0.11132508880E+03  0.41800000000E+01 0.  1.
</event>
<event>
11    1  0.6625361E-009  0.1341721E+03  0.7561462E-02  0.1114246E+00
         22   -1    0    0    0    0  0.00000000000E+00  0.00000000000E+00  0.82991520543E+03  0.82991520543E+03  0.00000000000E+00 0.  1.
         22   -1    0    0    0    0 -0.00000000000E+00 -0.00000000000E+00 -0.24688624087E+03  0.24688624087E+03  0.00000000000E+00 0.  1.
         24    2    1    2    0    0  0.34030850531E+02 -0.45459832398E+02 -0.15803739448E+03  0.18737194619E+03  0.83112772876E+02 0.  0.
         25    2    1    2    0    0  0.84230656839E+01  0.25161374606E+02 -0.13628597142E+02  0.12860118551E+03  0.12509389852E+03 0.  0.
        -24    2    1    2    0    0 -0.42453916214E+02  0.20298457793E+02  0.75469495618E+03  0.76082831461E+03  0.84147994807E+02 0.  0.
        -11    1    3    3    0    0  0.48009961042E+02 -0.40750969533E+02 -0.55991191848E+02  0.84265125893E+02  0.00000000000E+00 0.  1.
         12    1    3    3    0    0 -0.13979110512E+02 -0.47088628654E+01 -0.10204620263E+03  0.10310682029E+03  0.00000000000E+00 0. -1.
         11    1    5    5    0    0 -0.54609385928E+02 -0.55166539855E+00  0.26655052665E+03  0.27208761939E+03  0.00000000000E+00 0. -1.
        -12    1    5    5    0    0  0.12155469714E+02  0.20850123191E+02  0.48814442953E+03  0.48874069521E+03  0.00000000000E+00 0.  1.
          5    1    4    4  501    0  0.32756999154E+02  0.64248986685E+02 -0.31796704883E+02  0.78926903683E+02  0.41800000000E+01 0.  1.
         -5    1    4    4    0  501 -0.24333933470E+02 -0.39087612079E+02  0.18168107741E+02  0.49674281827E+02  0.41800000000E+01 0.  1.
</event>
<event>
11    1  0.6625361E-009  0.1428752E+03  0.7561462E-02  0.1104390E+00
         22   -1    0    0    0    0  0.00000000000E+00  0.00000000000E+00  0.14145742180E+04  0.14145742180E+04  0.00000000000E+00 0.  1.
         22   -1    0    0    0    0 -0.00000000000E+00 -0.00000000000E+00 -0.18200940329E+03  0.18200940329E+03  0.00000000000E+00 0. -1.
         24    2    1    2    0    0 -0.24655078897E+02  0.59792512345E+02 -0.90363915994E+02  0.13622451767E+03  0.78793809736E+02 0.  0.
         25    2    1    2    0    0  0.93758466797E+01 -0.12535005055E+03  0.51767052458E+02  0.18473788872E+03  0.12509083953E+03 0.  0.
        -24    2    1    2    0    0  0.15279232218E+02  0.65557538209E+02  0.12711616782E+04  0.12756212149E+04  0.82620977407E+02 0.  0.
        -11    1    3    3    0    0 -0.18857694281E+02  0.20599653452E+02  0.89279344648E+01  0.29320067697E+02  0.00000000000E+00 0.  1.
         12    1    3    3    0    0 -0.57973846163E+01  0.39192858893E+02 -0.99291850458E+02  0.10690444997E+03  0.00000000000E+00 0. -1.
         13    1    5    5    0    0  0.27862839654E+01 -0.11123119279E+02  0.57890039540E+03  0.57901395057E+03  0.00000000000E+00 0. -1.
        -14    1    5    5    0    0  0.12492948252E+02  0.76680657487E+02  0.69226128284E+03  0.69660726432E+03  0.00000000000E+00 0.  1.
          5    1    4    4  501    0  0.65507162889E+02 -0.48032739942E+02  0.17909849319E+02  0.83286058850E+02  0.41800000000E+01 0. -1.
         -5    1    4    4    0  501 -0.56131316210E+02 -0.77317310612E+02  0.33857203138E+02  0.10145182987E+03  0.41800000000E+01 0. -1.
</event>
<event>
11    1  0.6625361E-009  0.1362858E+03  0.7561462E-02  0.1111778E+00
         22   -1    0    0    0    0  0.00000000000E+00  0.00000000000E+00  0.20207909913E+03  0.20207909913E+03  0.00000000000E+00 0. -1.
         22   -1    0    0    0    0 -0.00000000000E+00 -0.00000000000E+00 -0.58226698728E+03  0.58226698728E+03  0.00000000000E+00 0. -1.
        -24    2    1    2    0    0 -0.23873278846E+02  0.50767337699E+02 -0.41201684064E+03  0.42409559682E+03  0.83378308050E+02 0.  0.
         25    2    1    2    0    0  0.22032940567E+02 -0.38815074541E+02 -0.12483590579E+03  0.18227543734E+03  0.12509305018E+03 0.  0.
         24    2    1    2    0    0  0.18403382789E+01 -0.11952263158E+02  0.15666485828E+03  0.17797505224E+03  0.83576300247E+02 0.  0.
        -13    1    5    5    0    0  0.32108317746E+02 -0.13041497499E+02  0.24644470949E+02  0.42524988817E+02  0.00000000000E+00 0.  1.
         14    1    5    5    0    0 -0.30267979467E+02  0.10892343411E+01  0.13202038733E+03  0.13545006343E+03  0.00000000000E+00 0. -1.
         13    1    3    3    0    0 -0.34923868987E+02  0.65168959357E+02 -0.24018559323E+03  0.25130815562E+03  0.00000000000E+00 0. -1.
        -14    1    3    3    0    0  0.11050590141E+02 -0.14401621658E+02 -0.17183124741E+03  0.17278744120E+03  0.00000000000E+00 0.  1.
          5    1    4    4  501    0 -0.48431005167E+02  0.62174235691E+01 -0.49176864349E+02  0.69426615966E+02  0.41800000000E+01 0.  1.
         -5    1    4    4    0  501  0.70463945734E+02 -0.45032498110E+02 -0.75659041442E+02  0.11284882138E+03  0.41800000000E+01 0.  1.
</event>
<event>
11    1  0.6625361E-009  0.2923967E+03  0.7561462E-02  0.1003461E+00
         22   -1    0    0    0    0  0.00000000000E+00  0.00000000000E+00  0.33861819235E+03  0.33861819235E+03  0.00000000000E+00 0.  1.
         22   -1    0    0    0    0 -0.00000000000E+00 -0.00000000000E+00 -0.24579158535E+04  0.24579158535E+04  0.00000000000E+00 0. -1.
        -24    2    1    2    0    0  0.35026304477E+02 -0.42174664675E+02 -0.12765336047E+04  0.12801085829E+04  0.78322383214E+02 0.  0.
         25    2    1    2    0    0 -0.25062549999E+03 -0.11028572564E+03 -0.10996666589E+04  0.11401273081E+04  0.12508970895E+03 0.  0.
         24    2    1    2    0    0  0.21559919551E+03  0.15246039032E+03  0.25690260254E+03  0.37629815485E+03  0.76643136897E+02 0.  0.
        -13    1    5    5    0    0  0.11625032672E+03  0.12047114785E+03  0.18529641068E+03  0.24972423939E+03  0.00000000000E+00 0.  1.
         14    1    5    5    0    0  0.99348868790E+02  0.31989242463E+02  0.71606191866E+02  0.12657391547E+03  0.00000000000E+00 0. -1.
         13    1    3    3    0    0  0.30804306467E+02 -0.47838270115E+02 -0.12668242255E+04  0.12681013460E+04  0.00000000000E+00 0. -1.
        -14    1    3    3    0    0  0.42219980103E+01  0.56636054392E+01 -0.97093792511E+01  0.12007236952E+02  0.00000000000E+00 0.  1.
          5    1    4    4  501    0 -0.18445032316E+03 -0.86484090806E+02 -0.98253998106E+03  0.10034459161E+04  0.41800000000E+01 0. -1.
         -5    1    4    4    0  501 -0.66175176828E+02 -0.23801634834E+02 -0.11712667788E+03  0.13668139201E+03  0.41800000000E+01 0. -1.
</event>
<event>
11    1  0.6625361E-009  0.2383545E+03  0.7561462E-02  0.1030292E+00
         22   -1    0    0    0    0  0.00000000000E+00  0.00000000000E+00  0.27061586426E+03  0.27061586426E+03  0.00000000000E+00 0.  1.
         22   -1    0    0    0    0 -0.00000000000E+00 -0.00000000000E+00 -0.19850967063E+04  0.19850967063E+04  0.00000000000E+00 0.  1.
         24    2    1    2    0    0 -0.12062335236E+02 -0.62421411751E+02 -0.90517376975E+03  0.91081969042E+03  0.78810040213E+02 0.  0.
         25    2    1    2    0    0 -0.97798291938E+02 -0.11119517795E+03 -0.10212196750E+04  0.10394555160E+04  0.12509704901E+03 0.  0.
        -24    2    1    2    0    0  0.10986062717E+03  0.17361658971E+03  0.21191260268E+03  0.30543736416E+03  0.78568152751E+02 0.  0.
        -13    1    3    3    0    0 -0.37064813218E+02 -0.35412617407E+02 -0.73123518057E+03  0.73302983783E+03  0.00000000000E+00 0.  1.
         14    1    3    3    0    0  0.25002477982E+02 -0.27008794345E+02 -0.17393858918E+03  0.17778985259E+03  0.00000000000E+00 0. -1.
         13    1    5    5    0    0  0.32935364688E+01 -0.83624452484E+01  0.69880388663E+01  0.11384663377E+02  0.00000000000E+00 0. -1.
        -14    1    5    5    0    0  0.10656709071E+03  0.18197903495E+03  0.20492456381E+03  0.29405270078E+03  0.00000000000E+00 0.  1.
          5    1    4    4  501    0 -0.94810953039E+02 -0.32745277988E+02 -0.76174452222E+03  0.76833167290E+03  0.41800000000E+01 0. -1.
         -5    1    4    4    0  501 -0.29873388997E+01 -0.78449899966E+02 -0.25947515275E+03  0.27112384310E+03  0.41800000000E+01 0. -1.
</event>
<event>
11    1  0.6984259E-009  0.1895077E+03  0.7561462E-02  0.1062202E+00
         22   -1    0    0    0    0  0.00000000000E+00  0.00000000000E+00  0.82996951387E+03  0.82996951387E+03  0.00000000000E+00 0. -1.
         22   -1    0    0    0    0 -0.00000000000E+00 -0.00000000000E+00 -0.23926567751E+03  0.23926567751E+03  0.00000000000E+00 0. -1.
         24    2    1    2    0    0  0.22433854446E+02  0.10634856787E+03 -0.15036989947E+03  0.20223114416E+03  0.80455163226E+02 0.  0.
         25    2    1    2    0    0 -0.43274559874E+01  0.55382552755E+02  0.40545990006E+02  0.14274176589E+03  0.12508109529E+03 0.  0.
        -24    2    1    2    0    0 -0.18106398459E+02 -0.16173112062E+03  0.70052774582E+03  0.72426228132E+03  0.85626704051E+02 0.  0.
        -13    1    3    3    0    0  0.16638561524E+02  0.27837560591E+02  0.77714333727E-01  0.32431120067E+02  0.00000000000E+00 0.  1.
         14    1    3    3    0    0  0.57952929219E+01  0.78511007276E+02 -0.15044761380E+03  0.16980002410E+03  0.00000000000E+00 0. -1.
         13    1    5    5    0    0 -0.39962399619E+02 -0.14923087506E+03  0.64578582028E+03  0.66400766045E+03  0.00000000000E+00 0. -1.
        -14    1    5    5    0    0  0.21856001160E+02 -0.12500245561E+02  0.54741925537E+02  0.60254620879E+02  0.00000000000E+00 0.  1.
          5    1    4    4  501    0 -0.31378398243E+01  0.11086626105E+01  0.77020775645E+02  0.77205877059E+02  0.41800000000E+01 0. -1.
         -5    1    4    4    0  501 -0.11896161630E+01  0.54273890144E+02 -0.36474785639E+02  0.65535888835E+02  0.41800000000E+01 0. -1.
</event>
<event>
11    1  0.6625361E-009  0.1286388E+03  0.7561462E-02  0.1120953E+00
         22   -1    0    0    0    0  0.00000000000E+00  0.00000000000E+00  0.33689322935E+03  0.33689322935E+03  0.00000000000E+00 0.  1.
         22   -1    0    0    0    0 -0.00000000000E+00 -0.00000000000E+00 -0.66957256725E+03  0.66957256725E+03  0.00000000000E+00 0. -1.
         24    2    1    2    0    0  0.48640861296E-01  0.31049878154E+02 -0.55387303003E+03  0.56048608457E+03  0.80032620239E+02 0.  0.
         25    2    1    2    0    0  0.21181346548E+02 -0.17760523161E+02 -0.67654649251E+02  0.14486702183E+03  0.12508084116E+03 0.  0.
        -24    2    1    2    0    0 -0.21229987409E+02 -0.13289354994E+02  0.28884834138E+03  0.30111269020E+03  0.81290642500E+02 0.  0.
        -13    1    3    3    0    0  0.58846333873E+01  0.12969664805E+02 -0.13011385566E+02  0.19290859742E+02  0.00000000000E+00 0.  1.
         14    1    3    3    0    0 -0.58359925260E+01  0.18080213350E+02 -0.54086164447E+03  0.54119522483E+03  0.00000000000E+00 0. -1.
         11    1    5    5    0    0 -0.12910939766E+02  0.20458279956E+02  0.24293108501E+02  0.34283942379E+02  0.00000000000E+00 0. -1.
        -12    1    5    5    0    0 -0.83190476428E+01 -0.33747634949E+02  0.26455523288E+03  0.26682874782E+03  0.00000000000E+00 0.  1.
          5    1    4    4  501    0  0.38750404094E+02  0.28864044334E+02  0.12783026203E+02  0.50155807557E+02  0.41800000000E+01 0.  1.
         -5    1    4    4    0  501 -0.17569057546E+02 -0.46624567495E+02 -0.80437675455E+02  0.94711214276E+02  0.41800000000E+01 0.  1.
</event>
<event>
11    1  0.6625361E-009  0.1554049E+03  0.7561462E-02  0.1091481E+00
         22   -1    0    0    0    0  0.00000000000E+00  0.00000000000E+00  0.13356052790E+04  0.13356052790E+04  0.00000000000E+00 0.  1.
         22   -1    0    0    0    0 -0.00000000000E+00 -0.00000000000E+00 -0.16151304340E+04  0.16151304340E+04  0.00000000000E+00 0.  1.
        -24    2    1    2    0    0  0.34990155767E+02 -0.83320403216E+02 -0.15007336122E+04  0.15057483331E+04  0.83126815216E+02 0.  0.
         25    2    1    2    0    0 -0.50138665827E+02  0.15637600585E+03 -0.12149583070E+02  0.20679246104E+03  0.12509263989E+03 0.  0.
         24    2    1    2    0    0  0.15148510060E+02 -0.73055602638E+02  0.12333580403E+04  0.12381949188E+04  0.79924983803E+02 0.  0.
        -11    1    5    5    0    0  0.36567969622E+02 -0.84864934834E+01  0.60538067913E+03  0.60654348866E+03  0.00000000000E+00 0.  1.
         12    1    5    5    0    0 -0.21419459562E+02 -0.64569109155E+02  0.62797736118E+03  0.63165143019E+03  0.00000000000E+00 0. -1.
         13    1    3    3    0    0  0.49721983470E+02 -0.27210273411E+02 -0.47394808377E+03  0.47732531959E+03  0.00000000000E+00 0. -1.
        -14    1    3    3    0    0 -0.14731827703E+02 -0.56110129805E+02 -0.10267855284E+04  0.10284230135E+04  0.00000000000E+00 0.  1.
          5    1    4    4  501    0 -0.48405485241E+02  0.16633959418E+03  0.18474445677E+02  0.17427199757E+03  0.41800000000E+01 0. -1.
         -5    1    4    4    0  501 -0.17331805863E+01 -0.99635883289E+01 -0.30624028747E+02  0.32520463465E+02  0.41800000000E+01 0. -1.
</event>
<event>
11    1  0.6625361E-009  0.3993186E+03  0.7561462E-02  0.9651771E-01
         22   -1    0    0    0    0  0.00000000000E+00  0.00000000000E+00  0.69086160222E+03  0.69086160222E+03  0.00000000000E+00 0.  1.
         22   -1    0    0    0    0 -0.00000000000E+00 -0.00000000000E+00 -0.18381974061E+04  0.18381974061E+04  0.00000000000E+00 0. -1.
        -24    2    1    2    0    0 -0.89166009714E+02 -0.29431083012E+02 -0.90241833406E+03  0.91098632207E+03  0.81978432672E+02 0.  0.
         25    2    1    2    0    0  0.28642421387E+03  0.34795054003E+03 -0.80995790653E+03  0.93530050222E+03  0.12508721158E+03 0.  0.
         24    2    1    2    0    0 -0.19725820416E+03 -0.31851945702E+03  0.56504043668E+03  0.68277218406E+03  0.80880879340E+02 0.  0.
        -11    1    5    5    0    0 -0.11652082191E+03 -0.25368714027E+03  0.42834523476E+03  0.51128652165E+03  0.00000000000E+00 0.  1.
         12    1    5    5    0    0 -0.80737382244E+02 -0.64832316751E+02  0.13669520192E+03  0.17148566242E+03  0.00000000000E+00 0. -1.
         11    1    3    3    0    0 -0.82461727840E+02 -0.38114359210E+02 -0.88911193606E+03  0.89374083255E+03  0.00000000000E+00 0. -1.
        -12    1    3    3    0    0 -0.67042818733E+01  0.86832761986E+01 -0.13306398005E+02  0.17245489522E+02  0.00000000000E+00 0.  1.
          5    1    4    4  501    0  0.23969530363E+03  0.22872080221E+03 -0.49907951052E+03  0.59905331496E+03  0.41800000000E+01 0. -1.
         -5    1    4    4    0  501  0.46728910245E+02  0.11922973782E+03 -0.31087839601E+03  0.33624718726E+03  0.41800000000E+01 0. -1.
</event>
<event>
11    1  0.6625361E-009  0.1346792E+03  0.7561462E-02  0.1113650E+00
         22   -1    0    0    0    0  0.00000000000E+00  0.00000000000E+00  0.18400562324E+03  0.18400562324E+03  0.00000000000E+00 0.  1.
         22   -1    0    0    0    0 -0.00000000000E+00 -0.00000000000E+00 -0.34621076831E+03  0.34621076831E+03  0.00000000000E+00 0.  1.
         24    2    1    2    0    0 -0.41726940559E+02 -0.31389550341E+02 -0.26969634082E+03  0.28614747058E+03  0.80111280274E+02 0.  0.
         25    2    1    2    0    0  0.29118040598E+02  0.46000041789E+01  0.35290175705E+02  0.13327656342E+03  0.12509286762E+03 0.  0.
        -24    2    1    2    0    0  0.12608899961E+02  0.26789546162E+02  0.72201020047E+02  0.11079235754E+03  0.78646646798E+02 0.  0.
        -13    1    3    3    0    0 -0.47298633247E+02  0.14334353799E+02 -0.14732820933E+03  0.15539702593E+03  0.00000000000E+00 0.  1.
         14    1    3    3    0    0  0.55716926876E+01 -0.45723904140E+02 -0.12236813150E+03  0.13075044465E+03  0.00000000000E+00 0. -1.
         11    1    5    5    0    0 -0.18413851816E+02 -0.14967605256E+02  0.25599512326E+01  0.23867393995E+02  0.00000000000E+00 0. -1.
        -12    1    5    5    0    0  0.31022751778E+02  0.41757151419E+02  0.69641068814E+02  0.86924963549E+02  0.00000000000E+00 0.  1.
          5    1    4    4  501    0 -0.35244841540E+01 -0.57340311122E+02  0.23225434451E+02  0.62106573514E+02  0.41800000000E+01 0. -1.
         -5    1    4    4    0  501  0.32642524752E+02  0.61940315301E+02  0.12064741253E+02  0.71169989906E+02  0.41800000000E+01 0. -1.
</event>
<event>
11    1  0.6625361E-009  0.1764794E+03  0.7561462E-02  0.1072527E+00
         22   -1    0    0    0    0  0.00000000000E+00  0.00000000000E+00  0.52050315430E+03  0.52050315430E+03  0.00000000000E+00 0. -1.
         22   -1    0    0    0    0 -0.00000000000E+00 -0.00000000000E+00 -0.27621892729E+03  0.27621892729E+03  0.00000000000E+00 0.  1.
        -24    2    1    2    0    0  0.12013842350E+03 -0.27223590318E+02 -0.19503747415E+03  0.24433996764E+03  0.80548363066E+02 0.  0.
         25    2    1    2    0    0 -0.11169222728E+03  0.11220300473E+03  0.18276583965E+03  0.27224072787E+03  0.12508794452E+03 0.  0.
         24    2    1    2    0    0 -0.84461962272E+01 -0.84979414413E+02  0.25655586151E+03  0.28014138607E+03  0.73249211663E+02 0.  0.
        -13    1    5    5    0    0 -0.24584530350E+02 -0.26223045137E+02  0.17319342599E+03  0.17688417124E+03  0.00000000000E+00 0.  1.
         14    1    5    5    0    0  0.16138334123E+02 -0.58756369276E+02  0.83362435518E+02  0.10325721483E+03  0.00000000000E+00 0. -1.
         13    1    3    3    0    0 -0.83290566223E+01  0.47116190565E+01 -0.12446780594E+01  0.96499617524E+01  0.00000000000E+00 0. -1.
        -14    1    3    3    0    0  0.12846748013E+03 -0.31935209375E+02 -0.19379279609E+03  0.23469000589E+03  0.00000000000E+00 0.  1.
          5    1    4    4  501    0 -0.74361510057E+02  0.13290058459E+03  0.11048379559E+03  0.18819229806E+03  0.41800000000E+01 0. -1.
         -5    1    4    4    0  501 -0.37330717219E+02 -0.20697579855E+02  0.72282044069E+02  0.84048429817E+02  0.41800000000E+01 0. -1.
</event>
<event>
11    1  0.6625361E-009  0.1303297E+03  0.7561462E-02  0.1118864E+00
         22   -1    0    0    0    0  0.00000000000E+00  0.00000000000E+00  0.92855575139E+03  0.92855575139E+03  0.00000000000E+00 0. -1.
         22   -1    0    0    0    0 -0.00000000000E+00 -0.00000000000E+00 -0.29434148772E+03  0.29434148772E+03  0.00000000000E+00 0.  1.
        -24    2    1    2    0    0 -0.12151945115E+02 -0.21130370589E+02 -0.27117837076E+03  0.28368196217E+03  0.79646623063E+02 0.  0.
         25    2    1    2    0    0  0.25670472796E+02  0.50083906928E+02  0.32998969497E+03  0.35736220249E+03  0.12508866484E+03 0.  0.
         24    2    1    2    0    0 -0.13518527681E+02 -0.28953536339E+02  0.57540293945E+03  0.58185307445E+03  0.80270789578E+02 0.  0.
        -13    1    5    5    0    0  0.21975761002E+02  0.17332549621E+02  0.17504950644E+03  0.17727289994E+03  0.00000000000E+00 0.  1.
         14    1    5    5    0    0 -0.35494288683E+02 -0.46286085959E+02  0.40035343301E+03  0.40458017451E+03  0.00000000000E+00 0. -1.
         13    1    3    3    0    0 -0.65988555558E+01  0.29932421647E+02 -0.78414142508E+02  0.84191879095E+02  0.00000000000E+00 0. -1.
        -14    1    3    3    0    0 -0.55530895590E+01 -0.51062792235E+02 -0.19276422825E+03  0.19949008308E+03  0.00000000000E+00 0.  1.
          5    1    4    4  501    0  0.20916415622E+02  0.70501609462E+02  0.89446995385E+02  0.11587152697E+03  0.41800000000E+01 0. -1.
         -5    1    4    4    0  501  0.47540571742E+01 -0.20417702535E+02  0.24054269959E+03  0.24149067552E+03  0.41800000000E+01 0. -1.
</event>
<event>
11    1  0.6625361E-009  0.1288838E+03  0.7561462E-02  0.1120648E+00
         22   -1    0    0    0    0  0.00000000000E+00  0.00000000000E+00  0.56204795179E+03  0.56204795179E+03  0.00000000000E+00 0.  1.
         22   -1    0    0    0    0 -0.00000000000E+00 -0.00000000000E+00 -0.31911606772E+04  0.31911606772E+04  0.00000000000E+00 0. -1.
        -24    2    1    2    0    0  0.13923801212E+02  0.13176516846E+02 -0.31273136290E+04  0.31284074333E+04  0.80467646340E+02 0.  0.
         25    2    1    2    0    0 -0.34239579144E+02  0.10222678520E+02  0.12023620795E+02  0.13066727435E+03  0.12511002035E+03 0.  0.
         24    2    1    2    0    0  0.20315777932E+02 -0.23399195366E+02  0.48617728281E+03  0.49413392127E+03  0.82702651995E+02 0.  0.
        -11    1    5    5    0    0 -0.10602658652E+02 -0.47776868128E+02  0.26668623310E+03  0.27113943355E+03  0.00000000000E+00 0.  1.
         12    1    5    5    0    0  0.30918436584E+02  0.24377672762E+02  0.21949104971E+03  0.22299448772E+03  0.00000000000E+00 0. -1.
         11    1    3    3    0    0  0.37645648128E+02  0.73813898137E+01 -0.27676119772E+04  0.27678778398E+04  0.00000000000E+00 0. -1.
        -12    1    3    3    0    0 -0.23721846915E+02  0.57951270322E+01 -0.35970165175E+03  0.36052959350E+03  0.00000000000E+00 0.  1.
          5    1    4    4  501    0 -0.76981804022E+02  0.29017589954E+02  0.14851065161E+02  0.83703316623E+02  0.41800000000E+01 0.  1.
         -5    1    4    4    0  501  0.42742224878E+02 -0.18794911434E+02 -0.28274443661E+01  0.46963957723E+02  0.41800000000E+01 0.  1.
</event>
<event>
11    1  0.6625361E-009  0.1623202E+03  0.7561462E-02  0.1084915E+00
         22   -1    0    0    0    0  0.00000000000E+00  0.00000000000E+00  0.22721202031E+04  0.22721202031E+04  0.00000000000E+00 0. -1.
         22   -1    0    0    0    0 -0.00000000000E+00 -0.00000000000E+00 -0.57171156983E+03  0.57171156983E+03  0.00000000000E+00 0.  1.
        -24    2    1    2    0    0  0.19346704329E+02 -0.10058506601E+02 -0.52295396554E+03  0.52966699342E+03  0.81183774964E+02 0.  0.
         25    2    1    2    0    0 -0.63681575920E+01 -0.93179223205E+02  0.98128390667E+02  0.18439396172E+03  0.12509608706E+03 0.  0.
         24    2    1    2    0    0 -0.12978546737E+02  0.10323772981E+03  0.21252342081E+04  0.21297708177E+04  0.92069676342E+02 0.  0.
        -13    1    5    5    0    0 -0.52710643059E+02  0.55411591035E+02  0.11043792692E+04  0.11070241310E+04  0.00000000000E+00 0.  1.
         14    1    5    5    0    0  0.39732096322E+02  0.47826138771E+02  0.10208549389E+04  0.10227466867E+04  0.00000000000E+00 0. -1.
         13    1    3    3    0    0  0.27586860171E+01 -0.22176603939E+02 -0.36626577638E+02  0.42905923837E+02  0.00000000000E+00 0. -1.
        -14    1    3    3    0    0  0.16588018312E+02  0.12118097338E+02 -0.48632738790E+03  0.48676106958E+03  0.00000000000E+00 0.  1.
          5    1    4    4  501    0 -0.29422654616E+02  0.19468537750E+02  0.40268157685E+01  0.35754778869E+02  0.41800000000E+01 0. -1.
         -5    1    4    4    0  501  0.23054497024E+02 -0.11264776095E+03  0.94101574898E+02  0.14863918285E+03  0.41800000000E+01 0. -1.
</event>
<event>
11    1  0.6625361E-009  0.1713327E+03  0.7561462E-02  0.1076878E+00
         22   -1    0    0    0    0  0.00000000000E+00  0.00000000000E+00  0.66571701099E+03  0.66571701099E+03  0.00000000000E+00 0. -1.
         22   -1    0    0    0    0 -0.00000000000E+00 -0.00000000000E+00 -0.43539540932E+03  0.43539540932E+03  0.00000000000E+00 0.  1.
         24    2    1    2    0    0  0.92111930231E+02 -0.38778853655E+02 -0.21604804070E+03  0.25140275989E+03  0.80859041593E+02 0.  0.
         25    2    1    2    0    0 -0.15978342812E+03  0.67173152969E+02 -0.13881474809E+03  0.25487287663E+03  0.12509065741E+03 0.  0.
        -24    2    1    2    0    0  0.67671497884E+02 -0.28394299315E+02  0.58518439046E+03  0.59483678380E+03  0.77487809754E+02 0.  0.
        -13    1    3    3    0    0  0.86340478827E+02 -0.55388286160E+02 -0.14126587004E+03  0.17458117472E+03  0.00000000000E+00 0.  1.
         14    1    3    3    0    0  0.57714514039E+01  0.16609432506E+02 -0.74782170657E+02  0.76821585168E+02  0.00000000000E+00 0. -1.
         13    1    5    5    0    0  0.81740999249E+02 -0.37209575521E+02  0.50918333848E+03  0.51704334021E+03  0.00000000000E+00 0. -1.
        -14    1    5    5    0    0 -0.14069501365E+02  0.88152762066E+01  0.76001051978E+02  0.77793443586E+02  0.00000000000E+00 0.  1.
          5    1    4    4  501    0 -0.16545303530E+03  0.64671431790E+02 -0.78777338365E+02  0.19437191778E+03  0.41800000000E+01 0.  1.
         -5    1    4    4    0  501  0.56696071894E+01  0.25017211793E+01 -0.60037409727E+02  0.60500958846E+02  0.41800000000E+01 0.  1.
</event>
<event>
11    1  0.6625361E-009  0.2197398E+03  0.7561462E-02  0.1041381E+00
         22   -1    0    0    0    0  0.00000000000E+00  0.00000000000E+00  0.11816669738E+04  0.11816669738E+04  0.00000000000E+00 0. -1.
         22   -1    0    0    0    0 -0.00000000000E+00 -0.00000000000E+00 -0.67157629861E+03  0.67157629861E+03  0.00000000000E+00 0. -1.
         24    2    1    2    0    0 -0.19975912655E+03 -0.46414986634E+02 -0.54853059811E+03  0.59098207909E+03  0.79472895491E+02 0.  0.
         25    2    1    2    0    0  0.10537188529E+03 -0.40997662259E+02 -0.22783335335E+02  0.17015016474E+03  0.12509178900E+03 0.  0.
        -24    2    1    2    0    0  0.94387241261E+02  0.87412648893E+02  0.10814046086E+04  0.10921110286E+04  0.81979562376E+02 0.  0.
        -13    1    3    3    0    0 -0.42065097559E+02 -0.77274258039E+01 -0.22459427354E+03  0.22863021071E+03  0.00000000000E+00 0.  1.
         14    1    3    3    0    0 -0.15769402899E+03 -0.38687560830E+02 -0.32393632457E+03  0.36235186838E+03  0.00000000000E+00 0. -1.
         13    1    5    5    0    0  0.10753142193E+03  0.79262158419E+02  0.10233213878E+04  0.10320039531E+04  0.00000000000E+00 0. -1.
        -14    1    5    5    0    0 -0.13144180672E+02  0.81504904740E+01  0.58083220868E+02  0.60107075515E+02  0.00000000000E+00 0.  1.
          5    1    4    4  501    0  0.59504899492E+02 -0.63435541093E+02 -0.60929193573E+02  0.10627671413E+03  0.41800000000E+01 0.  1.
         -5    1    4    4    0  501  0.45866985795E+02  0.22437878834E+02  0.38145858238E+02  0.63873450613E+02  0.41800000000E+01 0.  1.
</event>
<event>
11    1  0.6625361E-009  0.1289054E+03  0.7561462E-02  0.1120621E+00
         22   -1    0    0    0    0  0.00000000000E+00  0.00000000000E+00  0.10208016407E+04  0.10208016407E+04  0.00000000000E+00 0.  1.
         22   -1    0    0    0    0 -0.00000000000E+00 -0.00000000000E+00 -0.47451063619E+03  0.47451063619E+03  0.00000000000E+00 0. -1.
         24    2    1    2    0    0 -0.71646884435E+01  0.30340484203E+02 -0.45277675819E+03  0.46094983401E+03  0.80598256647E+02 0.  0.
         25    2    1    2    0    0  0.28265872197E+02 -0.22391287361E+02  0.26255357656E+03  0.29305620948E+03  0.12508889666E+03 0.  0.
        -24    2    1    2    0    0 -0.21101183753E+02 -0.79491968419E+01  0.73651418616E+03  0.74130623342E+03  0.81076109943E+02 0.  0.
        -11    1    3    3    0    0 -0.34615378622E+01 -0.14012282638E+02 -0.14641037797E+02  0.20559336003E+02  0.00000000000E+00 0.  1.
         12    1    3    3    0    0 -0.37031505813E+01  0.44352766841E+02 -0.43813572039E+03  0.44039049801E+03  0.00000000000E+00 0. -1.
         13    1    5    5    0    0  0.30848555840E+02 -0.22356051348E+01  0.22193919716E+03  0.22408399891E+03  0.00000000000E+00 0. -1.
        -14    1    5    5    0    0 -0.51949739593E+02 -0.57135917071E+01  0.51457498900E+03  0.51722223452E+03  0.00000000000E+00 0.  1.
          5    1    4    4  501    0  0.52212294364E+01  0.28357923939E+02  0.50672426903E+01  0.29573339944E+02  0.41800000000E+01 0.  1.
         -5    1    4    4    0  501  0.23044642760E+02 -0.50749211300E+02  0.25748633387E+03  0.26348286953E+03  0.41800000000E+01 0.  1.
</event>
<event>
11    1  0.6625361E-009  0.1864376E+03  0.7561462E-02  0.1064551E+00
         22   -1    0    0    0    0  0.00000000000E+00  0.00000000000E+00  0.19036168149E+03  0.19036168149E+03  0.00000000000E+00 0. -1.
         22   -1    0    0    0    0 -0.00000000000E+00 -0.00000000000E+00 -0.94044288302E+03  0.94044288302E+03  0.00000000000E+00 0.  1.
        -24    2    1    2    0    0  0.94895615296E+02 -0.36520583463E+02 -0.71815152091E+03  0.72973477066E+03  0.80201606671E+02 0.  0.
         25    2    1    2    0    0  0.52111361120E+02  0.89989613461E+02 -0.12155100966E+03  0.20306590990E+03  0.12508953324E+03 0.  0.
         24    2    1    2    0    0 -0.14700697642E+03 -0.53469029998E+02  0.89621329033E+02  0.19800388395E+03  0.81875314715E+02 0.  0.
        -13    1    5    5    0    0 -0.94633602620E+02 -0.22270774405E+02  0.96099692853E+02  0.13669914815E+03  0.00000000000E+00 0.  1.
         14    1    5    5    0    0 -0.52373373796E+02 -0.31198255593E+02 -0.64783638198E+01  0.61304735808E+02  0.00000000000E+00 0. -1.
         13    1    3    3    0    0  0.35664922932E+02  0.21743063290E+02 -0.15680824165E+03  0.16227622185E+03  0.00000000000E+00 0. -1.
        -14    1    3    3    0    0  0.59230692364E+02 -0.58263646753E+02 -0.56134327926E+03  0.56745854881E+03  0.00000000000E+00 0.  1.
          5    1    4    4  501    0  0.47671875817E+02  0.38490938157E+02 -0.13600743207E+03  0.14923020486E+03  0.41800000000E+01 0.  1.
         -5    1    4    4    0  501  0.44394853035E+01  0.51498675304E+02  0.14456422413E+02  0.53835705037E+02  0.41800000000E+01 0.  1.
</event>
<event>
11    1  0.6625361E-009  0.1320138E+03  0.7561462E-02  0.1116819E+00
         22   -1    0    0    0    0  0.00000000000E+00  0.00000000000E+00  0.16979611089E+03  0.16979611089E+03  0.00000000000E+00 0.  1.
         22   -1    0    0    0    0 -0.00000000000E+00 -0.00000000000E+00 -0.25348865951E+04  0.25348865951E+04  0.00000000000E+00 0. -1.
         24    2    1    2    0    0 -0.91432551940E+01  0.16215271046E+02 -0.23374350716E+04  0.23389561139E+04  0.82258463021E+02 0.  0.
         25    2    1    2    0    0  0.48684560673E+02 -0.22591628940E+01 -0.15781857976E+03  0.20719567920E+03  0.12509218639E+03 0.  0.
        -24    2    1    2    0    0 -0.39541305479E+02 -0.13956108152E+02  0.13016316710E+03  0.15853091293E+03  0.80195464273E+02 0.  0.
        -13    1    3    3    0    0 -0.31050480265E+02  0.26956083386E+02 -0.62690965321E+03  0.62825669598E+03  0.00000000000E+00 0.  1.
         14    1    3    3    0    0  0.21907225071E+02 -0.10740812340E+02 -0.17105254183E+04  0.17106994179E+04  0.00000000000E+00 0. -1.
         11    1    5    5    0    0 -0.54959938006E+02  0.12724725648E+02  0.62582222274E+02  0.84255848303E+02  0.00000000000E+00 0. -1.
        -12    1    5    5    0    0  0.15418632527E+02 -0.26680833799E+02  0.67580944825E+02  0.74275064623E+02  0.00000000000E+00 0.  1.
          5    1    4    4  501    0  0.54423255644E+02  0.50417370428E+02 -0.12284324839E+03  0.14356788663E+03  0.41800000000E+01 0.  1.
         -5    1    4    4    0  501 -0.57386949715E+01 -0.52676533322E+02 -0.34975331369E+02  0.63627792569E+02  0.41800000000E+01 0.  1.
</event>
<event>
11    1  0.6625361E-009  0.2573854E+03  0.7561462E-02  0.1020037E+00
         22   -1    0    0    0    0  0.00000000000E+00  0.00000000000E+00  0.33646483138E+03  0.33646483138E+03  0.00000000000E+00 0. -1.
         22   -1    0    0    0    0 -0.00000000000E+00 -0.00000000000E+00 -0.24867398604E+04  0.24867398604E+04  0.00000000000E+00 0.  1.
         24    2    1    2    0    0  0.51713356674E+02  0.22275663901E+03 -0.22740319884E+04  0.22870188811E+04  0.83301178938E+02 0.  0.
         25    2    1    2    0    0 -0.65800653179E+01 -0.19024523612E+03 -0.13112844140E+03  0.26282668006E+03  0.12508656396E+03 0.  0.
        -24    2    1    2    0    0 -0.45133291356E+02 -0.32511402898E+02  0.25488540082E+03  0.27335913066E+03  0.81637255313E+02 0.  0.
        -11    1    3    3    0    0  0.37460418681E+02  0.17518208511E+03 -0.13756618707E+04  0.13872770554E+04  0.00000000000E+00 0.  1.
         12    1    3    3    0    0  0.14252937993E+02  0.47574553900E+02 -0.89837011773E+03  0.89974182566E+03  0.00000000000E+00 0. -1.
         11    1    5    5    0    0 -0.63556964342E+02 -0.40662438224E+02  0.16794893363E+03  0.18411889069E+03  0.00000000000E+00 0. -1.
        -12    1    5    5    0    0  0.18423672985E+02  0.81510353261E+01  0.86936467189E+02  0.89240239973E+02  0.00000000000E+00 0.  1.
          5    1    4    4  501    0  0.99162341586E-02 -0.31843907936E+02  0.24678332424E+02  0.40503420376E+02  0.41800000000E+01 0.  1.
         -5    1    4    4    0  501 -0.65899815521E+01 -0.15840132818E+03 -0.15580677382E+03  0.22232325968E+03  0.41800000000E+01 0.  1.
</event>
<event>
11    1  0.6625361E-009  0.1273148E+03  0.7561462E-02  0.1122613E+00
         22   -1    0    0    0    0  0.00000000000E+00  0.00000000000E+00  0.19859808130E+03  0.19859808130E+03  0.00000000000E+00 0.  1.
         22   -1    0    0    0    0 -0.00000000000E+00 -0.00000000000E+00 -0.24599893708E+03  0.24599893708E+03  0.00000000000E+00 0.  1.
        -24    2    1    2    0    0  0.31490314760E+02  0.12357284111E+02 -0.10874372689E+03  0.13716851756E+03  0.76456926944E+02 0.  0.
         25    2    1    2    0    0 -0.26660677976E+02  0.12552245576E+02 -0.72925562502E+02  0.14776495549E+03  0.12509194133E+03 0.  0.
         24    2    1    2    0    0 -0.48296367840E+01 -0.24909529687E+02  0.13426843361E+03  0.15966354533E+03  0.82587077577E+02 0.  0.
        -11    1    5    5    0    0 -0.61026762603E+01 -0.46218711910E+02  0.12971206891E+03  0.13783552811E+03  0.00000000000E+00 0.  1.
         12    1    5    5    0    0  0.12730394763E+01  0.21309182223E+02  0.45563646998E+01  0.21828017221E+02  0.00000000000E+00 0. -1.
         11    1    3    3    0    0  0.64376299518E+01 -0.18430389335E+02  0.19056230791E+01  0.19615140320E+02  0.00000000000E+00 0. -1.
        -12    1    3    3    0    0  0.25052684808E+02  0.30787673446E+02 -0.11064934997E+03  0.11755337724E+03  0.00000000000E+00 0.  1.
          5    1    4    4  501    0 -0.20603102641E+02 -0.10415822898E+02  0.32237790466E+02  0.39871352362E+02  0.41800000000E+01 0. -1.
         -5    1    4    4    0  501 -0.60575753354E+01  0.22968068474E+02 -0.10516335297E+03  0.10789360313E+03  0.41800000000E+01 0. -1.
</event>
<event>
11    1  0.6625361E-009  0.2639644E+03  0.7561462E-02  0.1016712E+00
         22   -1    0    0    0    0  0.00000000000E+00  0.00000000000E+00  0.32101928965E+04  0.32101928965E+04  0.00000000000E+00 0.  1.
         22   -1    0    0    0    0 -0.00000000000E+00 -0.00000000000E+00 -0.72165489301E+02  0.72165489301E+02  0.00000000000E+00 0.  1.
        -24    2    1    2    0    0  0.10873912442E+02  0.29614828741E+01  0.26494726506E+02  0.82815072016E+02  0.77648910281E+02 0.  0.
         25    2    1    2    0    0  0.18531489644E+03 -0.12938615241E+03  0.39571603246E+03  0.47256901686E+03  0.12509160674E+03 0.  0.
         24    2    1    2    0    0 -0.19618880888E+03  0.12642466953E+03  0.27158166483E+04  0.27269742970E+04  0.79091740688E+02 0.  0.
        -11    1    5    5    0    0 -0.68629197293E+02  0.78643098125E+02  0.89404557160E+03  0.90011787434E+03  0.00000000000E+00 0.  1.
         12    1    5    5    0    0 -0.12755961159E+03  0.47781571410E+02  0.18217710767E+04  0.18268564226E+04  0.00000000000E+00 0. -1.
         11    1    3    3    0    0  0.22659824454E+02  0.15667791316E+02  0.47909857324E+02  0.55265737648E+02  0.00000000000E+00 0. -1.
        -12    1    3    3    0    0 -0.11785912012E+02 -0.12706308442E+02 -0.21415130818E+02  0.27549334368E+02  0.00000000000E+00 0.  1.
          5    1    4    4  501    0  0.30676228538E+02 -0.59104811845E+02  0.21233628309E+03  0.22257263825E+03  0.41800000000E+01 0.  1.
         -5    1    4    4    0  501  0.15463866790E+03 -0.70281340564E+02  0.18337974936E+03  0.24999637861E+03  0.41800000000E+01 0.  1.
</event>
<event>
11    1  0.1144044E-008  0.1726195E+03  0.7561462E-02  0.1075774E+00
         22   -1    0    0    0    0  0.00000000000E+00  0.00000000000E+00  0.26330796679E+03  0.26330796679E+03  0.00000000000E+00 0.  1.
         22   -1    0    0    0    0 -0.00000000000E+00 -0.00000000000E+00 -0.11546529370E+04  0.11546529370E+04  0.00000000000E+00 0.  1.
        -24    2    1    2    0    0  0.60842954088E+01 -0.34364044001E+02 -0.66725150253E+03  0.67318663973E+03  0.82083969954E+02 0.  0.
         25    2    1    2    0    0 -0.11918401807E+03  0.68921701626E+02 -0.44484442092E+03  0.48217112278E+03  0.12508957469E+03 0.  0.
         24    2    1    2    0    0  0.11309972266E+03 -0.34557657624E+02  0.22075095320E+03  0.26260314131E+03  0.79016754690E+02 0.  0.
        -13    1    5    5    0    0  0.93039300672E+02 -0.99709688947E+01  0.20859729144E+03  0.22862318711E+03  0.00000000000E+00 0.  1.
         14    1    5    5    0    0  0.20060421988E+02 -0.24586688730E+02  0.12153661759E+02  0.33979954196E+02  0.00000000000E+00 0. -1.
         11    1    3    3    0    0 -0.36110024961E+02 -0.18240090854E+02 -0.22256408676E+03  0.22621098013E+03  0.00000000000E+00 0. -1.
        -12    1    3    3    0    0  0.42194320369E+02 -0.16123953148E+02 -0.44468741577E+03  0.44697565961E+03  0.00000000000E+00 0.  1.
          5    1    4    4  501    0 -0.14022941063E+03  0.44378102186E+02 -0.30584530550E+03  0.33940024581E+03  0.41800000000E+01 0. -1.
         -5    1    4    4    0  501  0.21045392565E+02  0.24543599440E+02 -0.13899911542E+03  0.14277087696E+03  0.41800000000E+01 0. -1.
</event>
<event>
11    1  0.6625361E-009  0.1483459E+03  0.7561462E-02  0.1098581E+00
         22   -1    0    0    0    0  0.00000000000E+00  0.00000000000E+00  0.11377554443E+03  0.11377554443E+03  0.00000000000E+00 0.  1.
         22   -1    0    0    0    0 -0.00000000000E+00 -0.00000000000E+00 -0.28869257530E+04  0.28869257530E+04  0.00000000000E+00 0.  1.
         24    2    1    2    0    0  0.37840474153E+01  0.16756982939E+02 -0.21507962920E+04  0.21524489238E+04  0.82562490007E+02 0.  0.
         25    2    1    2    0    0 -0.54566595746E+02  0.45239153898E+02 -0.70007792615E+03  0.71468957026E+03  0.12509190519E+03 0.  0.
        -24    2    1    2    0    0  0.50782548331E+02 -0.61996136837E+02  0.77724009568E+02  0.13356280330E+03  0.73318569029E+02 0.  0.
        -11    1    3    3    0    0  0.88637037888E+01 -0.68723203640E+01 -0.19713953159E+04  0.19714272205E+04  0.00000000000E+00 0.  1.
         12    1    3    3    0    0 -0.50796563735E+01  0.23629303303E+02 -0.17940097606E+03  0.18102170338E+03  0.00000000000E+00 0. -1.
         11    1    5    5    0    0 -0.18012306838E+02 -0.23309942728E+02  0.25101431502E+02  0.38702435208E+02  0.00000000000E+00 0. -1.
        -12    1    5    5    0    0  0.68794855169E+02 -0.38686194109E+02  0.52622578066E+02  0.94860368092E+02  0.00000000000E+00 0.  1.
          5    1    4    4  501    0 -0.78513160385E+02 -0.94551453225E+01 -0.30545165511E+03  0.31555015788E+03  0.41800000000E+01 0.  1.
         -5    1    4    4    0  501  0.23946564639E+02  0.54694299221E+02 -0.39462627104E+03  0.39913941238E+03  0.41800000000E+01 0.  1.
</event>
<event>
11    1  0.6625361E-009  0.1540401E+03  0.7561462E-02  0.1092821E+00
         22   -1    0    0    0    0  0.00000000000E+00  0.00000000000E+00  0.13470480817E+04  0.13470480817E+04  0.00000000000E+00 0.  1.
         22   -1    0    0    0    0 -0.00000000000E+00 -0.00000000000E+00 -0.14295915777E+03  0.14295915777E+03  0.00000000000E+00 0. -1.
         24    2    1    2    0    0  0.49238059072E+02  0.75354479889E+01 -0.10043149380E+03  0.13774606452E+03  0.80039514648E+02 0.  0.
         25    2    1    2    0    0 -0.11209447659E+03 -0.62383387286E+02  0.37616190292E+03  0.41665501976E+03  0.12508704808E+03 0.  0.
        -24    2    1    2    0    0  0.62856417519E+02  0.54847939297E+02  0.92835851479E+03  0.93560615516E+03  0.80932811149E+02 0.  0.
        -11    1    3    3    0    0  0.15944635796E+02  0.74508111046E+01  0.11462980135E+02  0.21003473769E+02  0.00000000000E+00 0.  1.
         12    1    3    3    0    0  0.33293423276E+02  0.84636884272E-01 -0.11189447394E+03  0.11674259075E+03  0.00000000000E+00 0. -1.
         13    1    5    5    0    0 -0.24877438763E+01 -0.17889309987E+02  0.17475705731E+03  0.17568792036E+03  0.00000000000E+00 0. -1.
        -14    1    5    5    0    0  0.65344161395E+02  0.72737249284E+02  0.75360145748E+03  0.75991823480E+03  0.00000000000E+00 0.  1.
          5    1    4    4  501    0 -0.60386683853E+02 -0.80273197202E+02  0.12940554223E+03  0.16387069456E+03  0.41800000000E+01 0. -1.
         -5    1    4    4    0  501 -0.51707792738E+02  0.17889809916E+02  0.24675636069E+03  0.25278432520E+03  0.41800000000E+01 0. -1.
</event>
<event>
11    1  0.6625361E-009  0.1644464E+03  0.7561462E-02  0.1082968E+00
         22   -1    0    0    0    0  0.00000000000E+00  0.00000000000E+00  0.45373525558E+03  0.45373525558E+03  0.00000000000E+00 0. -1.
         22   -1    0    0    0    0 -0.00000000000E+00 -0.00000000000E+00 -0.30580607341E+03  0.30580607341E+03  0.00000000000E+00 0. -1.
         24    2    1    2    0    0  0.58620733649E+02 -0.31327117546E+02 -0.23520008438E+03  0.25739357383E+03  0.80713031465E+02 0.  0.
         25    2    1    2    0    0 -0.94272482070E+02  0.11576346674E+03  0.17839251103E+03  0.26412114691E+03  0.12509041188E+03 0.  0.
        -24    2    1    2    0    0  0.35651748421E+02 -0.84436349193E+02  0.20473675551E+03  0.23802660826E+03  0.79617730124E+02 0.  0.
        -11    1    3    3    0    0  0.72073024359E+02 -0.78461639257E+01 -0.13085538712E+03  0.14959684310E+03  0.00000000000E+00 0.  1.
         12    1    3    3    0    0 -0.13452290710E+02 -0.23480953620E+02 -0.10434469726E+03  0.10779673072E+03  0.00000000000E+00 0. -1.
         11    1    5    5    0    0  0.11415548615E+02 -0.35171763565E+02  0.16786839253E+03  0.17189288791E+03  0.00000000000E+00 0. -1.
        -12    1    5    5    0    0  0.24236199806E+02 -0.49264585628E+02  0.36868362979E+02  0.66133720347E+02  0.00000000000E+00 0.  1.
          5    1    4    4  501    0 -0.82475356687E+02  0.17658802752E+02  0.38526575272E+02  0.92821264683E+02  0.41800000000E+01 0. -1.
         -5    1    4    4    0  501 -0.11797125384E+02  0.98104663987E+02  0.13986593576E+03  0.17129988222E+03  0.41800000000E+01 0. -1.
</event>
<event>
11    1  0.6625361E-009  0.1494192E+03  0.7561462E-02  0.1097474E+00
         22   -1    0    0    0    0  0.00000000000E+00  0.00000000000E+00  0.15254939952E+03  0.15254939952E+03  0.00000000000E+00 0.  1.
         22   -1    0    0    0    0 -0.00000000000E+00 -0.00000000000E+00 -0.24599839376E+04  0.24599839376E+04  0.00000000000E+00 0.  1.
         24    2    1    2    0    0  0.37430088996E+02  0.78049920824E+02 -0.18312763148E+04  0.18350479595E+04  0.79594414891E+02 0.  0.
         25    2    1    2    0    0  0.26359024621E+02 -0.74087177895E+02 -0.59955816217E+03  0.61749558222E+03  0.12508835325E+03 0.  0.
        -24    2    1    2    0    0 -0.63789113617E+02 -0.39627429294E+01  0.12339993893E+03  0.15998979535E+03  0.79274430564E+02 0.  0.
        -13    1    3    3    0    0 -0.15364248758E+02  0.30574217640E+02 -0.10484944728E+04  0.10490526690E+04  0.00000000000E+00 0.  1.
         14    1    3    3    0    0  0.52794337755E+02  0.47475703185E+02 -0.78278184200E+03  0.78599529048E+03  0.00000000000E+00 0. -1.
         13    1    5    5    0    0 -0.18705455558E+02 -0.38827970338E+02  0.38845857510E+02  0.58021599374E+02  0.00000000000E+00 0. -1.
        -14    1    5    5    0    0 -0.45083658059E+02  0.34865227409E+02  0.84554081423E+02  0.10196819598E+03  0.00000000000E+00 0.  1.
          5    1    4    4  501    0  0.63789067040E+02 -0.82967118876E+02 -0.49614819312E+03  0.50708292204E+03  0.41800000000E+01 0. -1.
         -5    1    4    4    0  501 -0.37430042419E+02  0.88799409809E+01 -0.10340996905E+03  0.11041266017E+03  0.41800000000E+01 0. -1.
</event>
<event>
11    1  0.6625361E-009  0.1413698E+03  0.7561462E-02  0.1106038E+00
         22   -1    0    0    0    0  0.00000000000E+00  0.00000000000E+00  0.55862457783E+03  0.55862457783E+03  0.00000000000E+00 0. -1.
         22   -1    0    0    0    0 -0.00000000000E+00 -0.00000000000E+00 -0.82897343796E+03  0.82897343796E+03  0.00000000000E+00 0.  1.
        -24    2    1    2    0    0  0.43993236245E+02 -0.49563541829E+02 -0.80013993020E+03  0.80678461143E+03  0.79281472214E+02 0.  0.
         25    2    1    2    0    0 -0.29596584529E+02  0.26431839673E+02  0.19187422641E+03  0.23246182020E+03  0.12509268214E+03 0.  0.
         24    2    1    2    0    0 -0.14396651716E+02  0.23131702156E+02  0.33791684365E+03  0.34835158416E+03  0.80116750665E+02 0.  0.
        -11    1    5    5    0    0 -0.42867681273E+02 -0.36695395949E+01  0.13460470995E+03  0.14131359297E+03  0.00000000000E+00 0.  1.
         12    1    5    5    0    0  0.28471029557E+02  0.26801241751E+02  0.20331213370E+03  0.20703799118E+03  0.00000000000E+00 0. -1.
         11    1    3    3    0    0  0.30740572954E+02  0.12028371476E+02 -0.14946938425E+03  0.15307109908E+03  0.00000000000E+00 0. -1.
        -12    1    3    3    0    0  0.13252663291E+02 -0.61591913305E+02 -0.65067054595E+03  0.65371351235E+03  0.00000000000E+00 0.  1.
          5    1    4    4  501    0 -0.69479691083E+02  0.48747903274E+02  0.11616182699E+03  0.14392646733E+03  0.41800000000E+01 0.  1.
         -5    1    4    4    0  501  0.39883106554E+02 -0.22316063601E+02  0.75712399420E+02  0.88535352876E+02  0.41800000000E+01 0.  1.
</event>
<event>
11    1  0.6625361E-009  0.1767253E+03  0.7561462E-02  0.1072323E+00
         22   -1    0    0    0    0  0.00000000000E+00  0.00000000000E+00  0.89513973031E+03  0.89513973031E+03  0.00000000000E+00 0. -1.
         22   -1    0    0    0    0 -0.00000000000E+00 -0.00000000000E+00 -0.39577620482E+03  0.39577620482E+03  0.00000000000E+00 0. -1.
        -24    2    1    2    0    0 -0.10295091529E+03 -0.62032250592E+02 -0.23618279324E+03  0.27707904614E+03  0.80892489850E+02 0.  0.
         25    2    1    2    0    0  0.12848294282E+03  0.56444867235E+02 -0.72330001431E+02  0.20142727644E+03  0.12508968364E+03 0.  0.
         24    2    1    2    0    0 -0.25532027531E+02  0.55873833568E+01  0.80787632016E+03  0.81240961256E+03  0.81621851353E+02 0.  0.
        -11    1    5    5    0    0  0.10336237624E+02 -0.20101321611E+02  0.57177619522E+03  0.57222278735E+03  0.00000000000E+00 0.  1.
         12    1    5    5    0    0 -0.35868265155E+02  0.25688704968E+02  0.23610012494E+03  0.24018682521E+03  0.00000000000E+00 0. -1.
         13    1    3    3    0    0 -0.11621482224E+03 -0.60462084225E+02 -0.22049739893E+03  0.25647738978E+03  0.00000000000E+00 0. -1.
        -14    1    3    3    0    0  0.13263906946E+02 -0.15701663674E+01 -0.15685394313E+02  0.20601656357E+02  0.00000000000E+00 0.  1.
          5    1    4    4  501    0  0.10093195347E+03 -0.22576039328E+02 -0.31358653367E+02  0.10815624958E+03  0.41800000000E+01 0. -1.
         -5    1    4    4    0  501  0.27550989355E+02  0.79020906563E+02 -0.40971348065E+02  0.93271026856E+02  0.41800000000E+01 0. -1.
</event>
<event>
11    1  0.6625361E-009  0.2661516E+03  0.7561462E-02  0.1015630E+00
         22   -1    0    0    0    0  0.00000000000E+00  0.00000000000E+00  0.32268207955E+04  0.32268207955E+04  0.00000000000E+00 0.  1.
         22   -1    0    0    0    0 -0.00000000000E+00 -0.00000000000E+00 -0.12412151468E+04  0.12412151468E+04  0.00000000000E+00 0.  1.
        -24    2    1    2    0    0 -0.73160732662E+02 -0.67782011182E+02 -0.12164723611E+04  0.12231390774E+04  0.79481466786E+02 0.  0.
         25    2    1    2    0    0  0.17264186645E+03  0.22311230267E+03  0.23018443869E+04  0.23224383356E+04  0.12509167484E+03 0.  0.
         24    2    1    2    0    0 -0.99481133788E+02 -0.15533029149E+03  0.90023362287E+03  0.92245852931E+03  0.80530535301E+02 0.  0.
        -11    1    5    5    0    0 -0.54183582144E+02 -0.58439873919E+02  0.56455707669E+03  0.57015416536E+03  0.00000000000E+00 0.  1.
         12    1    5    5    0    0 -0.45297551644E+02 -0.96890417568E+02  0.33567654618E+03  0.35230436395E+03  0.00000000000E+00 0. -1.
         13    1    3    3    0    0 -0.19545247853E+02 -0.24067800640E+02 -0.10413172173E+03  0.10864939581E+03  0.00000000000E+00 0. -1.
        -14    1    3    3    0    0 -0.53615484808E+02 -0.43714210541E+02 -0.11123406394E+04  0.11144896816E+04  0.00000000000E+00 0.  1.
          5    1    4    4  501    0  0.99432490362E+02  0.12053088518E+03  0.78809455533E+03  0.80344571377E+03  0.41800000000E+01 0. -1.
         -5    1    4    4    0  501  0.73209376087E+02  0.10258141749E+03  0.15137498316E+04  0.15189926218E+04  0.41800000000E+01 0. -1.
</event>
<event>
11    1  0.6625361E-009  0.1511964E+03  0.7561462E-02  0.1095663E+00
         22   -1    0    0    0    0  0.00000000000E+00  0.00000000000E+00  0.39379221869E+03  0.39379221869E+03  0.00000000000E+00 0.  1.
         22   -1    0    0    0    0 -0.00000000000E+00 -0.00000000000E+00 -0.15326489394E+04  0.15326489394E+04  0.00000000000E+00 0.  1.
         24    2    1    2    0    0 -0.16181446654E+02 -0.81413654225E+02 -0.11435101980E+04  0.11491812553E+04  0.78179040313E+02 0.  0.
         25    2    1    2    0    0  0.47409324312E+00  0.97576963604E+02 -0.36506400008E+03  0.39804657044E+03  0.12509140454E+03 0.  0.
        -24    2    1    2    0    0  0.15707353411E+02 -0.16163309379E+02  0.36971747737E+03  0.37921333234E+03  0.81263551684E+02 0.  0.
        -13    1    3    3    0    0  0.31653028791E+02 -0.36795908207E+02 -0.46645183302E+03  0.46897032488E+03  0.00000000000E+00 0.  1.
         14    1    3    3    0    0 -0.47834475446E+02 -0.44617746017E+02 -0.67705836498E+03  0.68021093044E+03  0.00000000000E+00 0. -1.
         13    1    5    5    0    0  0.17254443863E+02  0.27142516366E+02  0.79193262883E+02  0.85475171329E+02  0.00000000000E+00 0. -1.
        -14    1    5    5    0    0 -0.15470904513E+01 -0.43305825745E+02  0.29052421449E+03  0.29373816101E+03  0.00000000000E+00 0.  1.
          5    1    4    4  501    0  0.75056733032E+01  0.25787178359E+02 -0.29871888218E+03  0.29995292409E+03  0.41800000000E+01 0. -1.
         -5    1    4    4    0  501 -0.70315800601E+01  0.71789785245E+02 -0.66345117898E+02  0.98093646342E+02  0.41800000000E+01 0. -1.
</event>
<event>
11    1  0.6625361E-009  0.1333161E+03  0.7561462E-02  0.1115260E+00
         22   -1    0    0    0    0  0.00000000000E+00  0.00000000000E+00  0.12657045800E+04  0.12657045800E+04  0.00000000000E+00 0.  1.
         22   -1    0    0    0    0 -0.00000000000E+00 -0.00000000000E+00 -0.22426315373E+03  0.22426315373E+03  0.00000000000E+00 0. -1.
        -24    2    1    2    0    0  0.41462162893E+02  0.18799277032E+02 -0.17808014382E+03  0.19960516934E+03  0.77827772915E+02 0.  0.
         25    2    1    2    0    0 -0.40030711091E+02 -0.40452653692E+02  0.10565619457E+03  0.17335093577E+03  0.12509372669E+03 0.  0.
         24    2    1    2    0    0 -0.14314518015E+01  0.21653376661E+02  0.11138653755E+04  0.11170116286E+04  0.80919626315E+02 0.  0.
        -13    1    5    5    0    0  0.54337468263E+01  0.49602604727E+02  0.50309785419E+03  0.50556640997E+03  0.00000000000E+00 0.  1.
         14    1    5    5    0    0 -0.68651986278E+01 -0.27949228066E+02  0.61076752131E+03  0.61144521863E+03  0.00000000000E+00 0. -1.
         11    1    3    3    0    0  0.20828266307E+02  0.35342978542E+02 -0.16514525892E+03  0.17016433044E+03  0.00000000000E+00 0. -1.
        -12    1    3    3    0    0  0.20633896586E+02 -0.16543701510E+02 -0.12934884896E+02  0.29440838902E+02  0.00000000000E+00 0.  1.
          5    1    4    4  501    0 -0.45445959724E+02  0.23633404962E+02  0.95020836759E+02  0.10802918543E+03  0.41800000000E+01 0. -1.
         -5    1    4    4    0  501  0.54152486329E+01 -0.64086058654E+02  0.10635357814E+02  0.65321750340E+02  0.41800000000E+01 0. -1.
</event>
<event>
11    1  0.6625361E-009  0.1808481E+03  0.7561462E-02  0.1068959E+00
         22   -1    0    0    0    0  0.00000000000E+00  0.00000000000E+00  0.22902628792E+04  0.22902628792E+04  0.00000000000E+00 0. -1.
         22   -1    0    0    0    0 -0.00000000000E+00 -0.00000000000E+00 -0.65943155129E+03  0.65943155129E+03  0.00000000000E+00 0.  1.
         24    2    1    2    0    0 -0.99833006078E+02  0.79081937969E+02 -0.43008061307E+03  0.45586195725E+03  0.81364662529E+02 0.  0.
         25    2    1    2    0    0  0.93255640768E+02 -0.10855611660E+03 -0.17375415496E+03  0.25752376613E+03  0.12508772429E+03 0.  0.
        -24    2    1    2    0    0  0.65773653098E+01  0.29474178634E+02  0.22346660959E+04  0.22363087071E+04  0.80200275216E+02 0.  0.
        -11    1    3    3    0    0 -0.76133364274E+02  0.76970440475E+02 -0.22814001338E+03  0.25252446132E+03  0.00000000000E+00 0.  1.
         12    1    3    3    0    0 -0.23699641804E+02  0.21114974941E+01 -0.20194059970E+03  0.20333749592E+03  0.00000000000E+00 0. -1.
         11    1    5    5    0    0  0.28448000201E+02  0.72438592706E+01  0.18916932336E+04  0.18919209952E+04  0.00000000000E+00 0. -1.
        -12    1    5    5    0    0 -0.21870634891E+02  0.22230319363E+02  0.34297286237E+03  0.34438771188E+03  0.00000000000E+00 0.  1.
          5    1    4    4  501    0  0.14791838288E+02 -0.11040801263E+03 -0.10109354595E+03  0.15048622916E+03  0.41800000000E+01 0. -1.
         -5    1    4    4    0  501  0.78463802480E+02  0.18518960305E+01 -0.72660609016E+02  0.10703753697E+03  0.41800000000E+01 0. -1.
</event>
<event>
11    1  0.6625361E-009  0.2290527E+03  0.7561462E-02  0.1035690E+00
         22   -1    0    0    0    0  0.00000000000E+00  0.00000000000E+00  0.36108463244E+03  0.36108463244E+03  0.00000000000E+00 0.  1.
         22   -1    0    0    0    0 -0.00000000000E+00 -0.00000000000E+00 -0.24004224457E+04  0.24004224457E+04  0.00000000000E+00 0.  1.
        -24    2    1    2    0    0  0.90961440656E+02 -0.15822449459E+03 -0.16376754346E+04  0.16497571274E+04  0.80054831435E+02 0.  0.
         25    2    1    2    0    0 -0.74860563622E+02  0.21829095663E+03 -0.72518274237E+03  0.77122769807E+03  0.12508839562E+03 0.  0.
         24    2    1    2    0    0 -0.16100877035E+02 -0.60066462037E+02  0.32352036371E+03  0.34052225263E+03  0.86155444966E+02 0.  0.
        -11    1    5    5    0    0  0.25105463342E+02 -0.48661223378E+02  0.24572673185E+03  0.25175350185E+03  0.00000000000E+00 0.  1.
         12    1    5    5    0    0 -0.41206340377E+02 -0.11405238659E+02  0.77793631865E+02  0.88768750779E+02  0.00000000000E+00 0. -1.
         11    1    3    3    0    0  0.14792845910E+02 -0.10528540673E+03 -0.83630045919E+03  0.84303161459E+03  0.00000000000E+00 0. -1.
        -12    1    3    3    0    0  0.76168594746E+02 -0.52939087865E+02 -0.80137497539E+03  0.80672551281E+03  0.00000000000E+00 0.  1.
          5    1    4    4  501    0  0.11949668577E+02  0.13859486204E+03 -0.46891112051E+03  0.48912824668E+03  0.41800000000E+01 0.  1.
         -5    1    4    4    0  501 -0.86810232198E+02  0.79696094586E+02 -0.25627162186E+03  0.28209945139E+03  0.41800000000E+01 0.  1.
</event>
<event>
11    1  0.6625361E-009  0.1316573E+03  0.7561462E-02  0.1117249E+00
         22   -1    0    0    0    0  0.00000000000E+00  0.00000000000E+00  0.18888526909E+04  0.18888526909E+04  0.00000000000E+00 0.  1.
         22   -1    0    0    0    0 -0.00000000000E+00 -0.00000000000E+00 -0.33858439645E+03  0.33858439645E+03  0.00000000000E+00 0.  1.
         24    2    1    2    0    0  0.39335585464E+02  0.12694576677E+02 -0.27879096059E+03  0.29418959975E+03  0.84348564471E+02 0.  0.
         25    2    1    2    0    0 -0.72342856626E+02  0.10567715067E+02  0.52756699229E+02  0.15419928094E+03  0.12509589691E+03 0.  0.
        -24    2    1    2    0    0  0.33007271162E+02 -0.23262291744E+02  0.17763025558E+04  0.17790482066E+04  0.90172820947E+02 0.  0.
        -11    1    3    3    0    0  0.55719041468E+02 -0.39193814911E+01 -0.25430269931E+03  0.26036481331E+03  0.00000000000E+00 0.  1.
         12    1    3    3    0    0 -0.16383456004E+02  0.16613958168E+02 -0.24488261284E+02  0.33824786435E+02  0.00000000000E+00 0. -1.
         11    1    5    5    0    0  0.24598417457E+02 -0.31868727468E+02  0.29915430283E+03  0.30185094804E+03  0.00000000000E+00 0. -1.
        -12    1    5    5    0    0  0.84088537051E+01  0.86064357238E+01  0.14771482529E+04  0.14771972586E+04  0.00000000000E+00 0.  1.
          5    1    4    4  501    0 -0.23754772978E+02  0.30080616952E+02  0.84461629252E+02  0.92845958293E+02  0.41800000000E+01 0. -1.
         -5    1    4    4    0  501 -0.48588083648E+02 -0.19512901885E+02 -0.31704930023E+02  0.61353322651E+02  0.41800000000E+01 0. -1.
</event>
<event>
11    1  0.6625361E-009  0.1493960E+03  0.7561462E-02  0.1097498E+00
         22   -1    0    0    0    0  0.00000000000E+00  0.00000000000E+00  0.19409870863E+03  0.19409870863E+03  0.00000000000E+00 0. -1.
         22   -1    0    0    0    0 -0.00000000000E+00 -0.00000000000E+00 -0.45611947515E+03  0.45611947515E+03  0.00000000000E+00 0.  1.
        -24    2    1    2    0    0 -0.52268989767E+02  0.35927740870E+01 -0.32929870114E+03  0.34320888290E+03  0.81300353100E+02 0.  0.
         25    2    1    2    0    0  0.97993340977E+02 -0.60823263139E+02 -0.15059980096E+02  0.17081369984E+03  0.12509337647E+03 0.  0.
         24    2    1    2    0    0 -0.45724351210E+02  0.57230489052E+02  0.82337914715E+02  0.13619560104E+03  0.80022899056E+02 0.  0.
        -11    1    5    5    0    0 -0.27314585767E+01  0.36612520315E+02 -0.46393361533E+01  0.37006228526E+02  0.00000000000E+00 0.  1.
         12    1    5    5    0    0 -0.42992892634E+02  0.20617968737E+02  0.86977250868E+02  0.99189372518E+02  0.00000000000E+00 0. -1.
         11    1    3    3    0    0  0.15430829994E+02 -0.75298850938E+01 -0.19848301247E+02  0.26244327887E+02  0.00000000000E+00 0. -1.
        -12    1    3    3    0    0 -0.67699819761E+02  0.11122659181E+02 -0.30945039989E+03  0.31696455501E+03  0.00000000000E+00 0.  1.
          5    1    4    4  501    0  0.59371814315E+02  0.41658106900E+00  0.46623759987E+02  0.75607098014E+02  0.41800000000E+01 0.  1.
         -5    1    4    4    0  501  0.38621526663E+02 -0.61239844208E+02 -0.61683740082E+02  0.95206601824E+02  0.41800000000E+01 0.  1.
</event>
<event>
11    1  0.6625361E-009  0.1844695E+03  0.7561462E-02  0.1066084E+00
         22   -1    0    0    0    0  0.00000000000E+00  0.00000000000E+00  0.22456091551E+04  0.22456091551E+04  0.00000000000E+00 0.  1.
         22   -1    0    0    0    0 -0.00000000000E+00 -0.00000000000E+00 -0.92575626926E+03  0.92575626926E+03  0.00000000000E+00 0. -1.
         24    2    1    2    0    0  0.23730629561E+02 -0.28058437253E+02 -0.90344276001E+03  0.90779885336E+03  0.80867291700E+02 0.  0.
         25    2    1    2    0    0 -0.14629372762E+03  0.71013082311E+02  0.61986024581E+03  0.65293150273E+03  0.12509240711E+03 0.  0.
        -24    2    1    2    0    0  0.12256309806E+03 -0.42954645058E+02  0.16034354001E+04  0.16106350683E+04  0.79204965363E+02 0.  0.
        -13    1    3    3    0    0  0.11317717295E+02  0.27706063402E+02 -0.23037549778E+03  0.23231140018E+03  0.00000000000E+00 0.  1.
         14    1    3    3    0    0  0.12412912265E+02 -0.55764500655E+02 -0.67306726223E+03  0.67548745318E+03  0.00000000000E+00 0. -1.
         13    1    5    5    0    0 -0.88565001347E+00  0.15409135187E+02  0.18445098325E+03  0.18509562676E+03  0.00000000000E+00 0. -1.
        -14    1    5    5    0    0  0.12344874807E+03 -0.58363780244E+02  0.14189844168E+04  0.14255394416E+04  0.00000000000E+00 0.  1.
          5    1    4    4  501    0 -0.10132270223E+03 -0.98916531625E+00  0.46839663039E+03  0.47924956358E+03  0.41800000000E+01 0. -1.
         -5    1    4    4    0  501 -0.44971025391E+02  0.72002247627E+02  0.15146361542E+03  0.17368193914E+03  0.41800000000E+01 0. -1.
</event>
<event>
11    1  0.6625361E-009  0.1443917E+03  0.7561462E-02  0.1102751E+00
         22   -1    0    0    0    0  0.00000000000E+00  0.00000000000E+00  0.66540669275E+03  0.66540669275E+03  0.00000000000E+00 0.  1.
         22   -1    0    0    0    0 -0.00000000000E+00 -0.00000000000E+00 -0.60892760513E+03  0.60892760513E+03  0.00000000000E+00 0. -1.
        -24    2    1    2    0    0 -0.15850835651E+02 -0.16078274675E+01 -0.55069662581E+03  0.55675614690E+03  0.80354211681E+02 0.  0.
         25    2    1    2    0    0 -0.46372592673E+02  0.40425482577E+02  0.47560580085E+02  0.14728667682E+03  0.12508684742E+03 0.  0.
         24    2    1    2    0    0  0.62223428323E+02 -0.38817655109E+02  0.55961513334E+03  0.57029147416E+03  0.81760030913E+02 0.  0.
        -11    1    5    5    0    0  0.74118990541E+02 -0.11863702226E+02  0.47003367182E+03  0.47598952177E+03  0.00000000000E+00 0.  1.
         12    1    5    5    0    0 -0.11895562218E+02 -0.26953952883E+02  0.89581461521E+02  0.94301952391E+02  0.00000000000E+00 0. -1.
         11    1    3    3    0    0 -0.35748318362E+02 -0.13588424368E+02 -0.49411845857E+03  0.49559624559E+03  0.00000000000E+00 0. -1.
        -12    1    3    3    0    0  0.19897482711E+02  0.11980596901E+02 -0.56578167237E+02  0.61159901310E+02  0.00000000000E+00 0.  1.
          5    1    4    4  501    0 -0.70988077116E+02  0.63981347265E+02  0.57425892152E+02  0.11157116733E+03  0.41800000000E+01 0.  1.
         -5    1    4    4    0  501  0.24615484443E+02 -0.23555864689E+02 -0.98653120666E+01  0.35715509485E+02  0.41800000000E+01 0.  1.
</event>
<event>
11    1  0.6625361E-009  0.1454922E+03  0.7561462E-02  0.1101576E+00
         22   -1    0    0    0    0  0.00000000000E+00  0.00000000000E+00  0.36480863139E+03  0.36480863139E+03  0.00000000000E+00 0.  1.
         22   -1    0    0    0    0 -0.00000000000E+00 -0.00000000000E+00 -0.92245127908E+03  0.92245127908E+03  0.00000000000E+00 0.  1.
        -24    2    1    2    0    0 -0.21259519665E+02  0.39576766778E+02 -0.56775401428E+03  0.57540003022E+03  0.81989550583E+02 0.  0.
         25    2    1    2    0    0  0.72122590014E+02  0.15062191577E+02 -0.32692136881E+03  0.35770543017E+03  0.12508819203E+03 0.  0.
         24    2    1    2    0    0 -0.50863070348E+02 -0.54638958355E+02  0.33703273540E+03  0.35415445008E+03  0.79131801984E+02 0.  0.
        -11    1    5    5    0    0 -0.10277474755E+02 -0.59128298475E+02  0.13070257506E+03  0.14382261746E+03  0.00000000000E+00 0.  1.
         12    1    5    5    0    0 -0.40585595593E+02  0.44893401199E+01  0.20633016034E+03  0.21033183261E+03  0.00000000000E+00 0. -1.
         13    1    3    3    0    0  0.51630993054E+01  0.59019762178E+02 -0.41117957228E+03  0.41542584245E+03  0.00000000000E+00 0. -1.
        -14    1    3    3    0    0 -0.26422618971E+02 -0.19442995400E+02 -0.15657444200E+03  0.15997418777E+03  0.00000000000E+00 0.  1.
          5    1    4    4  501    0 -0.26208244764E+02 -0.12982124566E+02 -0.24317052677E+02  0.38264854668E+02  0.41800000000E+01 0.  1.
         -5    1    4    4    0  501  0.98330834778E+02  0.28044316143E+02 -0.30260431613E+03  0.31944057550E+03  0.41800000000E+01 0.  1.
</event>
<event>
11    1  0.6625361E-009  0.1405019E+03  0.7561462E-02  0.1106999E+00
         22   -1    0    0    0    0  0.00000000000E+00  0.00000000000E+00  0.16305957155E+04  0.16305957155E+04  0.00000000000E+00 0.  1.
         22   -1    0    0    0    0 -0.00000000000E+00 -0.00000000000E+00 -0.19118555494E+04  0.19118555494E+04  0.00000000000E+00 0.  1.
        -24    2    1    2    0    0  0.11029969454E+02 -0.78827306167E+02 -0.18461632213E+04  0.18495692526E+04  0.79071968246E+02 0.  0.
         25    2    1    2    0    0 -0.74614099080E+02  0.74284869712E+02  0.46149329831E+02  0.16989051556E+03  0.12509005150E+03 0.  0.
         24    2    1    2    0    0  0.63584129626E+02  0.45424364550E+01  0.15187540575E+04  0.15229914968E+04  0.93944859959E+02 0.  0.
        -11    1    5    5    0    0  0.75458611038E+02 -0.62558748760E+00  0.14837657298E+04  0.14856833896E+04  0.00000000000E+00 0.  1.
         12    1    5    5    0    0 -0.11874481411E+02  0.51680239426E+01  0.34988327750E+02  0.37308107149E+02  0.00000000000E+00 0. -1.
         11    1    3    3    0    0 -0.11454085350E+02  0.94294072554E+01 -0.10708569858E+03  0.10810854098E+03  0.00000000000E+00 0. -1.
        -12    1    3    3    0    0  0.22484054804E+02 -0.88256713423E+02 -0.17390775227E+04  0.17414607116E+04  0.00000000000E+00 0.  1.
          5    1    4    4  501    0 -0.49950868996E+02  0.55077435070E+02  0.89404602131E+02  0.11635836218E+03  0.41800000000E+01 0.  1.
         -5    1    4    4    0  501 -0.24663230084E+02  0.19207434642E+02 -0.43255272300E+02  0.53532153380E+02  0.41800000000E+01 0.  1.
</event>
<event>
11    1  0.6625361E-009  0.1302333E+03  0.7561462E-02  0.1118983E+00
         22   -1    0    0    0    0  0.00000000000E+00  0.00000000000E+00  0.23393584138E+03  0.23393584138E+03  0.00000000000E+00 0.  1.
         22   -1    0    0    0    0 -0.00000000000E+00 -0.00000000000E+00 -0.11793323043E+04  0.11793323043E+04  0.00000000000E+00 0. -1.
         24    2    1    2    0    0 -0.26231563556E+02 -0.34141360840E+00 -0.10901470704E+04  0.10934597189E+04  0.80903091567E+02 0.  0.
         25    2    1    2    0    0  0.38110458062E+02 -0.32577053807E+02 -0.16770251964E+02  0.13580268151E+03  0.12508978977E+03 0.  0.
        -24    2    1    2    0    0 -0.11878894506E+02  0.32918467415E+02  0.16152085951E+03  0.18400574523E+03  0.80897420180E+02 0.  0.
        -13    1    3    3    0    0 -0.19819236108E+02 -0.22645784882E+02 -0.14808774233E+03  0.15111456952E+03  0.00000000000E+00 0.  1.
         14    1    3    3    0    0 -0.64123274477E+01  0.22304371273E+02 -0.94205932812E+03  0.94234514941E+03  0.00000000000E+00 0. -1.
         13    1    5    5    0    0 -0.39207266412E+02 -0.53482663333E+01  0.56940453251E+02  0.69339951750E+02  0.00000000000E+00 0. -1.
        -14    1    5    5    0    0  0.27328371905E+02  0.38266733748E+02  0.10458040625E+03  0.11466579348E+03  0.00000000000E+00 0.  1.
          5    1    4    4  501    0  0.62260727595E+02 -0.31791345941E+00 -0.52680215553E+02  0.81665027890E+02  0.41800000000E+01 0.  1.
         -5    1    4    4    0  501 -0.24150269533E+02 -0.32259140347E+02  0.35909963589E+02  0.54137653619E+02  0.41800000000E+01 0.  1.
</event>
<event>
11    1  0.6625361E-009  0.1460212E+03  0.7561462E-02  0.1101015E+00
         22   -1    0    0    0    0  0.00000000000E+00  0.00000000000E+00  0.11124231858E+03  0.11124231858E+03  0.00000000000E+00 0.  1.
         22   -1    0    0    0    0 -0.00000000000E+00 -0.00000000000E+00 -0.17276785549E+04  0.17276785549E+04  0.00000000000E+00 0. -1.
         24    2    1    2    0    0  0.19713879122E+02  0.59529296286E+02 -0.15564318558E+04  0.15597545010E+04  0.80134934448E+02 0.  0.
         25    2    1    2    0    0  0.23277419957E+02 -0.10692348661E+03 -0.58733110079E+02  0.17626202722E+03  0.12507699130E+03 0.  0.
        -24    2    1    2    0    0 -0.42991299080E+02  0.47394190319E+02 -0.12712705365E+01  0.10290434528E+03  0.80580562640E+02 0.  0.
        -13    1    3    3    0    0 -0.89242230404E+01 -0.11651412238E+02 -0.80313517742E+02  0.81643482876E+02  0.00000000000E+00 0.  1.
         14    1    3    3    0    0  0.28638102163E+02  0.71180708525E+02 -0.14761183380E+04  0.14781110181E+04  0.00000000000E+00 0. -1.
         13    1    5    5    0    0 -0.28131789026E+02 -0.14918719508E+02 -0.18157479486E+02  0.36655965501E+02  0.00000000000E+00 0. -1.
        -14    1    5    5    0    0 -0.14859510054E+02  0.62312909827E+02  0.16886208949E+02  0.66248379775E+02  0.00000000000E+00 0.  1.
          5    1    4    4  501    0  0.48867639032E+02 -0.61370271940E+02  0.20563260908E+02  0.81207613693E+02  0.41800000000E+01 0.  1.
         -5    1    4    4    0  501 -0.25590219075E+02 -0.45553214666E+02 -0.79296370987E+02  0.95054413525E+02  0.41800000000E+01 0.  1.
</event>
<event>
11    1  0.6625361E-009  0.2553449E+03  0.7561462E-02  0.1021090E+00
         22   -1    0    0    0    0  0.00000000000E+00  0.00000000000E+00  0.10884694054E+04  0.10884694054E+04  0.00000000000E+00 0. -1.
         22   -1    0    0    0    0 -0.00000000000E+00 -0.00000000000E+00 -0.84153453445E+03  0.84153453445E+03  0.00000000000E+00 0. -1.
        -24    2    1    2    0    0 -0.41116920494E+02 -0.18004827822E+02 -0.77898126990E+03  0.78466772003E+03  0.82926696693E+02 0.  0.
         25    2    1    2    0    0  0.16534497475E+03  0.18529486179E+03  0.46888147596E+03  0.54513484194E+03  0.12509600683E+03 0.  0.
         24    2    1    2    0    0 -0.12422805426E+03 -0.16729003397E+03  0.55703466494E+03  0.60020137792E+03  0.80842508521E+02 0.  0.
        -13    1    5    5    0    0 -0.74482729405E+02 -0.91142584681E+02  0.41640070925E+03  0.43271722682E+03  0.00000000000E+00 0.  1.
         14    1    5    5    0    0 -0.49745324852E+02 -0.76147449284E+02  0.14063395569E+03  0.16748415110E+03  0.00000000000E+00 0. -1.
         11    1    3    3    0    0  0.12469294063E+02 -0.69613430653E-01 -0.49296944547E+03  0.49312712591E+03  0.00000000000E+00 0. -1.
        -12    1    3    3    0    0 -0.53586214558E+02 -0.17935214391E+02 -0.28601182443E+03  0.29154059412E+03  0.00000000000E+00 0.  1.
          5    1    4    4  501    0  0.86773617456E+02  0.27900272114E+02  0.93962744406E+02  0.13097540077E+03  0.41800000000E+01 0.  1.
         -5    1    4    4    0  501  0.78571357295E+02  0.15739458967E+03  0.37491873155E+03  0.41415944117E+03  0.41800000000E+01 0.  1.
</event>
<event>
11    1  0.6625361E-009  0.1439398E+03  0.7561462E-02  0.1103237E+00
         22   -1    0    0    0    0  0.00000000000E+00  0.00000000000E+00  0.80370119099E+03  0.80370119099E+03  0.00000000000E+00 0.  1.
         22   -1    0    0    0    0 -0.00000000000E+00 -0.00000000000E+00 -0.28863330495E+03  0.28863330495E+03  0.00000000000E+00 0.  1.
         24    2    1    2    0    0  0.57508776859E+02  0.41279007649E+02 -0.19899281969E+03  0.22594183144E+03  0.80251810058E+02 0.  0.
         25    2    1    2    0    0 -0.30655962321E+02 -0.79028526652E+02  0.48834019291E+01  0.15121495972E+03  0.12512721678E+03 0.  0.
        -24    2    1    2    0    0 -0.26852814538E+02  0.37749519003E+02  0.70917730381E+03  0.71517770477E+03  0.80003758254E+02 0.  0.
        -13    1    3    3    0    0  0.59819503190E+02  0.45898664864E+02 -0.20475915348E+03  0.21820030095E+03  0.00000000000E+00 0.  1.
         14    1    3    3    0    0 -0.23107263304E+01 -0.46196572153E+01  0.57663337927E+01  0.77415304927E+01  0.00000000000E+00 0. -1.
         11    1    5    5    0    0 -0.23753769153E+02  0.58250073940E+01  0.54745193199E+02  0.59960057025E+02  0.00000000000E+00 0. -1.
        -12    1    5    5    0    0 -0.30990453850E+01  0.31924511609E+02  0.65443211061E+03  0.65521764775E+03  0.00000000000E+00 0.  1.
          5    1    4    4  501    0 -0.23695223826E+02 -0.87621048451E+02 -0.43975172471E+02  0.10094652029E+03  0.41800000000E+01 0.  1.
         -5    1    4    4    0  501 -0.69607384956E+01  0.85925217989E+01  0.48858574400E+02  0.50268439440E+02  0.41800000000E+01 0.  1.
</event>
<event>
11    1  0.6625361E-009  0.1336104E+03  0.7561462E-02  0.1114911E+00
         22   -1    0    0    0    0  0.00000000000E+00  0.00000000000E+00  0.14027316686E+04  0.14027316686E+04  0.00000000000E+00 0.  1.
         22   -1    0    0    0    0 -0.00000000000E+00 -0.00000000000E+00 -0.42194179331E+03  0.42194179331E+03  0.00000000000E+00 0. -1.
         24    2    1    2    0    0  0.25279784183E+02 -0.38989729497E+02 -0.38878305431E+03  0.40005053389E+03  0.82029871710E+02 0.  0.
         25    2    1    2    0    0 -0.26863651012E+02  0.58934330890E+02  0.15888145232E+03  0.21232565151E+03  0.12507579819E+03 0.  0.
        -24    2    1    2    0    0  0.15838668286E+01 -0.19944601393E+02  0.12106914772E+04  0.12122972765E+04  0.59080772796E+02 0.  0.
        -11    1    3    3    0    0 -0.28788185613E+02 -0.25915961186E+01 -0.13160613863E+03  0.13474290974E+03  0.00000000000E+00 0.  1.
         12    1    3    3    0    0  0.54067969796E+02 -0.36398133379E+02 -0.25717691568E+03  0.26530762415E+03  0.00000000000E+00 0. -1.
         13    1    5    5    0    0 -0.22193199709E+02 -0.58809831357E+01  0.92230264575E+03  0.92258836673E+03  0.00000000000E+00 0. -1.
        -14    1    5    5    0    0  0.23777066538E+02 -0.14063618257E+02  0.28838883149E+03  0.28970890974E+03  0.00000000000E+00 0.  1.
          5    1    4    4  501    0 -0.11874551087E+02 -0.19602886207E+02  0.12194827305E+03  0.12415366209E+03  0.41800000000E+01 0.  1.
         -5    1    4    4    0  501 -0.14989099924E+02  0.78537217097E+02  0.36933179274E+02  0.88171989414E+02  0.41800000000E+01 0.  1.
</event>
<event>
11    1  0.6625361E-009  0.2468908E+03  0.7561462E-02  0.1025569E+00
         22   -1    0    0    0    0  0.00000000000E+00  0.00000000000E+00  0.20011093048E+03  0.20011093048E+03  0.00000000000E+00 0.  1.
         22   -1    0    0    0    0 -0.00000000000E+00 -0.00000000000E+00 -0.71090142051E+03  0.71090142051E+03  0.00000000000E+00 0. -1.
         24    2    1    2    0    0  0.84601530288E+02 -0.16380945641E+02 -0.31631765483E+03  0.33855483451E+03  0.84479363779E+02 0.  0.
         25    2    1    2    0    0 -0.16745100864E+03 -0.17323435598E+03 -0.22053298804E+03  0.34976019499E+03  0.12508961909E+03 0.  0.
        -24    2    1    2    0    0  0.82849478350E+02  0.18961530162E+03  0.26060152832E+02  0.22269732149E+03  0.78083076044E+02 0.  0.
        -13    1    3    3    0    0  0.38426081708E+02 -0.93608489347E+01 -0.33278640956E+02  0.51688075918E+02  0.00000000000E+00 0.  1.
         14    1    3    3    0    0  0.46175448580E+02 -0.70200967058E+01 -0.28303901387E+03  0.28686675859E+03  0.00000000000E+00 0. -1.
         11    1    5    5    0    0  0.35355095306E+02  0.10373359651E+03 -0.24501656431E+02  0.11229858849E+03  0.00000000000E+00 0. -1.
        -12    1    5    5    0    0  0.47494383044E+02  0.85881705110E+02  0.50561809264E+02  0.11039873301E+03  0.00000000000E+00 0.  1.
          5    1    4    4  501    0 -0.12238653699E+03 -0.82473704242E+02 -0.58926485744E+02  0.15896596947E+03  0.41800000000E+01 0. -1.
         -5    1    4    4    0  501 -0.45064471649E+02 -0.90760651735E+02 -0.16160650230E+03  0.19079422552E+03  0.41800000000E+01 0. -1.
</event>
<event>
11    1  0.6625361E-009  0.1638632E+03  0.7561462E-02  0.1083499E+00
         22   -1    0    0    0    0  0.00000000000E+00  0.00000000000E+00  0.11900934564E+04  0.11900934564E+04  0.00000000000E+00 0. -1.
         22   -1    0    0    0    0 -0.00000000000E+00 -0.00000000000E+00 -0.30135384315E+03  0.30135384315E+03  0.00000000000E+00 0.  1.
         24    2    1    2    0    0  0.47044826222E+02 -0.85755943456E+02 -0.20492640691E+03  0.24017862970E+03  0.78253718143E+02 0.  0.
         25    2    1    2    0    0 -0.11454340899E+03  0.14147425572E+03  0.86549006430E+02  0.23722135087E+03  0.12509229082E+03 0.  0.
        -24    2    1    2    0    0  0.67498582770E+02 -0.55718312261E+02  0.10071170137E+04  0.10140473189E+04  0.79666158350E+02 0.  0.
        -13    1    3    3    0    0  0.41492199393E+02 -0.66295300124E+02 -0.20555586624E+03  0.21993154293E+03  0.00000000000E+00 0.  1.
         14    1    3    3    0    0  0.55526268291E+01 -0.19460643332E+02  0.62945933271E+00  0.20247086770E+02  0.00000000000E+00 0. -1.
         13    1    5    5    0    0  0.76993892672E+02 -0.67487133293E+02  0.83129733140E+03  0.83757854907E+03  0.00000000000E+00 0. -1.
        -14    1    5    5    0    0 -0.94953099018E+01  0.11768821032E+02  0.17581968229E+03  0.17646876987E+03  0.00000000000E+00 0.  1.
          5    1    4    4  501    0 -0.12788621014E+03  0.71798953466E+02  0.76443592160E+02  0.16544203711E+03  0.41800000000E+01 0. -1.
         -5    1    4    4    0  501  0.13342801146E+02  0.69675302251E+02  0.10105414270E+02  0.71779313759E+02  0.41800000000E+01 0. -1.
</event>
<event>
11    1  0.6625361E-009  0.1400572E+03  0.7561462E-02  0.1107495E+00
         22   -1    0    0    0    0  0.00000000000E+00  0.00000000000E+00  0.47791544951E+03  0.47791544951E+03  0.00000000000E+00 0. -1.
         22   -1    0    0    0    0 -0.00000000000E+00 -0.00000000000E+00 -0.46089652601E+03  0.46089652601E+03  0.00000000000E+00 0. -1.
        -24    2    1    2    0    0 -0.36910222931E+00  0.39686204230E+01 -0.41838083752E+03  0.42607942652E+03  0.80531151172E+02 0.  0.
         25    2    1    2    0    0 -0.45867665468E+02  0.39748551387E+02  0.12951425315E+03  0.19001815864E+03  0.12509663773E+03 0.  0.
         24    2    1    2    0    0  0.46236767698E+02 -0.43717171810E+02  0.30588550787E+03  0.32271439036E+03  0.80805965264E+02 0.  0.
        -11    1    5    5    0    0  0.62349972118E+02 -0.47831016127E+02  0.18951391960E+03  0.20516054896E+03  0.00000000000E+00 0.  1.
         12    1    5    5    0    0 -0.16113204420E+02  0.41138443168E+01  0.11637158827E+03  0.11755384140E+03  0.00000000000E+00 0. -1.
         11    1    3    3    0    0 -0.22036925060E+02  0.33754389700E+01 -0.38863387348E+03  0.38927279287E+03  0.00000000000E+00 0. -1.
        -12    1    3    3    0    0  0.21667822831E+02  0.59318145302E+00 -0.29746964047E+02  0.36806633647E+02  0.00000000000E+00 0.  1.
          5    1    4    4  501    0  0.11188945017E+02 -0.38920908677E+02  0.27925696784E+02  0.49369490211E+02  0.41800000000E+01 0. -1.
         -5    1    4    4    0  501 -0.57056610485E+02  0.78669460064E+02  0.10158855637E+03  0.14064866843E+03  0.41800000000E+01 0. -1.
</event>
<event>
11    1  0.6625361E-009  0.1655576E+03  0.7561462E-02  0.1081964E+00
         22   -1    0    0    0    0  0.00000000000E+00  0.00000000000E+00  0.52132252945E+02  0.52132252945E+02  0.00000000000E+00 0.  1.
         22   -1    0    0    0    0 -0.00000000000E+00 -0.00000000000E+00 -0.11468312977E+04  0.11468312977E+04  0.00000000000E+00 0. -1.
        -24    2    1    2    0    0 -0.72369287615E+02  0.10294293317E+03 -0.71187410751E+03  0.72708412106E+03  0.77794684120E+02 0.  0.
         25    2    1    2    0    0  0.80342999647E+02 -0.16728885942E+02 -0.26827882307E+03  0.30717452268E+03  0.12509119578E+03 0.  0.
         24    2    1    2    0    0 -0.79737120317E+01 -0.86214047225E+02 -0.11454611416E+03  0.16470490688E+03  0.80687372366E+02 0.  0.
        -13    1    5    5    0    0  0.26312500034E+02 -0.65810454755E+02 -0.43322170431E+02  0.83067286364E+02  0.00000000000E+00 0.  1.
         14    1    5    5    0    0 -0.34286212066E+02 -0.20403592471E+02 -0.71223943728E+02  0.81637620517E+02  0.00000000000E+00 0. -1.
         11    1    3    3    0    0 -0.12227932352E+02  0.73106309379E+02 -0.47990074641E+03  0.48559116673E+03  0.00000000000E+00 0. -1.
        -12    1    3    3    0    0 -0.60141355263E+02  0.29836623788E+02 -0.23197336110E+03  0.24149295433E+03  0.00000000000E+00 0.  1.
          5    1    4    4  501    0  0.73346611881E+02  0.15505782136E+01 -0.27608159428E+03  0.28569327760E+03  0.41800000000E+01 0. -1.
         -5    1    4    4    0  501  0.69963877659E+01 -0.18279464155E+02  0.78027712136E+01  0.21481245080E+02  0.41800000000E+01 0. -1.
</event>
<event>
11    1  0.6625361E-009  0.1358147E+03  0.7561462E-02  0.1112324E+00
         22   -1    0    0    0    0  0.00000000000E+00  0.00000000000E+00  0.69393433103E+02  0.69393433103E+02  0.00000000000E+00 0.  1.
         22   -1    0    0    0    0 -0.00000000000E+00 -0.00000000000E+00 -0.14275622690E+04  0.14275622690E+04  0.00000000000E+00 0. -1.
        -24    2    1    2    0    0 -0.10431141866E+02 -0.66111877708E+01 -0.11284472370E+04  0.11312352644E+04  0.78406251518E+02 0.  0.
         25    2    1    2    0    0  0.36798705867E+02  0.50159786494E+02 -0.22456554324E+03  0.26447624711E+03  0.12509137915E+03 0.  0.
         24    2    1    2    0    0 -0.26367564001E+02 -0.43548598723E+02 -0.51560556793E+01  0.10124419059E+03  0.87361732675E+02 0.  0.
        -13    1    5    5    0    0 -0.51325928344E+02 -0.52947584737E+02 -0.90396918796E+01  0.74293429582E+02  0.00000000000E+00 0.  1.
         14    1    5    5    0    0  0.24958364343E+02  0.93989860138E+01  0.38836362002E+01  0.26950761008E+02  0.00000000000E+00 0. -1.
         13    1    3    3    0    0 -0.41666713450E+02  0.52739594216E+01 -0.79741990075E+03  0.79852515788E+03  0.00000000000E+00 0. -1.
        -14    1    3    3    0    0  0.31235571584E+02 -0.11885147192E+02 -0.33102733626E+03  0.33271010656E+03  0.00000000000E+00 0.  1.
          5    1    4    4  501    0  0.15841840948E+02 -0.74558853030E+01  0.10954122400E+02  0.21071766604E+02  0.41800000000E+01 0. -1.
         -5    1    4    4    0  501  0.20956864919E+02  0.57615671797E+02 -0.23551966564E+03  0.24340448050E+03  0.41800000000E+01 0. -1.
</event>
<event>
11    1  0.6625361E-009  0.1295099E+03  0.7561462E-02  0.1119873E+00
         22   -1    0    0    0    0  0.00000000000E+00  0.00000000000E+00  0.17070303028E+04  0.17070303028E+04  0.00000000000E+00 0.  1.
         22   -1    0    0    0    0 -0.00000000000E+00 -0.00000000000E+00 -0.69857450422E+03  0.69857450422E+03  0.00000000000E+00 0.  1.
         24    2    1    2    0    0  0.10288229802E+01  0.97195817616E+01 -0.59886014381E+03  0.60399904226E+03  0.78011809721E+02 0.  0.
         25    2    1    2    0    0 -0.24774500432E+02  0.14065097395E+02 -0.53153133817E+02  0.13887009628E+03  0.12509214672E+03 0.  0.
        -24    2    1    2    0    0  0.23745677452E+02 -0.23784679156E+02  0.16604690762E+04  0.16627356684E+04  0.80017385820E+02 0.  0.
        -11    1    3    3    0    0  0.19629726586E+02 -0.16537592798E+02 -0.48501556554E+03  0.48569426284E+03  0.00000000000E+00 0.  1.
         12    1    3    3    0    0 -0.18600903606E+02  0.26257174560E+02 -0.11384457827E+03  0.11830477942E+03  0.00000000000E+00 0. -1.
         11    1    5    5    0    0  0.18485967539E+02  0.13492684120E+02  0.14466308999E+03  0.14646225836E+03  0.00000000000E+00 0. -1.
        -12    1    5    5    0    0  0.52597099125E+01 -0.37277363276E+02  0.15158059862E+04  0.15162734101E+04  0.00000000000E+00 0.  1.
          5    1    4    4  501    0  0.25625669085E+02  0.48801865014E+02 -0.54325553261E+02  0.77505064880E+02  0.41800000000E+01 0.  1.
         -5    1    4    4    0  501 -0.50400169517E+02 -0.34736767619E+02  0.11724194441E+01  0.61365031405E+02  0.41800000000E+01 0.  1.
</event>
<event>
11    1  0.6625361E-009  0.1276288E+03  0.7561462E-02  0.1122217E+00
         22   -1    0    0    0    0  0.00000000000E+00  0.00000000000E+00  0.11329924127E+04  0.11329924127E+04  0.00000000000E+00 0.  1.
         22   -1    0    0    0    0 -0.00000000000E+00 -0.00000000000E+00 -0.11526827335E+04  0.11526827335E+04  0.00000000000E+00 0.  1.
        -24    2    1    2    0    0 -0.19845556664E+02 -0.11011737698E+01 -0.10582737471E+04  0.10614390731E+04  0.79463975653E+02 0.  0.
         25    2    1    2    0    0 -0.58008774277E+01 -0.36099401723E+00 -0.48216736628E+02  0.13418508279E+03  0.12508797807E+03 0.  0.
         24    2    1    2    0    0  0.25646434092E+02  0.14621677871E+01  0.10868001629E+04  0.10900509902E+04  0.80104242725E+02 0.  0.
        -13    1    5    5    0    0  0.40945354430E+02 -0.24731547828E+02  0.45146718123E+03  0.45399425904E+03  0.00000000000E+00 0.  1.
         14    1    5    5    0    0 -0.15298920338E+02  0.26193715615E+02  0.63533298169E+03  0.63605673121E+03  0.00000000000E+00 0. -1.
         13    1    3    3    0    0 -0.11939753922E+02  0.18221399587E+01 -0.21729800333E+02  0.24860855582E+02  0.00000000000E+00 0. -1.
        -14    1    3    3    0    0 -0.79058027422E+01 -0.29233137285E+01 -0.10365439468E+04  0.10365782176E+04  0.00000000000E+00 0.  1.
          5    1    4    4  501    0 -0.49398896891E+02  0.30394387401E+02  0.54353306388E+01  0.58404494849E+02  0.41800000000E+01 0.  1.
         -5    1    4    4    0  501  0.43598019463E+02 -0.30755381418E+02 -0.53652067267E+02  0.75780587945E+02  0.41800000000E+01 0.  1.
</event>
<event>
11    1  0.6625361E-009  0.1355607E+03  0.7561462E-02  0.1112619E+00
         22   -1    0    0    0    0  0.00000000000E+00  0.00000000000E+00  0.15026079362E+03  0.15026079362E+03  0.00000000000E+00 0.  1.
         22   -1    0    0    0    0 -0.00000000000E+00 -0.00000000000E+00 -0.17264784024E+04  0.17264784024E+04  0.00000000000E+00 0. -1.
        -24    2    1    2    0    0  0.33263490813E+02  0.39968386642E+02 -0.16395994311E+04  0.16419893480E+04  0.71685372345E+02 0.  0.
         25    2    1    2    0    0 -0.46403895674E+02 -0.52834698340E+02  0.37062869252E+02  0.14821257015E+03  0.12509389589E+03 0.  0.
         24    2    1    2    0    0  0.13140404862E+02  0.12866311698E+02  0.26318953070E+02  0.86537277916E+02  0.80360444012E+02 0.  0.
        -13    1    5    5    0    0 -0.47697505638E+01 -0.11603366309E+02  0.47772108593E+02  0.49391932434E+02  0.00000000000E+00 0.  1.
         14    1    5    5    0    0  0.17910155425E+02  0.24469678007E+02 -0.21453155523E+02  0.37145345483E+02  0.00000000000E+00 0. -1.
         11    1    3    3    0    0  0.52687987333E+02  0.22876939577E+02 -0.13547852522E+04  0.13560023813E+04  0.00000000000E+00 0. -1.
        -12    1    3    3    0    0 -0.19424496521E+02  0.17091447064E+02 -0.28481417890E+03  0.28598696671E+03  0.00000000000E+00 0.  1.
          5    1    4    4  501    0 -0.44710710038E+02 -0.86092814892E+02  0.53475659732E+02  0.11085187843E+03  0.41800000000E+01 0.  1.
         -5    1    4    4    0  501 -0.16931856359E+01  0.33258116551E+02 -0.16412790480E+02  0.37360691716E+02  0.41800000000E+01 0.  1.
</event>
<event>
11    1  0.6625361E-009  0.1787455E+03  0.7561462E-02  0.1070662E+00
         22   -1    0    0    0    0  0.00000000000E+00  0.00000000000E+00  0.20363841137E+04  0.20363841137E+04  0.00000000000E+00 0.  1.
         22   -1    0    0    0    0 -0.00000000000E+00 -0.00000000000E+00 -0.32870363868E+03  0.32870363868E+03  0.00000000000E+00 0.  1.
         24    2    1    2    0    0 -0.19109665733E+02 -0.34646166337E+02 -0.29321948634E+03  0.30559501991E+03  0.76453337749E+02 0.  0.
         25    2    1    2    0    0 -0.11067127750E+03  0.26188505503E+02  0.24931787914E+03  0.30123175130E+03  0.12508874308E+03 0.  0.
        -24    2    1    2    0    0  0.12978094323E+03  0.84576608337E+01  0.17515820823E+04  0.17582609812E+04  0.80791471776E+02 0.  0.
        -13    1    3    3    0    0 -0.12435918438E+02 -0.58620896526E+02 -0.22931835264E+03  0.23701891999E+03  0.00000000000E+00 0.  1.
         14    1    3    3    0    0 -0.66737472956E+01  0.23974730189E+02 -0.63901133704E+02  0.68576099913E+02  0.00000000000E+00 0. -1.
         13    1    5    5    0    0  0.13857630840E+02 -0.68593931800E+00  0.33653673760E+02  0.36401568685E+02  0.00000000000E+00 0. -1.
        -14    1    5    5    0    0  0.11592331239E+03  0.91436001517E+01  0.17179284085E+04  0.17218594125E+04  0.00000000000E+00 0.  1.
          5    1    4    4  501    0 -0.44061884676E+02 -0.47715260671E+02  0.13329748616E+03  0.14833707560E+03  0.41800000000E+01 0.  1.
         -5    1    4    4    0  501 -0.66609392819E+02  0.73903766175E+02  0.11602039299E+03  0.15289467569E+03  0.41800000000E+01 0.  1.
</event>
<event>
11    1  0.9633275E-009  0.1600238E+03  0.7561462E-02  0.1087055E+00
         22   -1    0    0    0    0  0.00000000000E+00  0.00000000000E+00  0.78447738620E+03  0.78447738620E+03  0.00000000000E+00 0.  1.
         22   -1    0    0    0    0 -0.00000000000E+00 -0.00000000000E+00 -0.21029694167E+04  0.21029694167E+04  0.00000000000E+00 0.  1.
         24    2    1    2    0    0  0.69522323661E+02 -0.22606029602E+02 -0.17033027298E+04  0.17070348683E+04  0.85927097828E+02 0.  0.
         25    2    1    2    0    0  0.27566950752E+02  0.49168854840E+02 -0.38021417886E+03  0.40421247475E+03  0.12508952747E+03 0.  0.
        -24    2    1    2    0    0 -0.97089274413E+02 -0.26562825238E+02  0.76502487813E+03  0.77619945989E+03  0.84205857782E+02 0.  0.
        -11    1    3    3    0    0  0.52318046631E+02  0.27792443810E+02 -0.96106110397E+03  0.96288527016E+03  0.00000000000E+00 0.  1.
         12    1    3    3    0    0  0.17204277030E+02 -0.50398473412E+02 -0.74224162581E+03  0.74414959810E+03  0.00000000000E+00 0. -1.
         13    1    5    5    0    0 -0.24365352709E+02 -0.48043871231E+02  0.26089236490E+03  0.26639577706E+03  0.00000000000E+00 0. -1.
        -14    1    5    5    0    0 -0.72723921704E+02  0.21481045994E+02  0.50413251323E+03  0.50980368283E+03  0.00000000000E+00 0.  1.
          5    1    4    4  501    0  0.56323968659E+02  0.77763020387E+02 -0.25385478564E+03  0.27143913015E+03  0.41800000000E+01 0. -1.
         -5    1    4    4    0  501 -0.28757017907E+02 -0.28594165547E+02 -0.12635939322E+03  0.13277334460E+03  0.41800000000E+01 0. -1.
</event>
<event>
11    1  0.6625361E-009  0.1406954E+03  0.7561462E-02  0.1106784E+00
         22   -1    0    0    0    0  0.00000000000E+00  0.00000000000E+00  0.26705843632E+03  0.26705843632E+03  0.00000000000E+00 0. -1.
         22   -1    0    0    0    0 -0.00000000000E+00 -0.00000000000E+00 -0.32833527431E+03  0.32833527431E+03  0.00000000000E+00 0. -1.
         24    2    1    2    0    0  0.64309377083E+02  0.15152564604E+02 -0.24367152781E+03  0.26459277665E+03  0.79172140278E+02 0.  0.
         25    2    1    2    0    0 -0.52075577177E+02 -0.10524752273E+02  0.58950269085E+01  0.13603176451E+03  0.12508898219E+03 0.  0.
        -24    2    1    2    0    0 -0.12233799906E+02 -0.46278123308E+01  0.17649966291E+03  0.19476916946E+03  0.81313073110E+02 0.  0.
        -13    1    3    3    0    0  0.30530626708E+02 -0.42626728652E+01 -0.18239088079E+02  0.35818345594E+02  0.00000000000E+00 0.  1.
         14    1    3    3    0    0  0.33778750375E+02  0.19415237469E+02 -0.22543243973E+03  0.22877443106E+03  0.00000000000E+00 0. -1.
         13    1    5    5    0    0 -0.46094201409E+02  0.23143891971E+01  0.11957177248E+03  0.12816957742E+03  0.00000000000E+00 0. -1.
        -14    1    5    5    0    0  0.33860401503E+02 -0.69422015279E+01  0.56927890429E+02  0.66599592046E+02  0.00000000000E+00 0.  1.
          5    1    4    4  501    0  0.59991180610E+01 -0.53374745359E+02  0.27625743594E+02  0.60543430435E+02  0.41800000000E+01 0.  1.
         -5    1    4    4    0  501 -0.58074695238E+02  0.42849993086E+02 -0.21730716686E+02  0.75488334079E+02  0.41800000000E+01 0.  1.
</event>
<event>
11    1  0.6625361E-009  0.2258845E+03  0.7561462E-02  0.1037593E+00
         22   -1    0    0    0    0  0.00000000000E+00  0.00000000000E+00  0.26586078216E+04  0.26586078216E+04  0.00000000000E+00 0. -1.
         22   -1    0    0    0    0 -0.00000000000E+00 -0.00000000000E+00 -0.63288589477E+03  0.63288589477E+03  0.00000000000E+00 0. -1.
        -24    2    1    2    0    0  0.16035358144E+03  0.91639499894E+02 -0.47156045742E+03  0.51319524123E+03  0.83000130095E+02 0.  0.
         25    2    1    2    0    0 -0.17208819578E+03 -0.11175488210E+03 -0.36534525746E+02  0.24307594600E+03  0.12509053981E+03 0.  0.
         24    2    1    2    0    0  0.11734614338E+02  0.20115382206E+02  0.25338169100E+04  0.25352225291E+04  0.81134512392E+02 0.  0.
        -11    1    5    5    0    0  0.61478954467E+01 -0.29867359720E+02  0.62534252431E+03  0.62608556005E+03  0.00000000000E+00 0.  1.
         12    1    5    5    0    0  0.55867188914E+01  0.49982741926E+02  0.19084743857E+04  0.19091369691E+04  0.00000000000E+00 0. -1.
         13    1    3    3    0    0  0.12712709734E+03  0.76912825140E+02 -0.44213250708E+03  0.46643116895E+03  0.00000000000E+00 0. -1.
        -14    1    3    3    0    0  0.33226484105E+02  0.14726674754E+02 -0.29427950343E+02  0.46764072285E+02  0.00000000000E+00 0.  1.
          5    1    4    4  501    0 -0.16093367397E+03 -0.10032470869E+03 -0.72839322742E+02  0.20319383339E+03  0.41800000000E+01 0. -1.
         -5    1    4    4    0  501 -0.11154521815E+02 -0.11430173405E+02  0.36304796996E+02  0.39882112606E+02  0.41800000000E+01 0. -1.
</event>
<event>
11    1  0.6625361E-009  0.1519896E+03  0.7561462E-02  0.1094863E+00
         22   -1    0    0    0    0  0.00000000000E+00  0.00000000000E+00  0.27928020135E+03  0.27928020135E+03  0.00000000000E+00 0. -1.
         22   -1    0    0    0    0 -0.00000000000E+00 -0.00000000000E+00 -0.13068174347E+04  0.13068174347E+04  0.00000000000E+00 0. -1.
        -24    2    1    2    0    0 -0.88062964721E+01 -0.85257065883E+02 -0.12192664228E+04  0.12254835986E+04  0.88617844469E+02 0.  0.
         25    2    1    2    0    0  0.49245765655E+02  0.10091766532E+03  0.23825036198E+02  0.16977810587E+03  0.12508977686E+03 0.  0.
         24    2    1    2    0    0 -0.40439469183E+02 -0.15660599436E+02  0.16790415328E+03  0.19083593162E+03  0.79661427732E+02 0.  0.
        -13    1    5    5    0    0  0.15358435551E+02  0.18380121991E+02  0.31424014680E+02  0.39511759333E+02  0.00000000000E+00 0.  1.
         14    1    5    5    0    0 -0.55797904734E+02 -0.34040721427E+02  0.13648013860E+03  0.15132417229E+03  0.00000000000E+00 0. -1.
         11    1    3    3    0    0  0.89294718306E+01 -0.31783876262E+02 -0.94060633073E+03  0.94118553945E+03  0.00000000000E+00 0. -1.
        -12    1    3    3    0    0 -0.17735768303E+02 -0.53473189621E+02 -0.27866009211E+03  0.28429805912E+03  0.00000000000E+00 0.  1.
          5    1    4    4  501    0  0.23587940600E+02  0.25222142103E+02  0.69433726919E+02  0.77659913906E+02  0.41800000000E+01 0.  1.
         -5    1    4    4    0  501  0.25657825055E+02  0.75695523216E+02 -0.45608690721E+02  0.92118191965E+02  0.41800000000E+01 0.  1.
</event>
<event>
11    1  0.6625361E-009  0.1315135E+03  0.7561462E-02  0.1117423E+00
         22   -1    0    0    0    0  0.00000000000E+00  0.00000000000E+00  0.45761030903E+03  0.45761030903E+03  0.00000000000E+00 0. -1.
         22   -1    0    0    0    0 -0.00000000000E+00 -0.00000000000E+00 -0.22671453580E+03  0.22671453580E+03  0.00000000000E+00 0. -1.
        -24    2    1    2    0    0 -0.38035146036E+02 -0.69143841620E+01 -0.15866816251E+03  0.18118665824E+03  0.78476354952E+02 0.  0.
         25    2    1    2    0    0  0.54535768163E+02  0.13656950575E+02  0.38513366300E+02  0.14245045192E+03  0.12509272386E+03 0.  0.
         24    2    1    2    0    0 -0.16500622127E+02 -0.67425664128E+01  0.35105056944E+03  0.36068773468E+03  0.80878964559E+02 0.  0.
        -11    1    5    5    0    0 -0.63613569333E+01 -0.49072683807E+01 -0.13411885480E+01  0.81453625895E+01  0.00000000000E+00 0.  1.
         12    1    5    5    0    0 -0.10139265194E+02 -0.18352980321E+01  0.35239175799E+03  0.35254237209E+03  0.00000000000E+00 0. -1.
         13    1    3    3    0    0 -0.54905811366E+02 -0.19717779949E+02 -0.75776765051E+02  0.95632406063E+02  0.00000000000E+00 0. -1.
        -14    1    3    3    0    0  0.16870665329E+02  0.12803395787E+02 -0.82891397459E+02  0.85554252174E+02  0.00000000000E+00 0.  1.
          5    1    4    4  501    0  0.60735440588E+02  0.88010675077E+01 -0.33394308697E+02  0.69992176606E+02  0.41800000000E+01 0. -1.
         -5    1    4    4    0  501 -0.61996724251E+01  0.48558830671E+01  0.71907674997E+02  0.72458275318E+02  0.41800000000E+01 0. -1.
</event>
<event>
11    1  0.6625361E-009  0.1300998E+03  0.7561462E-02  0.1119146E+00
         22   -1    0    0    0    0  0.00000000000E+00  0.00000000000E+00  0.19894530201E+03  0.19894530201E+03  0.00000000000E+00 0.  1.
         22   -1    0    0    0    0 -0.00000000000E+00 -0.00000000000E+00 -0.22717674561E+04  0.22717674561E+04  0.00000000000E+00 0.  1.
        -24    2    1    2    0    0 -0.58531635233E+01 -0.34983416183E+02 -0.21752904688E+04  0.21770423916E+04  0.79792558105E+02 0.  0.
         25    2    1    2    0    0 -0.91585449375E+01  0.55983831282E+02 -0.26690168416E+02  0.13992294041E+03  0.12509194959E+03 0.  0.
         24    2    1    2    0    0  0.15011708461E+02 -0.21000415099E+02  0.12915848313E+03  0.15374742608E+03  0.79309447332E+02 0.  0.
        -13    1    5    5    0    0  0.17809290251E+02  0.19035266117E+02  0.10202511176E+03  0.10530259069E+03  0.00000000000E+00 0.  1.
         14    1    5    5    0    0 -0.27975817899E+01 -0.40035681216E+02  0.27133371368E+02  0.48444835392E+02  0.00000000000E+00 0. -1.
         13    1    3    3    0    0 -0.13118094202E+02 -0.12112647418E+02 -0.97995917863E+02  0.99609239234E+02  0.00000000000E+00 0. -1.
        -14    1    3    3    0    0  0.72649306787E+01 -0.22870768766E+02 -0.20772945509E+04  0.20774331524E+04  0.00000000000E+00 0.  1.
          5    1    4    4  501    0 -0.41688216983E+02  0.83993772637E+02 -0.13555493144E+02  0.94837150270E+02  0.41800000000E+01 0. -1.
         -5    1    4    4    0  501  0.32529672045E+02 -0.28009941355E+02 -0.13134675272E+02  0.45085790141E+02  0.41800000000E+01 0. -1.
</event>
<event>
11    1  0.6625361E-009  0.1642595E+03  0.7561462E-02  0.1083138E+00
         22   -1    0    0    0    0  0.00000000000E+00  0.00000000000E+00  0.16245413230E+04  0.16245413230E+04  0.00000000000E+00 0.  1.
         22   -1    0    0    0    0 -0.00000000000E+00 -0.00000000000E+00 -0.77523672521E+02  0.77523672521E+02  0.00000000000E+00 0.  1.
        -24    2    1    2    0    0  0.85200404366E+02  0.53021165425E+02  0.26063863838E+02  0.13213900810E+03  0.81920934914E+02 0.  0.
         25    2    1    2    0    0 -0.10820341643E+03 -0.82232775915E+02  0.35284750738E+03  0.39827086351E+03  0.12509239982E+03 0.  0.
         24    2    1    2    0    0  0.23003012068E+02  0.29211610490E+02  0.11681062793E+04  0.11716551239E+04  0.83192505562E+02 0.  0.
        -13    1    5    5    0    0  0.25142088365E+02  0.27212077352E+02  0.11681394570E+04  0.11687268342E+04  0.00000000000E+00 0.  1.
         14    1    5    5    0    0 -0.21390762973E+01  0.19995331378E+01 -0.33177777539E-01  0.29282897636E+01  0.00000000000E+00 0. -1.
         13    1    3    3    0    0 -0.70421583551E+01 -0.22135057962E+01  0.23457982253E+02  0.24592042079E+02  0.00000000000E+00 0. -1.
        -14    1    3    3    0    0  0.92242562721E+02  0.55234671222E+02  0.26058815845E+01  0.10754696602E+03  0.00000000000E+00 0.  1.
          5    1    4    4  501    0 -0.98935756615E+02 -0.57637867078E+01  0.13765979651E+03  0.16967379630E+03  0.41800000000E+01 0. -1.
         -5    1    4    4    0  501 -0.92676598187E+01 -0.76468989207E+02  0.21518771087E+03  0.22859706721E+03  0.41800000000E+01 0. -1.
</event>
<event>
11    1  0.6625361E-009  0.1430427E+03  0.7561462E-02  0.1104207E+00
         22   -1    0    0    0    0  0.00000000000E+00  0.00000000000E+00  0.18912221656E+04  0.18912221656E+04  0.00000000000E+00 0.  1.
         22   -1    0    0    0    0 -0.00000000000E+00 -0.00000000000E+00 -0.10930985689E+04  0.10930985689E+04  0.00000000000E+00 0.  1.
        -24    2    1    2    0    0 -0.34042470895E+02 -0.60085180913E+02 -0.10525415523E+04  0.10578193397E+04  0.79805497606E+02 0.  0.
         25    2    1    2    0    0  0.29038934922E+02  0.85605499436E+02  0.12468030778E+03  0.19840577944E+03  0.12509241739E+03 0.  0.
         24    2    1    2    0    0  0.50035359731E+01 -0.25520318523E+02  0.17259848412E+04  0.17280956153E+04  0.81329339165E+02 0.  0.
        -13    1    5    5    0    0 -0.26129495166E+02 -0.35651246789E+02  0.13386488315E+04  0.13393783842E+04  0.00000000000E+00 0.  1.
         14    1    5    5    0    0  0.31133031139E+02  0.10130928266E+02  0.38733600971E+03  0.38871723109E+03  0.00000000000E+00 0. -1.
         13    1    3    3    0    0 -0.24556678524E+02  0.17048912410E+01 -0.91704327746E+02  0.94950623176E+02  0.00000000000E+00 0. -1.
        -14    1    3    3    0    0 -0.94857923706E+01 -0.61790072154E+02 -0.96083722452E+03  0.96286871654E+03  0.00000000000E+00 0.  1.
          5    1    4    4  501    0  0.39778426863E+02  0.11132070388E+03  0.71493501840E+02  0.13821510613E+03  0.41800000000E+01 0. -1.
         -5    1    4    4    0  501 -0.10739491942E+02 -0.25715204445E+02  0.53186805944E+02  0.60190673309E+02  0.41800000000E+01 0. -1.
</event>
<event>
11    1  0.6625361E-009  0.2088990E+03  0.7561462E-02  0.1048403E+00
         22   -1    0    0    0    0  0.00000000000E+00  0.00000000000E+00  0.34254764968E+03  0.34254764968E+03  0.00000000000E+00 0.  1.
         22   -1    0    0    0    0 -0.00000000000E+00 -0.00000000000E+00 -0.62207337463E+03  0.62207337463E+03  0.00000000000E+00 0.  1.
        -24    2    1    2    0    0 -0.16898521053E+02 -0.16851417715E+03 -0.46657663931E+03  0.50281175242E+03  0.80270231744E+02 0.  0.
         25    2    1    2    0    0 -0.11468595632E+03  0.15893251129E+03  0.17451839785E+02  0.23316333755E+03  0.12509261987E+03 0.  0.
         24    2    1    2    0    0  0.13158447737E+03  0.95816658603E+01  0.16959907458E+03  0.22864593434E+03  0.78159031376E+02 0.  0.
        -13    1    5    5    0    0  0.79000303687E+02  0.18515988583E+02  0.15231138477E+03  0.17257649825E+03  0.00000000000E+00 0.  1.
         14    1    5    5    0    0  0.52584173687E+02 -0.89343227228E+01  0.17287689804E+02  0.56069436091E+02  0.00000000000E+00 0. -1.
         11    1    3    3    0    0 -0.37343444058E+02 -0.40068708506E+02 -0.10276486292E+03  0.11645020939E+03  0.00000000000E+00 0. -1.
        -12    1    3    3    0    0  0.20444923005E+02 -0.12844546864E+03 -0.36381177639E+03  0.38636154303E+03  0.00000000000E+00 0.  1.
          5    1    4    4  501    0 -0.11762172340E+03  0.17307608806E+03 -0.10700774774E+01  0.20930556500E+03  0.41800000000E+01 0. -1.
         -5    1    4    4    0  501  0.29357670774E+01 -0.14143576773E+02  0.18521917262E+02  0.23857772556E+02  0.41800000000E+01 0. -1.
</event>
<event>
11    1  0.6625361E-009  0.1491518E+03  0.7561462E-02  0.1097749E+00
         22   -1    0    0    0    0  0.00000000000E+00  0.00000000000E+00  0.11147645497E+04  0.11147645497E+04  0.00000000000E+00 0. -1.
         22   -1    0    0    0    0 -0.00000000000E+00 -0.00000000000E+00 -0.18873039402E+03  0.18873039402E+03  0.00000000000E+00 0.  1.
        -24    2    1    2    0    0  0.39282806794E+02 -0.87410784970E+01 -0.15328740365E+03  0.17722718972E+03  0.79327821718E+02 0.  0.
         25    2    1    2    0    0 -0.48417174436E+02 -0.72431048294E+02  0.27977906085E+03  0.31861190356E+03  0.12508694043E+03 0.  0.
         24    2    1    2    0    0  0.91343676422E+01  0.81172126791E+02  0.79954249853E+03  0.80765585048E+03  0.79796084014E+02 0.  0.
        -13    1    5    5    0    0 -0.33385762393E+00 -0.16197869105E+02  0.99404367475E+02  0.10071599028E+03  0.00000000000E+00 0.  1.
         14    1    5    5    0    0  0.94682252661E+01  0.97369995896E+02  0.70013813105E+03  0.70693986020E+03  0.00000000000E+00 0. -1.
         11    1    3    3    0    0  0.92615633572E+01  0.15807378284E+02  0.79652086790E+00  0.18338053591E+02  0.00000000000E+00 0. -1.
        -12    1    3    3    0    0  0.30021243437E+02 -0.24548456781E+02 -0.15408392451E+03  0.15888913613E+03  0.00000000000E+00 0.  1.
          5    1    4    4  501    0 -0.69164104291E+02 -0.54351778177E+02  0.86851918111E+02  0.12368717473E+03  0.41800000000E+01 0.  1.
         -5    1    4    4    0  501  0.20746929855E+02 -0.18079270117E+02  0.19292714273E+03  0.19492472883E+03  0.41800000000E+01 0.  1.
</event>
<event>
11    1  0.6625361E-009  0.2042935E+03  0.7561462E-02  0.1051528E+00
         22   -1    0    0    0    0  0.00000000000E+00  0.00000000000E+00  0.29281104247E+03  0.29281104247E+03  0.00000000000E+00 0. -1.
         22   -1    0    0    0    0 -0.00000000000E+00 -0.00000000000E+00 -0.12446031977E+04  0.12446031977E+04  0.00000000000E+00 0.  1.
         24    2    1    2    0    0 -0.15792097157E+03 -0.13082517031E+02 -0.70512765565E+03  0.72698533458E+03  0.78692314878E+02 0.  0.
         25    2    1    2    0    0  0.16594607931E+03  0.23221650796E+02 -0.50118439291E+03  0.54305506797E+03  0.12508263208E+03 0.  0.
        -24    2    1    2    0    0 -0.80251077372E+01 -0.10139133765E+02  0.25451989337E+03  0.26737383758E+03  0.80877614439E+02 0.  0.
        -13    1    3    3    0    0 -0.13692722008E+03 -0.17818431213E+02 -0.68010490132E+03  0.69398071796E+03  0.00000000000E+00 0.  1.
         14    1    3    3    0    0 -0.20993751483E+02  0.47359141819E+01 -0.25022754327E+02  0.33004616626E+02  0.00000000000E+00 0. -1.
         13    1    5    5    0    0  0.21141010378E+02  0.23331941891E+02  0.58983602315E+02  0.66860954034E+02  0.00000000000E+00 0. -1.
        -14    1    5    5    0    0 -0.29166118116E+02 -0.33471075656E+02  0.19553629105E+03  0.20051288355E+03  0.00000000000E+00 0.  1.
          5    1    4    4  501    0  0.10977329524E+03 -0.28675815661E+02 -0.40209211250E+03  0.41781337710E+03  0.41800000000E+01 0. -1.
         -5    1    4    4    0  501  0.56172784069E+02  0.51897466457E+02 -0.99092280414E+02  0.12524169087E+03  0.41800000000E+01 0. -1.
</event>
<event>
11    1  0.6625361E-009  0.1876674E+03  0.7561462E-02  0.1063604E+00
         22   -1    0    0    0    0  0.00000000000E+00  0.00000000000E+00  0.22081004450E+04  0.22081004450E+04  0.00000000000E+00 0.  1.
         22   -1    0    0    0    0 -0.00000000000E+00 -0.00000000000E+00 -0.11414582541E+04  0.11414582541E+04  0.00000000000E+00 0.  1.
         24    2    1    2    0    0 -0.13764981614E+03  0.47156807210E+02 -0.10882410038E+04  0.11017015937E+04  0.91141004676E+02 0.  0.
         25    2    1    2    0    0  0.49447060232E+02 -0.21031437186E+02  0.58949151521E+02  0.14835586911E+03  0.12508848196E+03 0.  0.
        -24    2    1    2    0    0  0.88202755911E+02 -0.26125370024E+02  0.20959340433E+04  0.20995012363E+04  0.80645313542E+02 0.  0.
        -13    1    3    3    0    0 -0.81378143314E+02  0.14972026887E+02 -0.87294603016E+03  0.87685878873E+03  0.00000000000E+00 0.  1.
         14    1    3    3    0    0 -0.56271672829E+02  0.32184780323E+02 -0.21529497366E+03  0.22484280494E+03  0.00000000000E+00 0. -1.
         11    1    5    5    0    0  0.32836265014E+02 -0.31062286253E+02  0.38182104442E+03  0.38448718560E+03  0.00000000000E+00 0. -1.
        -12    1    5    5    0    0  0.55366490897E+02  0.49369162288E+01  0.17141129988E+04  0.17150140507E+04  0.00000000000E+00 0.  1.
          5    1    4    4  501    0 -0.34969149158E+02  0.11588615333E+02  0.42289799414E+02  0.56240883106E+02  0.41800000000E+01 0. -1.
         -5    1    4    4    0  501  0.84416209390E+02 -0.32620052519E+02  0.16659352107E+02  0.92114986005E+02  0.41800000000E+01 0. -1.
</event>
<event>
11    1  0.6625361E-009  0.1801067E+03  0.7561462E-02  0.1069557E+00
         22   -1    0    0    0    0  0.00000000000E+00  0.00000000000E+00  0.29939435562E+03  0.29939435562E+03  0.00000000000E+00 0. -1.
         22   -1    0    0    0    0 -0.00000000000E+00 -0.00000000000E+00 -0.41161541133E+03  0.41161541133E+03  0.00000000000E+00 0.  1.
         24    2    1    2    0    0 -0.53024634210E+02  0.47704496833E+02 -0.11146058548E+03  0.15733950793E+03  0.85117141571E+02 0.  0.
         25    2    1    2    0    0 -0.21235052550E+02 -0.15280946541E+03 -0.21377267231E+03  0.29180144947E+03  0.12509064837E+03 0.  0.
        -24    2    1    2    0    0  0.74259686761E+02  0.10510496858E+03  0.21301220208E+03  0.26186880955E+03  0.81483247857E+02 0.  0.
        -13    1    3    3    0    0 -0.14206258220E+01 -0.17833827394E+02 -0.51749349560E+02  0.54754531841E+02  0.00000000000E+00 0.  1.
         14    1    3    3    0    0 -0.51604008388E+02  0.65538324227E+02 -0.59711235920E+02  0.10258497609E+03  0.00000000000E+00 0. -1.
         13    1    5    5    0    0 -0.39869489480E+01  0.48532808869E+02  0.11201825640E+03  0.12214507385E+03  0.00000000000E+00 0. -1.
        -14    1    5    5    0    0  0.78246635709E+02  0.56572159709E+02  0.10099394569E+03  0.13972373571E+03  0.00000000000E+00 0.  1.
          5    1    4    4  501    0 -0.24098882861E+02  0.38926007795E+01 -0.86155837001E+02  0.89644905853E+02  0.41800000000E+01 0. -1.
         -5    1    4    4    0  501  0.28638303109E+01 -0.15670206619E+03 -0.12761683531E+03  0.20215654361E+03  0.41800000000E+01 0. -1.
</event>
<event>
11    1  0.6625361E-009  0.1714514E+03  0.7561462E-02  0.1076775E+00
         22   -1    0    0    0    0  0.00000000000E+00  0.00000000000E+00  0.25024522480E+03  0.25024522480E+03  0.00000000000E+00 0. -1.
         22   -1    0    0    0    0 -0.00000000000E+00 -0.00000000000E+00 -0.63573039500E+03  0.63573039500E+03  0.00000000000E+00 0.  1.
        -24    2    1    2    0    0  0.97505623135E+02  0.65970299989E+02 -0.56413787083E+03  0.58182083209E+03  0.80028222091E+02 0.  0.
         25    2    1    2    0    0 -0.85203733855E+02 -0.68506266388E+02  0.10955227269E+03  0.19900268249E+03  0.12509029695E+03 0.  0.
         24    2    1    2    0    0 -0.12301889279E+02  0.25359663993E+01  0.69100427944E+02  0.10515210521E+03  0.78258088932E+02 0.  0.
        -13    1    5    5    0    0  0.13618978038E+02  0.18295679673E+02 -0.64801844953E+01  0.23710783382E+02  0.00000000000E+00 0.  1.
         14    1    5    5    0    0 -0.25920867317E+02 -0.15759713273E+02  0.75580612439E+02  0.81441321831E+02  0.00000000000E+00 0. -1.
         11    1    3    3    0    0  0.37662359975E+02 -0.12497499941E+02 -0.10621731197E+03  0.11338764582E+03  0.00000000000E+00 0. -1.
        -12    1    3    3    0    0  0.59843263159E+02  0.78467799930E+02 -0.45792055886E+03  0.46843318627E+03  0.00000000000E+00 0.  1.
          5    1    4    4  501    0  0.90294798588E+01 -0.37530734847E+02 -0.13305818964E+02  0.41043937225E+02  0.41800000000E+01 0. -1.
         -5    1    4    4    0  501 -0.94233213714E+02 -0.30975531541E+02  0.12285809165E+03  0.15795874527E+03  0.41800000000E+01 0. -1.
</event>
<event>
11    1  0.6625361E-009  0.1295399E+03  0.7561462E-02  0.1119836E+00
         22   -1    0    0    0    0  0.00000000000E+00  0.00000000000E+00  0.13029974984E+03  0.13029974984E+03  0.00000000000E+00 0. -1.
         22   -1    0    0    0    0 -0.00000000000E+00 -0.00000000000E+00 -0.84140800645E+03  0.84140800645E+03  0.00000000000E+00 0.  1.
        -24    2    1    2    0    0  0.21707856630E+02  0.24705932793E+02 -0.68914353822E+03  0.69456451804E+03  0.80121403498E+02 0.  0.
         25    2    1    2    0    0 -0.52479780963E+02 -0.10815080522E+02 -0.93387420561E+02  0.16504526797E+03  0.12509051436E+03 0.  0.
         24    2    1    2    0    0  0.30771924333E+02 -0.13890852271E+02  0.71422702172E+02  0.11209797028E+03  0.79529148434E+02 0.  0.
        -13    1    5    5    0    0  0.45086965201E+02 -0.36296586698E+02  0.37379331004E+02  0.68902039326E+02  0.00000000000E+00 0.  1.
         14    1    5    5    0    0 -0.14315040868E+02  0.22405734427E+02  0.34043371168E+02  0.43195930951E+02  0.00000000000E+00 0. -1.
         11    1    3    3    0    0  0.35727106481E+02  0.18180966998E+02 -0.15196320342E+03  0.15716166483E+03  0.00000000000E+00 0. -1.
        -12    1    3    3    0    0 -0.14019249851E+02  0.65249657954E+01 -0.53718033480E+03  0.53740285321E+03  0.00000000000E+00 0.  1.
          5    1    4    4  501    0 -0.53369079799E+02  0.47394245856E+02 -0.75541744386E+02  0.10401202221E+03  0.41800000000E+01 0.  1.
         -5    1    4    4    0  501  0.88929883575E+00 -0.58209326377E+02 -0.17845676175E+02  0.61033245759E+02  0.41800000000E+01 0.  1.
</event>
<event>
11    1  0.6625361E-009  0.1690889E+03  0.7561462E-02  0.1078827E+00
         22   -1    0    0    0    0  0.00000000000E+00  0.00000000000E+00  0.32444505142E+03  0.32444505142E+03  0.00000000000E+00 0. -1.
         22   -1    0    0    0    0 -0.00000000000E+00 -0.00000000000E+00 -0.47587724758E+03  0.47587724758E+03  0.00000000000E+00 0. -1.
        -24    2    1    2    0    0  0.11938393729E+03  0.25303343712E+02 -0.34075893741E+03  0.37022493527E+03  0.77827151964E+02 0.  0.
         25    2    1    2    0    0 -0.86182136943E+02 -0.26575473663E+01 -0.61704262969E+02  0.16397799707E+03  0.12508774588E+03 0.  0.
         24    2    1    2    0    0 -0.33201800351E+02 -0.22645796346E+02  0.25103100422E+03  0.26611936666E+03  0.78662320019E+02 0.  0.
        -13    1    5    5    0    0 -0.57853388651E+01  0.18620525812E+02  0.14096572159E+02  0.24060496128E+02  0.00000000000E+00 0.  1.
         14    1    5    5    0    0 -0.27416461486E+02 -0.41266322158E+02  0.23693443206E+03  0.24205887053E+03  0.00000000000E+00 0. -1.
         11    1    3    3    0    0  0.92964664150E+02  0.22041050168E+02 -0.15154980667E+03  0.17915239484E+03  0.00000000000E+00 0. -1.
        -12    1    3    3    0    0  0.26419273143E+02  0.32622935441E+01 -0.18920913074E+03  0.19107254043E+03  0.00000000000E+00 0.  1.
          5    1    4    4  501    0  0.38878777410E+01  0.78429631595E+01  0.32045418118E+02  0.33481470798E+02  0.41800000000E+01 0.  1.
         -5    1    4    4    0  501 -0.90070014684E+02 -0.10500510526E+02 -0.93749681087E+02  0.13049652628E+03  0.41800000000E+01 0.  1.
</event>
<event>
11    1  0.6625361E-009  0.1513851E+03  0.7561462E-02  0.1095472E+00
         22   -1    0    0    0    0  0.00000000000E+00  0.00000000000E+00  0.14815778556E+03  0.14815778556E+03  0.00000000000E+00 0. -1.
         22   -1    0    0    0    0 -0.00000000000E+00 -0.00000000000E+00 -0.23029090752E+04  0.23029090752E+04  0.00000000000E+00 0. -1.
        -24    2    1    2    0    0  0.43254023458E+02  0.32366156137E+01 -0.19915885388E+04  0.19936325794E+04  0.79149021740E+02 0.  0.
         25    2    1    2    0    0 -0.31907581152E+02  0.82030526246E+02 -0.26226293955E+03  0.30359148402E+03  0.12505534271E+03 0.  0.
         24    2    1    2    0    0 -0.11346442305E+02 -0.85267141859E+02  0.99100188690E+02  0.15384279732E+03  0.80296523308E+02 0.  0.
        -11    1    5    5    0    0 -0.17475099880E+01  0.14293905090E+02  0.21773331717E+01  0.14564006785E+02  0.00000000000E+00 0.  1.
         12    1    5    5    0    0 -0.95989323175E+01 -0.99561046950E+02  0.96922855518E+02  0.13927879054E+03  0.00000000000E+00 0. -1.
         13    1    3    3    0    0  0.58975773997E+02  0.43095602275E+01 -0.18807562609E+04  0.18816856345E+04  0.00000000000E+00 0. -1.
        -14    1    3    3    0    0 -0.15721750539E+02 -0.10729446138E+01 -0.11083227787E+03  0.11194694488E+03  0.00000000000E+00 0.  1.
          5    1    4    4  501    0 -0.75532293753E+02  0.71377947735E+02 -0.14927886076E+03  0.18193842225E+03  0.41800000000E+01 0.  1.
         -5    1    4    4    0  501  0.43624712601E+02  0.10652578511E+02 -0.11298407879E+03  0.12165306177E+03  0.41800000000E+01 0.  1.
</event>
<event>
11    1  0.6625361E-009  0.2427127E+03  0.7561462E-02  0.1027854E+00
         22   -1    0    0    0    0  0.00000000000E+00  0.00000000000E+00  0.90112610415E+03  0.90112610415E+03  0.00000000000E+00 0.  1.
         22   -1    0    0    0    0 -0.00000000000E+00 -0.00000000000E+00 -0.38309586101E+03  0.38309586101E+03  0.00000000000E+00 0.  1.
        -24    2    1    2    0    0 -0.20304711348E+03  0.30840624450E+02 -0.29156823127E+03  0.36573806831E+03  0.81074205000E+02 0.  0.
         25    2    1    2    0    0  0.23479201507E+03 -0.18993225292E+01  0.30080604403E+03  0.40158156399E+03  0.12511026596E+03 0.  0.
         24    2    1    2    0    0 -0.31744901590E+02 -0.28941301921E+02  0.50879243038E+03  0.51690233285E+03  0.80454625458E+02 0.  0.
        -13    1    5    5    0    0 -0.44831684454E+02  0.10544779599E+02  0.33767635833E+03  0.34080257523E+03  0.00000000000E+00 0.  1.
         14    1    5    5    0    0  0.13086782864E+02 -0.39486081520E+02  0.17111607205E+03  0.17609975762E+03  0.00000000000E+00 0. -1.
         11    1    3    3    0    0 -0.41526987280E+01 -0.15033524743E+02 -0.12492652452E+02  0.19982946185E+02  0.00000000000E+00 0. -1.
        -12    1    3    3    0    0 -0.19889441475E+03  0.45874149193E+02 -0.27907557882E+03  0.34575512213E+03  0.00000000000E+00 0.  1.
          5    1    4    4  501    0  0.36611423498E+02  0.48540906058E+02  0.80425391084E+02  0.10090754096E+03  0.41800000000E+01 0.  1.
         -5    1    4    4    0  501  0.19818059157E+03 -0.50440228587E+02  0.22038065294E+03  0.30067402303E+03  0.41800000000E+01 0.  1.
</event>
<event>
11    1  0.6625361E-009  0.1350092E+03  0.7561462E-02  0.1113263E+00
         22   -1    0    0    0    0  0.00000000000E+00  0.00000000000E+00  0.13626701355E+04  0.13626701355E+04  0.00000000000E+00 0. -1.
         22   -1    0    0    0    0 -0.00000000000E+00 -0.00000000000E+00 -0.87350626450E+03  0.87350626450E+03  0.00000000000E+00 0. -1.
        -24    2    1    2    0    0 -0.49154378244E+02 -0.29887553137E+02 -0.64405457121E+03  0.65176371752E+03  0.81732698695E+02 0.  0.
         25    2    1    2    0    0  0.57416463107E+01  0.56714038045E+02 -0.20241443228E+03  0.24467968447E+03  0.12508835670E+03 0.  0.
         24    2    1    2    0    0  0.43412731934E+02 -0.26826484907E+02  0.13356328745E+04  0.13397329980E+04  0.91460401060E+02 0.  0.
        -11    1    5    5    0    0  0.71532222680E+02 -0.26938212134E+02  0.94069398585E+03  0.94379431084E+03  0.00000000000E+00 0.  1.
         12    1    5    5    0    0 -0.28119490746E+02  0.11172722632E+00  0.39493888866E+03  0.39593868719E+03  0.00000000000E+00 0. -1.
         13    1    3    3    0    0 -0.56915699962E+02 -0.27768391319E+01 -0.23782027478E+03  0.24455181626E+03  0.00000000000E+00 0. -1.
        -14    1    3    3    0    0  0.77613217182E+01 -0.27110714005E+02 -0.40623429643E+03  0.40721190126E+03  0.00000000000E+00 0.  1.
          5    1    4    4  501    0 -0.23969869268E+02 -0.29665868348E+02 -0.10143998418E+03  0.10845349772E+03  0.41800000000E+01 0. -1.
         -5    1    4    4    0  501  0.29711515578E+02  0.86379906393E+02 -0.10097444810E+03  0.13622618674E+03  0.41800000000E+01 0. -1.
</event>
<event>
11    1  0.6625361E-009  0.1494333E+03  0.7561462E-02  0.1097459E+00
         22   -1    0    0    0    0  0.00000000000E+00  0.00000000000E+00  0.14863436896E+04  0.14863436896E+04  0.00000000000E+00 0.  1.
         22   -1    0    0    0    0 -0.00000000000E+00 -0.00000000000E+00 -0.52740625164E+03  0.52740625164E+03  0.00000000000E+00 0.  1.
         24    2    1    2    0    0 -0.39083208849E+02 -0.74922133328E+02 -0.45926887478E+03  0.47305500058E+03  0.75579831666E+02 0.  0.
         25    2    1    2    0    0  0.57274185861E+02  0.24540338869E+02  0.22429266992E+02  0.14153835316E+03  0.12508985890E+03 0.  0.
        -24    2    1    2    0    0 -0.18190977011E+02  0.50381794460E+02  0.13957770458E+04  0.13991565875E+04  0.81094747172E+02 0.  0.
        -13    1    3    3    0    0  0.52312857078E+01  0.79074150585E+01 -0.13822729345E+03  0.13855207763E+03  0.00000000000E+00 0.  1.
         14    1    3    3    0    0 -0.44314494557E+02 -0.82829548387E+02 -0.32104158134E+03  0.33450292295E+03  0.00000000000E+00 0. -1.
         13    1    5    5    0    0 -0.95051662934E+00 -0.20031277880E+02  0.15946628605E+03  0.16072228209E+03  0.00000000000E+00 0. -1.
        -14    1    5    5    0    0 -0.17240460382E+02  0.70413072339E+02  0.12363107597E+04  0.12384343054E+04  0.00000000000E+00 0.  1.
          5    1    4    4  501    0  0.94799944969E+02  0.33957781009E+02  0.17879361787E+02  0.10235870473E+03  0.41800000000E+01 0. -1.
         -5    1    4    4    0  501 -0.37525759108E+02 -0.94174421401E+01  0.45499052058E+01  0.39179648422E+02  0.41800000000E+01 0. -1.
</event>
<event>
11    1  0.6625361E-009  0.1417334E+03  0.7561462E-02  0.1105638E+00
         22   -1    0    0    0    0  0.00000000000E+00  0.00000000000E+00  0.16585283549E+04  0.16585283549E+04  0.00000000000E+00 0.  1.
         22   -1    0    0    0    0 -0.00000000000E+00 -0.00000000000E+00 -0.29905456253E+03  0.29905456253E+03  0.00000000000E+00 0.  1.
        -24    2    1    2    0    0  0.28387964140E+02 -0.40866050991E+02 -0.26311383431E+03  0.27937799957E+03  0.79669732062E+02 0.  0.
         25    2    1    2    0    0 -0.74640075732E+02  0.83987593122E+02  0.24743702373E+03  0.29916056737E+03  0.12508759990E+03 0.  0.
         24    2    1    2    0    0  0.46252111593E+02 -0.43121542131E+02  0.13751506030E+04  0.13790443505E+04  0.82008625393E+02 0.  0.
        -13    1    5    5    0    0  0.40546367139E+02 -0.40668654777E+02  0.13693262242E+04  0.13705299178E+04  0.00000000000E+00 0.  1.
         14    1    5    5    0    0  0.57057444537E+01 -0.24528873540E+01  0.58243787725E+01  0.85144327014E+01  0.00000000000E+00 0. -1.
         13    1    3    3    0    0  0.17745105935E+02  0.20603025499E+02 -0.45568015496E+02  0.53064276878E+02  0.00000000000E+00 0. -1.
        -14    1    3    3    0    0  0.10642858205E+02 -0.61469076490E+02 -0.21754581881E+03  0.22631372269E+03  0.00000000000E+00 0.  1.
          5    1    4    4  501    0 -0.59432537558E+02  0.10315852786E+03  0.11912808737E+03  0.16847219945E+03  0.41800000000E+01 0.  1.
         -5    1    4    4    0  501 -0.15207538175E+02 -0.19170934733E+02  0.12830893637E+03  0.13068836791E+03  0.41800000000E+01 0.  1.
</event>
<event>
11    1  0.6625361E-009  0.1388093E+03  0.7561462E-02  0.1108895E+00
         22   -1    0    0    0    0  0.00000000000E+00  0.00000000000E+00  0.31791980578E+04  0.31791980578E+04  0.00000000000E+00 0. -1.
         22   -1    0    0    0    0 -0.00000000000E+00 -0.00000000000E+00 -0.85476494048E+02  0.85476494048E+02  0.00000000000E+00 0.  1.
         24    2    1    2    0    0 -0.10465781851E+01  0.46997422490E+01  0.27306779605E+02  0.87282099978E+02  0.82760629898E+02 0.  0.
         25    2    1    2    0    0  0.55469801019E+02 -0.30239375678E+02  0.35564260933E+02  0.14458123202E+03  0.12509035667E+03 0.  0.
        -24    2    1    2    0    0 -0.54423222833E+02  0.25539633429E+02  0.30308505232E+04  0.30328112199E+04  0.90966153647E+02 0.  0.
        -13    1    3    3    0    0  0.17641273322E+02 -0.34776048707E+02  0.96406735953E+01  0.40168777371E+02  0.00000000000E+00 0.  1.
         14    1    3    3    0    0 -0.18687851507E+02  0.39475790956E+02  0.17666106009E+02  0.47113322607E+02  0.00000000000E+00 0. -1.
         13    1    5    5    0    0 -0.39660594826E+01 -0.30206976558E+02  0.12547722169E+04  0.12551420268E+04  0.00000000000E+00 0. -1.
        -14    1    5    5    0    0 -0.50457163351E+02  0.55746609986E+02  0.17760783063E+04  0.17776691931E+04  0.00000000000E+00 0.  1.
          5    1    4    4  501    0 -0.39087956857E+02  0.57667048320E+00  0.13957994782E+01  0.39339821762E+02  0.41800000000E+01 0.  1.
         -5    1    4    4    0  501  0.94557757875E+02 -0.30816046161E+02  0.34168461455E+02  0.10524141026E+03  0.41800000000E+01 0.  1.
</event>
<event>
11    1  0.6625361E-009  0.1298900E+03  0.7561462E-02  0.1119404E+00
         22   -1    0    0    0    0  0.00000000000E+00  0.00000000000E+00  0.58138535883E+03  0.58138535883E+03  0.00000000000E+00 0. -1.
         22   -1    0    0    0    0 -0.00000000000E+00 -0.00000000000E+00 -0.79751398045E+03  0.79751398045E+03  0.00000000000E+00 0. -1.
        -24    2    1    2    0    0  0.32081253446E+02 -0.13358404485E+02 -0.62234306495E+03  0.62845977432E+03  0.80269194871E+02 0.  0.
         25    2    1    2    0    0 -0.24696586374E+02  0.34831684207E+02 -0.14329886103E+03  0.19494905292E+03  0.12508957613E+03 0.  0.
         24    2    1    2    0    0 -0.73846670716E+01 -0.21473279722E+02  0.54951330435E+03  0.55549051205E+03  0.78033340737E+02 0.  0.
        -11    1    5    5    0    0 -0.72415550450E+01  0.19190534333E+02  0.46337597185E+02  0.50674348938E+02  0.00000000000E+00 0.  1.
         12    1    5    5    0    0 -0.14311202657E+00 -0.40663814055E+02  0.50317570717E+03  0.50481616311E+03  0.00000000000E+00 0. -1.
         13    1    3    3    0    0  0.56304034796E+02 -0.17175269390E+02 -0.51490062598E+03  0.51825455989E+03  0.00000000000E+00 0. -1.
        -14    1    3    3    0    0 -0.24222781350E+02  0.38168649051E+01 -0.10744243897E+03  0.11020521443E+03  0.00000000000E+00 0.  1.
          5    1    4    4  501    0  0.32925487213E+02  0.29060716501E+02 -0.43149379851E+01  0.44324982138E+02  0.41800000000E+01 0.  1.
         -5    1    4    4    0  501 -0.57622073587E+02  0.57709677064E+01 -0.13898392304E+03  0.15062407078E+03  0.41800000000E+01 0.  1.
</event>
<event>
11    1  0.6625361E-009  0.1830631E+03  0.7561462E-02  0.1067192E+00
         22   -1    0    0    0    0  0.00000000000E+00  0.00000000000E+00  0.36397182185E+03  0.36397182185E+03  0.00000000000E+00 0. -1.
         22   -1    0    0    0    0 -0.00000000000E+00 -0.00000000000E+00 -0.55195504130E+03  0.55195504130E+03  0.00000000000E+00 0. -1.
        -24    2    1    2    0    0 -0.39679670507E+02  0.11916656315E+03 -0.33371862561E+03  0.36555929275E+03  0.80562580691E+02 0.  0.
         25    2    1    2    0    0  0.63871701965E+02 -0.14788019850E+03 -0.14249335936E+03  0.24878619134E+03  0.12506823786E+03 0.  0.
         24    2    1    2    0    0 -0.24192031458E+02  0.28713635351E+02  0.28822876553E+03  0.30158137906E+03  0.80410071997E+02 0.  0.
        -13    1    5    5    0    0 -0.15890876592E+01  0.25552776092E+02  0.20276597220E+02  0.32658995092E+02  0.00000000000E+00 0.  1.
         14    1    5    5    0    0 -0.22602943799E+02  0.31608592589E+01  0.26795216831E+03  0.26892238397E+03  0.00000000000E+00 0. -1.
         13    1    3    3    0    0 -0.33347769187E+02  0.52821932421E+02 -0.25440563688E+03  0.26196270408E+03  0.00000000000E+00 0. -1.
        -14    1    3    3    0    0 -0.63319013199E+01  0.66344630729E+02 -0.79312988736E+02  0.10359658867E+03  0.00000000000E+00 0.  1.
          5    1    4    4  501    0  0.60364113401E+01 -0.37441916111E+02 -0.11485277620E+03  0.12102465841E+03  0.41800000000E+01 0.  1.
         -5    1    4    4    0  501  0.57835290625E+02 -0.11043828239E+03 -0.27640583160E+02  0.12776153293E+03  0.41800000000E+01 0.  1.
</event>
<event>
11    1  0.7560699E-009  0.1760196E+03  0.7561462E-02  0.1072909E+00
         22   -1    0    0    0    0  0.00000000000E+00  0.00000000000E+00  0.17271853038E+03  0.17271853038E+03  0.00000000000E+00 0.  1.
         22   -1    0    0    0    0 -0.00000000000E+00 -0.00000000000E+00 -0.15971010573E+04  0.15971010573E+04  0.00000000000E+00 0.  1.
        -24    2    1    2    0    0 -0.21667984687E+01  0.28445520239E+02 -0.92897871173E+03  0.93285766249E+03  0.80050790012E+02 0.  0.
         25    2    1    2    0    0 -0.12101453783E+03 -0.13297130559E+02 -0.62065774388E+03  0.64473658071E+03  0.12509153215E+03 0.  0.
         24    2    1    2    0    0  0.12318133630E+03 -0.15148389681E+02  0.12525392871E+03  0.19222534447E+03  0.76543589391E+02 0.  0.
        -11    1    5    5    0    0  0.12790720755E+03 -0.91426066705E+01  0.13049729049E+03  0.18295732788E+03  0.00000000000E+00 0.  1.
         12    1    5    5    0    0 -0.47258712550E+01 -0.60057830101E+01 -0.52433617800E+01  0.92680165860E+01  0.00000000000E+00 0. -1.
         13    1    3    3    0    0  0.28537770450E+02  0.42447845358E+02 -0.53891467867E+03  0.54133654486E+03  0.00000000000E+00 0. -1.
        -14    1    3    3    0    0 -0.30704568919E+02 -0.14002325119E+02 -0.39006403306E+03  0.39152111763E+03  0.00000000000E+00 0.  1.
          5    1    4    4  501    0 -0.39086401794E+01  0.40433657572E+02 -0.22291658355E+03  0.22662619830E+03  0.41800000000E+01 0.  1.
         -5    1    4    4    0  501 -0.11710589765E+03 -0.53730788130E+02 -0.39774116033E+03  0.41811038241E+03  0.41800000000E+01 0.  1.
</event>
<event>
11    1  0.6625361E-009  0.1576453E+03  0.7561462E-02  0.1089313E+00
         22   -1    0    0    0    0  0.00000000000E+00  0.00000000000E+00  0.44943478847E+03  0.44943478847E+03  0.00000000000E+00 0. -1.
         22   -1    0    0    0    0 -0.00000000000E+00 -0.00000000000E+00 -0.24263125631E+03  0.24263125631E+03  0.00000000000E+00 0. -1.
        -24    2    1    2    0    0  0.42720386090E+02 -0.85831475102E+02 -0.17203210819E+03  0.21285244781E+03  0.80740601845E+02 0.  0.
         25    2    1    2    0    0 -0.81530366030E+02  0.66070962768E+02  0.13688061955E+03  0.21306364136E+03  0.12508892260E+03 0.  0.
         24    2    1    2    0    0  0.38809979940E+02  0.19760512334E+02  0.24195502080E+03  0.26614995560E+03  0.10196506454E+03 0.  0.
        -13    1    5    5    0    0  0.27209983170E+02  0.60808780838E+02  0.12474234817E+03  0.14141691709E+03  0.00000000000E+00 0.  1.
         14    1    5    5    0    0  0.11599996769E+02 -0.41048268504E+02  0.11721267263E+03  0.12473303851E+03  0.00000000000E+00 0. -1.
         11    1    3    3    0    0  0.37018631364E+02 -0.87426777876E+02 -0.17965592968E+03  0.20319959061E+03  0.00000000000E+00 0. -1.
        -12    1    3    3    0    0  0.57017547268E+01  0.15953027740E+01  0.76238214916E+01  0.96528571957E+01  0.00000000000E+00 0.  1.
          5    1    4    4  501    0 -0.18389987551E+02  0.90446610830E+02  0.98893895654E+02  0.13533756334E+03  0.41800000000E+01 0. -1.
         -5    1    4    4    0  501 -0.63140378479E+02 -0.24375648061E+02  0.37986723897E+02  0.77726078026E+02  0.41800000000E+01 0. -1.
</event>
<event>
11    1  0.6625361E-009  0.1279671E+03  0.7561462E-02  0.1121792E+00
         22   -1    0    0    0    0  0.00000000000E+00  0.00000000000E+00  0.14821234248E+04  0.14821234248E+04  0.00000000000E+00 0. -1.
         22   -1    0    0    0    0 -0.00000000000E+00 -0.00000000000E+00 -0.22771979201E+03  0.22771979201E+03  0.00000000000E+00 0. -1.
         24    2    1    2    0    0  0.22828032286E+02 -0.15570670953E+02 -0.20453633477E+03  0.22142601281E+03  0.80192281772E+02 0.  0.
         25    2    1    2    0    0 -0.50780071826E+01  0.54970183415E-01  0.28267809342E+03  0.30916043580E+03  0.12508989323E+03 0.  0.
        -24    2    1    2    0    0 -0.17750025104E+02  0.15515700769E+02  0.11762618742E+04  0.11792567682E+04  0.80614691246E+02 0.  0.
        -13    1    3    3    0    0  0.23141294536E+02  0.29972838840E+02 -0.73156159150E+02  0.82375446600E+02  0.00000000000E+00 0.  1.
         14    1    3    3    0    0 -0.31326224971E+00 -0.45543509793E+02 -0.13138017561E+03  0.13905056621E+03  0.00000000000E+00 0. -1.
         13    1    5    5    0    0 -0.21074856119E+02  0.46219244387E+02  0.85718214418E+03  0.85868597078E+03  0.00000000000E+00 0. -1.
        -14    1    5    5    0    0  0.33248310156E+01 -0.30703543618E+02  0.31907973000E+03  0.32057079746E+03  0.00000000000E+00 0.  1.
          5    1    4    4  501    0  0.17143813752E+02  0.51496965873E+02  0.67232353326E+02  0.86507280490E+02  0.41800000000E+01 0.  1.
         -5    1    4    4    0  501 -0.22221820935E+02 -0.51441995689E+02  0.21544574009E+03  0.22265315531E+03  0.41800000000E+01 0.  1.
</event>
<event>
11    1  0.6625361E-009  0.1544456E+03  0.7561462E-02  0.1092421E+00
         22   -1    0    0    0    0  0.00000000000E+00  0.00000000000E+00  0.99337605380E+02  0.99337605380E+02  0.00000000000E+00 0. -1.
         22   -1    0    0    0    0 -0.00000000000E+00 -0.00000000000E+00 -0.77672659195E+03  0.77672659195E+03  0.00000000000E+00 0. -1.
         24    2    1    2    0    0  0.93119736615E+02  0.14952737960E+02 -0.48040613074E+03  0.49643762989E+03  0.82252052832E+02 0.  0.
         25    2    1    2    0    0 -0.59835451685E+02 -0.80796139887E+02 -0.21620405797E+03  0.26925727452E+03  0.12508791987E+03 0.  0.
        -24    2    1    2    0    0 -0.33284284930E+02  0.65843401926E+02  0.19221202148E+02  0.11036929292E+03  0.79804316973E+02 0.  0.
        -13    1    3    3    0    0 -0.14292334884E+02 -0.97419040211E+00 -0.31817838759E+02  0.34894050305E+02  0.00000000000E+00 0.  1.
         14    1    3    3    0    0  0.10741207150E+03  0.15926928363E+02 -0.44858829199E+03  0.46154357959E+03  0.00000000000E+00 0. -1.
         13    1    5    5    0    0  0.19697134411E+02  0.45664283683E+02  0.20173205556E+02  0.53667142002E+02  0.00000000000E+00 0. -1.
        -14    1    5    5    0    0 -0.52981419341E+02  0.20179118244E+02 -0.95200340708E+00  0.56702150920E+02  0.00000000000E+00 0.  1.
          5    1    4    4  501    0 -0.94340385047E+01 -0.10419452064E+03 -0.13771246844E+03  0.17299622996E+03  0.41800000000E+01 0.  1.
         -5    1    4    4    0  501 -0.50401413180E+02  0.23398380758E+02 -0.78491589531E+02  0.96261044560E+02  0.41800000000E+01 0.  1.
</event>
<event>
11    1  0.6625361E-009  0.1339079E+03  0.7561462E-02  0.1114559E+00
         22   -1    0    0    0    0  0.00000000000E+00  0.00000000000E+00  0.20546615532E+03  0.20546615532E+03  0.00000000000E+00 0.  1.
         22   -1    0    0    0    0 -0.00000000000E+00 -0.00000000000E+00 -0.56251083036E+03  0.56251083036E+03  0.00000000000E+00 0. -1.
        -24    2    1    2    0    0  0.37104478566E+02 -0.29792190284E+02 -0.49674059063E+03  0.50458876479E+03  0.74794988078E+02 0.  0.
         25    2    1    2    0    0 -0.30506732896E+02  0.49794260597E+02  0.10491851949E+03  0.17339388135E+03  0.12508962074E+03 0.  0.
         24    2    1    2    0    0 -0.65977456696E+01 -0.20002070313E+02  0.34777396107E+02  0.89994339539E+02  0.80286367488E+02 0.  0.
        -13    1    5    5    0    0 -0.18853156071E+02 -0.48097203122E+02  0.16147548130E+02  0.54125093558E+02  0.00000000000E+00 0.  1.
         14    1    5    5    0    0  0.12255410402E+02  0.28095132809E+02  0.18629847977E+02  0.35869245982E+02  0.00000000000E+00 0. -1.
         11    1    3    3    0    0  0.55781530383E+02 -0.80352947572E+01 -0.25499686805E+03  0.26115043138E+03  0.00000000000E+00 0. -1.
        -12    1    3    3    0    0 -0.18677051818E+02 -0.21756895527E+02 -0.24174372258E+03  0.24343833341E+03  0.00000000000E+00 0.  1.
          5    1    4    4  501    0  0.18238145261E+02 -0.79214953733E+01  0.94925123492E+02  0.97075390813E+02  0.41800000000E+01 0. -1.
         -5    1    4    4    0  501 -0.48744878157E+02  0.57715755970E+02  0.99933959987E+01  0.76318490534E+02  0.41800000000E+01 0. -1.
</event>
<event>
11    1  0.6625361E-009  0.1593439E+03  0.7561462E-02  0.1087696E+00
         22   -1    0    0    0    0  0.00000000000E+00  0.00000000000E+00  0.20342156006E+03  0.20342156006E+03  0.00000000000E+00 0.  1.
         22   -1    0    0    0    0 -0.00000000000E+00 -0.00000000000E+00 -0.49980710980E+03  0.49980710980E+03  0.00000000000E+00 0. -1.
         24    2    1    2    0    0  0.11299558916E+02  0.36203476679E+01 -0.39058240050E+03  0.39803251311E+03  0.75726369026E+02 0.  0.
         25    2    1    2    0    0  0.26138991882E+02  0.90471546888E+02  0.19900132867E+02  0.15783515038E+03  0.12509025427E+03 0.  0.
        -24    2    1    2    0    0 -0.37438550799E+02 -0.94091894556E+02  0.74296717886E+02  0.14736100637E+03  0.77073563587E+02 0.  0.
        -13    1    3    3    0    0  0.30082085884E+02  0.85407473173E+01 -0.67770691762E+02  0.74637409641E+02  0.00000000000E+00 0.  1.
         14    1    3    3    0    0 -0.18782526968E+02 -0.49203996494E+01 -0.32281170873E+03  0.32339510347E+03  0.00000000000E+00 0. -1.
         13    1    5    5    0    0 -0.40452517827E+02 -0.27025814071E+02  0.19850787425E+01  0.48690259420E+02  0.00000000000E+00 0. -1.
        -14    1    5    5    0    0  0.30139670288E+01 -0.67066080485E+02  0.72311639143E+02  0.98670746954E+02  0.00000000000E+00 0.  1.
          5    1    4    4  501    0 -0.29142055538E+02 -0.10270544825E+02 -0.18918316923E+02  0.36470791151E+02  0.41800000000E+01 0. -1.
         -5    1    4    4    0  501  0.55281047420E+02  0.10074209171E+03  0.38818449790E+02  0.12136435923E+03  0.41800000000E+01 0. -1.
</event>
<event>
11    1  0.6625361E-009  0.1702739E+03  0.7561462E-02  0.1077794E+00
         22   -1    0    0    0    0  0.00000000000E+00  0.00000000000E+00  0.29946865025E+03  0.29946865025E+03  0.00000000000E+00 0.  1.
         22   -1    0    0    0    0 -0.00000000000E+00 -0.00000000000E+00 -0.30903458042E+03  0.30903458042E+03  0.00000000000E+00 0.  1.
        -24    2    1    2    0    0 -0.26354513865E+02  0.12889789550E+02 -0.18648307193E+03  0.20442116832E+03  0.78430675523E+02 0.  0.
         25    2    1    2    0    0 -0.60664476238E+02 -0.92127419145E+02 -0.11290377789E+02  0.16716259912E+03  0.12509285302E+03 0.  0.
         24    2    1    2    0    0  0.87018990102E+02  0.79237629595E+02  0.18820751955E+03  0.23691946324E+03  0.82812167357E+02 0.  0.
        -13    1    5    5    0    0  0.93333760410E+02  0.57412271902E+02  0.10916003469E+03  0.15467150019E+03  0.00000000000E+00 0.  1.
         14    1    5    5    0    0 -0.63147703078E+01  0.21825357693E+02  0.79047484864E+02  0.82247963050E+02  0.00000000000E+00 0. -1.
         11    1    3    3    0    0 -0.17912709973E+02  0.16477505643E+02 -0.78797894937E+01  0.25582502873E+02  0.00000000000E+00 0. -1.
        -12    1    3    3    0    0 -0.84418038921E+01 -0.35877160930E+01 -0.17860328244E+03  0.17883866545E+03  0.00000000000E+00 0.  1.
          5    1    4    4  501    0 -0.35832014925E+02 -0.23374774724E+01  0.45395552720E+02  0.58031247628E+02  0.41800000000E+01 0. -1.
         -5    1    4    4    0  501 -0.24832461313E+02 -0.89789941673E+02 -0.56685930509E+02  0.10913135149E+03  0.41800000000E+01 0. -1.
</event>
<event>
11    1  0.6625361E-009  0.1282619E+03  0.7561462E-02  0.1121423E+00
         22   -1    0    0    0    0  0.00000000000E+00  0.00000000000E+00  0.15359898202E+03  0.15359898202E+03  0.00000000000E+00 0.  1.
         22   -1    0    0    0    0 -0.00000000000E+00 -0.00000000000E+00 -0.25686447976E+04  0.25686447976E+04  0.00000000000E+00 0. -1.
        -24    2    1    2    0    0 -0.21916033135E+02  0.17229286929E+02 -0.22699369336E+04  0.22715788261E+04  0.81728330460E+02 0.  0.
         25    2    1    2    0    0  0.42986839023E+01  0.65916967942E+01 -0.26980235146E+03  0.29749439901E+03  0.12509068486E+03 0.  0.
         24    2    1    2    0    0  0.17617349233E+02 -0.23820983723E+02  0.12469346945E+03  0.15317055450E+03  0.83874592000E+02 0.  0.
        -11    1    5    5    0    0  0.25238964479E+02 -0.67888192737E+01  0.13091698768E+03  0.13350037850E+03  0.00000000000E+00 0.  1.
         12    1    5    5    0    0 -0.76216152461E+01 -0.17032164449E+02 -0.62235182331E+01  0.19670176003E+02  0.00000000000E+00 0. -1.
         11    1    3    3    0    0 -0.25555154727E+02 -0.18305624469E+02 -0.18042822194E+04  0.18045560365E+04  0.00000000000E+00 0. -1.
        -12    1    3    3    0    0  0.36391215919E+01  0.35534911398E+02 -0.46565471420E+03  0.46702278958E+03  0.00000000000E+00 0.  1.
          5    1    4    4  501    0  0.57712180287E+02  0.31910802999E+02 -0.14268355034E+03  0.15724205239E+03  0.41800000000E+01 0.  1.
         -5    1    4    4    0  501 -0.53413496385E+02 -0.25319106205E+02 -0.12711880112E+03  0.14025234663E+03  0.41800000000E+01 0.  1.
</event>
<event>
11    1  0.6625361E-009  0.1321983E+03  0.7561462E-02  0.1116597E+00
         22   -1    0    0    0    0  0.00000000000E+00  0.00000000000E+00  0.15850125462E+04  0.15850125462E+04  0.00000000000E+00 0.  1.
         22   -1    0    0    0    0 -0.00000000000E+00 -0.00000000000E+00 -0.26967903996E+03  0.26967903996E+03  0.00000000000E+00 0.  1.
         24    2    1    2    0    0 -0.21368160617E+02 -0.37565466388E+02 -0.24347399559E+03  0.26037076861E+03  0.81520476341E+02 0.  0.
         25    2    1    2    0    0  0.28547066205E+02  0.17206190869E+02  0.23815128683E+03  0.27106168548E+03  0.12508962356E+03 0.  0.
        -24    2    1    2    0    0 -0.71789055872E+01  0.20359275520E+02  0.13206562150E+04  0.13232591320E+04  0.80099036247E+02 0.  0.
        -11    1    3    3    0    0 -0.34723065603E+02 -0.52558288050E+02 -0.22287190619E+03  0.23160300407E+03  0.00000000000E+00 0.  1.
         12    1    3    3    0    0  0.13354904986E+02  0.14992821662E+02 -0.20602089404E+02  0.28767764536E+02  0.00000000000E+00 0. -1.
         13    1    5    5    0    0  0.30154350542E+01  0.46538270651E+01  0.49908299792E+01  0.74605186683E+01  0.00000000000E+00 0. -1.
        -14    1    5    5    0    0 -0.10194340641E+02  0.15705448454E+02  0.13156653850E+04  0.13157986134E+04  0.00000000000E+00 0.  1.
          5    1    4    4  501    0  0.58424235391E+02 -0.34933531518E+02  0.10942655451E+03  0.12893946695E+03  0.41800000000E+01 0.  1.
         -5    1    4    4    0  501 -0.29877169186E+02  0.52139722386E+02  0.12872473232E+03  0.14212221853E+03  0.41800000000E+01 0.  1.
</event>
<event>
11    1  0.6625361E-009  0.1537303E+03  0.7561462E-02  0.1093127E+00
         22   -1    0    0    0    0  0.00000000000E+00  0.00000000000E+00  0.24127121071E+03  0.24127121071E+03  0.00000000000E+00 0. -1.
         22   -1    0    0    0    0 -0.00000000000E+00 -0.00000000000E+00 -0.11501914961E+04  0.11501914961E+04  0.00000000000E+00 0. -1.
        -24    2    1    2    0    0  0.85937966482E+02 -0.29319051879E+02 -0.10584065566E+04  0.10656237875E+04  0.84170520459E+02 0.  0.
         25    2    1    2    0    0 -0.59925961135E+02  0.22398861991E+02 -0.14444804137E+02  0.14124474295E+03  0.12509434522E+03 0.  0.
         24    2    1    2    0    0 -0.26012005347E+02  0.69201898877E+01  0.16393107536E+03  0.18459417637E+03  0.80480426370E+02 0.  0.
        -13    1    5    5    0    0 -0.54749218540E+01 -0.36398279572E+02  0.66478353864E+02  0.75988032332E+02  0.00000000000E+00 0.  1.
         14    1    5    5    0    0 -0.20537083493E+02  0.43318469460E+02  0.97452721497E+02  0.10860614403E+03  0.00000000000E+00 0. -1.
         13    1    3    3    0    0  0.93987880339E+02 -0.46466058050E+02 -0.88880975677E+03  0.89497240178E+03  0.00000000000E+00 0. -1.
        -14    1    3    3    0    0 -0.80499138574E+01  0.17147006172E+02 -0.16959679979E+03  0.17065138568E+03  0.00000000000E+00 0.  1.
          5    1    4    4  501    0 -0.63067081163E+02 -0.26638941880E+02 -0.46101038328E+02  0.82643015953E+02  0.41800000000E+01 0.  1.
         -5    1    4    4    0  501  0.31411200282E+01  0.49037803871E+02  0.31656234191E+02  0.58601726994E+02  0.41800000000E+01 0.  1.
</event>
<event>
11    1  0.6625361E-009  0.1680280E+03  0.7561462E-02  0.1079761E+00
         22   -1    0    0    0    0  0.00000000000E+00  0.00000000000E+00  0.32695254644E+03  0.32695254644E+03  0.00000000000E+00 0. -1.
         22   -1    0    0    0    0 -0.00000000000E+00 -0.00000000000E+00 -0.57355299543E+03  0.57355299543E+03  0.00000000000E+00 0. -1.
         24    2    1    2    0    0 -0.42474673556E+02 -0.92326250351E+02 -0.46668048232E+03  0.48425019336E+03  0.79870788118E+02 0.  0.
         25    2    1    2    0    0  0.12366746397E+03  0.48465866566E+01  0.31201940056E+02  0.17871657138E+03  0.12509564651E+03 0.  0.
        -24    2    1    2    0    0 -0.81192790414E+02  0.87479663694E+02  0.18887809328E+03  0.23753877712E+03  0.80652189940E+02 0.  0.
        -13    1    3    3    0    0  0.15468275203E+02 -0.11593981063E+02 -0.25402457764E+02  0.31921353278E+02  0.00000000000E+00 0.  1.
         14    1    3    3    0    0 -0.57942948759E+02 -0.80732269288E+02 -0.44127802456E+03  0.45232884008E+03  0.00000000000E+00 0. -1.
         13    1    5    5    0    0 -0.92544625194E+02  0.55082973085E+02  0.15893329576E+03  0.19198550486E+03  0.00000000000E+00 0. -1.
        -14    1    5    5    0    0  0.11351834781E+02  0.32396690610E+02  0.29944797517E+02  0.45553272261E+02  0.00000000000E+00 0.  1.
          5    1    4    4  501    0 -0.35553926535E+01  0.40743965315E+02  0.20739981927E+02  0.46047049600E+02  0.41800000000E+01 0. -1.
         -5    1    4    4    0  501  0.12722285662E+03 -0.35897378659E+02  0.10461958128E+02  0.13266952178E+03  0.41800000000E+01 0. -1.
</event>
<event>
11    1  0.6625361E-009  0.1411609E+03  0.7561462E-02  0.1106269E+00
         22   -1    0    0    0    0  0.00000000000E+00  0.00000000000E+00  0.65431615662E+03  0.65431615662E+03  0.00000000000E+00 0.  1.
         22   -1    0    0    0    0 -0.00000000000E+00 -0.00000000000E+00 -0.54682011123E+02  0.54682011123E+02  0.00000000000E+00 0.  1.
        -24    2    1    2    0    0  0.52681987459E+02 -0.43912666931E+02  0.13355916226E+03  0.17025780946E+03  0.80286722066E+02 0.  0.
         25    2    1    2    0    0  0.26489280184E+02  0.37076644517E+02  0.13908311049E+03  0.19253054092E+03  0.12509011962E+03 0.  0.
         24    2    1    2    0    0 -0.79171267644E+02  0.68360224139E+01  0.32699187274E+03  0.34620981736E+03  0.81380169418E+02 0.  0.
        -13    1    5    5    0    0 -0.87962501492E+02  0.26758845727E+02  0.26716228899E+03  0.28254048587E+03  0.00000000000E+00 0.  1.
         14    1    5    5    0    0  0.87912338484E+01 -0.19922823313E+02  0.59829583747E+02  0.63669331493E+02  0.00000000000E+00 0. -1.
         13    1    3    3    0    0 -0.18011180247E+02 -0.27616896858E+02  0.44718557025E+02  0.55559382181E+02  0.00000000000E+00 0. -1.
        -14    1    3    3    0    0  0.70693167706E+02 -0.16295770073E+02  0.88840605235E+02  0.11469842728E+03  0.00000000000E+00 0.  1.
          5    1    4    4  501    0 -0.31239061687E+02  0.28150909192E+02  0.12548399301E+03  0.13240867632E+03  0.41800000000E+01 0.  1.
         -5    1    4    4    0  501  0.57728341871E+02  0.89257353248E+01  0.13599117486E+02  0.60121864598E+02  0.41800000000E+01 0.  1.
</event>
<event>
11    1  0.6625361E-009  0.2295540E+03  0.7561462E-02  0.1035392E+00
         22   -1    0    0    0    0  0.00000000000E+00  0.00000000000E+00  0.54651961604E+03  0.54651961604E+03  0.00000000000E+00 0.  1.
         22   -1    0    0    0    0 -0.00000000000E+00 -0.00000000000E+00 -0.33881739979E+03  0.33881739979E+03  0.00000000000E+00 0.  1.
         24    2    1    2    0    0  0.36780447963E+01 -0.19072061548E+03 -0.10744029927E+03  0.23272903718E+03  0.78939886341E+02 0.  0.
         25    2    1    2    0    0 -0.89826638368E+02  0.18531879517E+03 -0.69172834293E+02  0.25068713931E+03  0.12508908828E+03 0.  0.
        -24    2    1    2    0    0  0.86148593571E+02  0.54018203066E+01  0.38431534981E+03  0.40192083934E+03  0.79945688806E+02 0.  0.
        -11    1    3    3    0    0  0.22625187222E+02 -0.17823888352E+03 -0.10872273699E+03  0.21000388624E+03  0.00000000000E+00 0.  1.
         12    1    3    3    0    0 -0.18947142426E+02 -0.12481731957E+02  0.12824377190E+01  0.22725150940E+02  0.00000000000E+00 0. -1.
         11    1    5    5    0    0  0.23165509335E+02  0.39508200587E+02  0.16227582082E+03  0.16861488890E+03  0.00000000000E+00 0. -1.
        -12    1    5    5    0    0  0.62983084237E+02 -0.34106380280E+02  0.22203952899E+03  0.23330595044E+03  0.00000000000E+00 0.  1.
          5    1    4    4  501    0 -0.88205577789E+02  0.14041830886E+03  0.26130150487E+01  0.16589703332E+03  0.41800000000E+01 0.  1.
         -5    1    4    4    0  501 -0.16210605782E+01  0.44900486314E+02 -0.71785849341E+02  0.84790105993E+02  0.41800000000E+01 0.  1.
</event>
<event>
11    1  0.6625361E-009  0.1700191E+03  0.7561462E-02  0.1078015E+00
         22   -1    0    0    0    0  0.00000000000E+00  0.00000000000E+00  0.24403598921E+04  0.24403598921E+04  0.00000000000E+00 0. -1.
         22   -1    0    0    0    0 -0.00000000000E+00 -0.00000000000E+00 -0.36996370788E+03  0.36996370788E+03  0.00000000000E+00 0.  1.
        -24    2    1    2    0    0  0.67450598970E+02  0.69152156836E+02 -0.33820800891E+03  0.36103627586E+03  0.81430529311E+02 0.  0.
         25    2    1    2    0    0 -0.12005128239E+02 -0.16553322859E+03  0.59025321833E+03  0.62577545113E+03  0.12510268029E+03 0.  0.
         24    2    1    2    0    0 -0.55445470731E+02  0.96381071756E+02  0.18183509748E+04  0.18235118730E+04  0.80198330077E+02 0.  0.
        -11    1    5    5    0    0 -0.33962236217E+02 -0.93974433990E-01  0.29293723199E+03  0.29489941371E+03  0.00000000000E+00 0.  1.
         12    1    5    5    0    0 -0.21483234514E+02  0.96475046190E+02  0.15254137428E+04  0.15286124593E+04  0.00000000000E+00 0. -1.
         11    1    3    3    0    0  0.27440972401E+02 -0.12423140094E+02 -0.13688660132E+03  0.14016163169E+03  0.00000000000E+00 0. -1.
        -12    1    3    3    0    0  0.40009626569E+02  0.81575296930E+02 -0.20132140759E+03  0.22087464418E+03  0.00000000000E+00 0.  1.
          5    1    4    4  501    0  0.10263281873E+02 -0.14305932573E+02  0.22752745797E+01  0.18238528888E+02  0.41800000000E+01 0.  1.
         -5    1    4    4    0  501 -0.22268410113E+02 -0.15122729602E+03  0.58797794375E+03  0.60753692224E+03  0.41800000000E+01 0.  1.
</event>
<event>
11    1  0.6625361E-009  0.1613199E+03  0.7561462E-02  0.1085842E+00
         22   -1    0    0    0    0  0.00000000000E+00  0.00000000000E+00  0.14766667901E+04  0.14766667901E+04  0.00000000000E+00 0.  1.
         22   -1    0    0    0    0 -0.00000000000E+00 -0.00000000000E+00 -0.77530904585E+03  0.77530904585E+03  0.00000000000E+00 0. -1.
        -24    2    1    2    0    0 -0.23337531928E+02 -0.17219053004E+02 -0.65076964374E+03  0.65633152220E+03  0.80179808138E+02 0.  0.
         25    2    1    2    0    0 -0.49418169279E+02 -0.55071617522E+02 -0.74323957667E+02  0.16323980981E+03  0.12509255099E+03 0.  0.
         24    2    1    2    0    0  0.72755701207E+02  0.72290670526E+02  0.14264513457E+04  0.14324045040E+04  0.80621884588E+02 0.  0.
        -13    1    5    5    0    0  0.62673550798E+02  0.10243549180E+02  0.89459975217E+03  0.89685094685E+03  0.00000000000E+00 0.  1.
         14    1    5    5    0    0  0.10082150410E+02  0.62047121346E+02  0.53185159350E+03  0.53555355711E+03  0.00000000000E+00 0. -1.
         11    1    3    3    0    0 -0.86868227653E+01 -0.47815364243E+02 -0.46091949874E+03  0.46347443755E+03  0.00000000000E+00 0. -1.
        -12    1    3    3    0    0 -0.14650709163E+02  0.30596311239E+02 -0.18985014501E+03  0.19285708465E+03  0.00000000000E+00 0.  1.
          5    1    4    4  501    0  0.37151206033E+02 -0.15869457736E+02 -0.51187370440E+02  0.65342720261E+02  0.41800000000E+01 0.  1.
         -5    1    4    4    0  501 -0.86569375311E+02 -0.39202159786E+02 -0.23136587227E+02  0.97897089549E+02  0.41800000000E+01 0.  1.
</event>
<event>
11    1  0.6625361E-009  0.1533010E+03  0.7561462E-02  0.1093553E+00
         22   -1    0    0    0    0  0.00000000000E+00  0.00000000000E+00  0.36005293362E+03  0.36005293362E+03  0.00000000000E+00 0. -1.
         22   -1    0    0    0    0 -0.00000000000E+00 -0.00000000000E+00 -0.37450067788E+03  0.37450067788E+03  0.00000000000E+00 0.  1.
         24    2    1    2    0    0 -0.14730793463E+02  0.44433823622E+02 -0.23150217469E+03  0.24956316373E+03  0.80604930684E+02 0.  0.
         25    2    1    2    0    0  0.16271696958E+02  0.48044010991E+02 -0.84925174173E+02  0.15947698012E+03  0.12509047472E+03 0.  0.
        -24    2    1    2    0    0 -0.15409034945E+01 -0.92477834613E+02  0.30197960460E+03  0.32551346765E+03  0.78821391448E+02 0.  0.
        -13    1    3    3    0    0 -0.16522954638E+01  0.20434537198E+02 -0.21820976438E+03  0.21917071351E+03  0.00000000000E+00 0.  1.
         14    1    3    3    0    0 -0.13078498000E+02  0.23999286424E+02 -0.13292410309E+02  0.30392450224E+02  0.00000000000E+00 0. -1.
         13    1    5    5    0    0  0.85814854565E+01 -0.50456341502E+02  0.26093491344E+03  0.26590696369E+03  0.00000000000E+00 0. -1.
        -14    1    5    5    0    0 -0.10122388951E+02 -0.42021493111E+02  0.41044691161E+02  0.59606503956E+02  0.00000000000E+00 0.  1.
          5    1    4    4  501    0 -0.31015935200E+01  0.82769214815E+02 -0.23522583300E+02  0.86204101576E+02  0.41800000000E+01 0. -1.
         -5    1    4    4    0  501  0.19373290478E+02 -0.34725203824E+02 -0.61402590873E+02  0.73272878546E+02  0.41800000000E+01 0. -1.
</event>
<event>
11    1  0.6625361E-009  0.1604603E+03  0.7561462E-02  0.1086645E+00
         22   -1    0    0    0    0  0.00000000000E+00  0.00000000000E+00  0.36695917931E+03  0.36695917931E+03  0.00000000000E+00 0. -1.
         22   -1    0    0    0    0 -0.00000000000E+00 -0.00000000000E+00 -0.90076271328E+03  0.90076271328E+03  0.00000000000E+00 0.  1.
         24    2    1    2    0    0 -0.37850402377E+02 -0.94975044287E+02 -0.81835112896E+03  0.82842754666E+03  0.78362732184E+02 0.  0.
         25    2    1    2    0    0  0.27094567508E+02  0.69617282321E+02  0.34735804469E+01  0.14574126098E+03  0.12509103807E+03 0.  0.
        -24    2    1    2    0    0  0.10755834869E+02  0.25357761966E+02  0.28107401455E+03  0.29355308495E+03  0.80075638952E+02 0.  0.
        -11    1    3    3    0    0 -0.40420997588E+02 -0.92634440401E+02 -0.81871697305E+03  0.82493180237E+03  0.00000000000E+00 0.  1.
         12    1    3    3    0    0  0.25705952114E+01 -0.23406038854E+01  0.36584408643E+00  0.34957442962E+01  0.00000000000E+00 0. -1.
         13    1    5    5    0    0  0.23481514080E+02 -0.10870273134E+02  0.21927485995E+03  0.22079630555E+03  0.00000000000E+00 0. -1.
        -14    1    5    5    0    0 -0.12725679211E+02  0.36228035100E+02  0.61799154603E+02  0.72756779397E+02  0.00000000000E+00 0.  1.
          5    1    4    4  501    0  0.57294706823E+02 -0.10764876067E+02  0.10887635351E+02  0.59452325356E+02  0.41800000000E+01 0. -1.
         -5    1    4    4    0  501 -0.30200139315E+02  0.80382158388E+02 -0.74140549043E+01  0.86288935628E+02  0.41800000000E+01 0. -1.
</event>
<event>
11    1  0.6625361E-009  0.1901851E+03  0.7561462E-02  0.1061690E+00
         22   -1    0    0    0    0  0.00000000000E+00  0.00000000000E+00  0.12883198497E+04  0.12883198497E+04  0.00000000000E+00 0.  1.
         22   -1    0    0    0    0 -0.00000000000E+00 -0.00000000000E+00 -0.12817027264E+04  0.12817027264E+04  0.00000000000E+00 0. -1.
        -24    2    1    2    0    0  0.90784010611E+02  0.11335529109E+03 -0.12238830417E+04  0.12352738572E+04  0.83190408154E+02 0.  0.
         25    2    1    2    0    0 -0.82638584194E+02 -0.59704209557E+02  0.80065865756E+02  0.18014007736E+03  0.12508467683E+03 0.  0.
         24    2    1    2    0    0 -0.81454264173E+01 -0.53651081530E+02  0.11504342993E+04  0.11546086415E+04  0.81714451935E+02 0.  0.
        -13    1    5    5    0    0  0.65784724239E+01 -0.35039034994E+02  0.10736228001E+04  0.10742145630E+04  0.00000000000E+00 0.  1.
         14    1    5    5    0    0 -0.14723898841E+02 -0.18612046537E+02  0.76811499131E+02  0.80394078589E+02  0.00000000000E+00 0. -1.
         11    1    3    3    0    0  0.62939103805E+02  0.10395447096E+03 -0.11386468663E+04  0.11451133346E+04  0.00000000000E+00 0. -1.
        -12    1    3    3    0    0  0.27844906806E+02  0.94008201301E+01 -0.85236175314E+02  0.90160522605E+02  0.00000000000E+00 0.  1.
          5    1    4    4  501    0 -0.33843652052E+01  0.30393776334E+02  0.45886779972E+02  0.55301939784E+02  0.41800000000E+01 0.  1.
         -5    1    4    4    0  501 -0.79254218988E+02 -0.90097985891E+02  0.34179085784E+02  0.12483813758E+03  0.41800000000E+01 0.  1.
</event>
<event>
11    1  0.6625361E-009  0.1569449E+03  0.7561462E-02  0.1089986E+00
         22   -1    0    0    0    0  0.00000000000E+00  0.00000000000E+00  0.46677155249E+03  0.46677155249E+03  0.00000000000E+00 0. -1.
         22   -1    0    0    0    0 -0.00000000000E+00 -0.00000000000E+00 -0.20815774398E+03  0.20815774398E+03  0.00000000000E+00 0. -1.
        -24    2    1    2    0    0 -0.52869185536E+02 -0.67202330049E+02 -0.10948219987E+03  0.15907820365E+03  0.77512701182E+02 0.  0.
         25    2    1    2    0    0  0.11642523803E+03  0.10178140409E+03  0.91371180052E+02  0.21890012098E+03  0.12511706579E+03 0.  0.
         24    2    1    2    0    0 -0.63556052498E+02 -0.34579074038E+02  0.27672482833E+03  0.29695097184E+03  0.79800782526E+02 0.  0.
        -11    1    5    5    0    0 -0.23387494261E+02 -0.23821615831E+02  0.24723020325E+02  0.41541208487E+02  0.00000000000E+00 0.  1.
         12    1    5    5    0    0 -0.40168558237E+02 -0.10757458207E+02  0.25200180800E+03  0.25540976335E+03  0.00000000000E+00 0. -1.
         13    1    3    3    0    0 -0.31348772888E+02 -0.60368278325E+02 -0.11695184795E+03  0.13529526721E+03  0.00000000000E+00 0. -1.
        -14    1    3    3    0    0 -0.21520412648E+02 -0.68340517241E+01  0.74696480773E+01  0.23782936444E+02  0.00000000000E+00 0.  1.
          5    1    4    4  501    0  0.71301357857E+02  0.12474214949E+03  0.86743131275E+02  0.16788785160E+03  0.41800000000E+01 0.  1.
         -5    1    4    4    0  501  0.45123880177E+02 -0.22960745406E+02  0.46280487761E+01  0.51012269380E+02  0.41800000000E+01 0.  1.
</event>
<event>
11    1  0.6625361E-009  0.1655953E+03  0.7561462E-02  0.1081930E+00
         22   -1    0    0    0    0  0.00000000000E+00  0.00000000000E+00  0.18343832594E+04  0.18343832594E+04  0.00000000000E+00 0.  1.
         22   -1    0    0    0    0 -0.00000000000E+00 -0.00000000000E+00 -0.71766244569E+02  0.71766244569E+02  0.00000000000E+00 0.  1.
         24    2    1    2    0    0  0.10283530944E+03  0.89288802005E+01  0.20731685812E+02  0.13187248561E+03  0.79408588299E+02 0.  0.
         25    2    1    2    0    0 -0.16002875761E+03 -0.29576544589E+02  0.75983432899E+03  0.78707051781E+03  0.12509123569E+03 0.  0.
        -24    2    1    2    0    0  0.57193448171E+02  0.20647664388E+02  0.98205099998E+03  0.98720650050E+03  0.80343584104E+02 0.  0.
        -13    1    3    3    0    0  0.11528864952E+03  0.10544023958E+02  0.11607874537E+02  0.11635029824E+03  0.00000000000E+00 0.  1.
         14    1    3    3    0    0 -0.12453340082E+02 -0.16151437574E+01  0.91238112754E+01  0.15522187370E+02  0.00000000000E+00 0. -1.
         11    1    5    5    0    0 -0.71075461964E+01 -0.87693429713E+01  0.48702383309E+03  0.48715462903E+03  0.00000000000E+00 0. -1.
        -12    1    5    5    0    0  0.64300994368E+02  0.29417007359E+02  0.49502716689E+03  0.50005187146E+03  0.00000000000E+00 0.  1.
          5    1    4    4  501    0 -0.10439736554E+01 -0.34314127326E+02  0.58884900844E+02  0.68289480614E+02  0.41800000000E+01 0. -1.
         -5    1    4    4    0  501 -0.15898478395E+03  0.47375827372E+01  0.70094942815E+03  0.71878103720E+03  0.41800000000E+01 0. -1.
</event>
<event>
11    1  0.6625361E-009  0.1340452E+03  0.7561462E-02  0.1114396E+00
         22   -1    0    0    0    0  0.00000000000E+00  0.00000000000E+00  0.17657624916E+04  0.17657624916E+04  0.00000000000E+00 0. -1.
         22   -1    0    0    0    0 -0.00000000000E+00 -0.00000000000E+00 -0.16421826291E+04  0.16421826291E+04  0.00000000000E+00 0.  1.
        -24    2    1    2    0    0 -0.12672990537E+02  0.18455233813E+02 -0.11405069291E+04  0.11435681007E+04  0.80565160780E+02 0.  0.
         25    2    1    2    0    0  0.60109375784E+02 -0.26597112852E+02 -0.48888375679E+03  0.50889655010E+03  0.12509127703E+03 0.  0.
         24    2    1    2    0    0 -0.47436385247E+02  0.81418790389E+01  0.17529705484E+04  0.17554804699E+04  0.80557034221E+02 0.  0.
        -13    1    5    5    0    0 -0.52367079631E+02 -0.53935692990E+00  0.55432089329E+03  0.55678923721E+03  0.00000000000E+00 0.  1.
         14    1    5    5    0    0  0.49306943841E+01  0.86812359688E+01  0.11986496551E+04  0.11986912327E+04  0.00000000000E+00 0. -1.
         11    1    3    3    0    0 -0.39364610104E+02  0.34568162748E+02 -0.69539196091E+03  0.69736253821E+03  0.00000000000E+00 0. -1.
        -12    1    3    3    0    0  0.26691619567E+02 -0.16112928935E+02 -0.44511496822E+03  0.44620556245E+03  0.00000000000E+00 0.  1.
          5    1    4    4  501    0  0.28845018079E+02 -0.64819658782E+02 -0.14522492629E+03  0.16168294544E+03  0.41800000000E+01 0.  1.
         -5    1    4    4    0  501  0.31264357705E+02  0.38222545930E+02 -0.34365883050E+03  0.34721360466E+03  0.41800000000E+01 0.  1.
</event>
<event>
11    1  0.6625361E-009  0.1606859E+03  0.7561462E-02  0.1086434E+00
         22   -1    0    0    0    0  0.00000000000E+00  0.00000000000E+00  0.34665150492E+03  0.34665150492E+03  0.00000000000E+00 0.  1.
         22   -1    0    0    0    0 -0.00000000000E+00 -0.00000000000E+00 -0.17765619625E+03  0.17765619625E+03  0.00000000000E+00 0.  1.
        -24    2    1    2    0    0  0.21290556442E+02 -0.21883761556E+02 -0.76680356779E+02  0.11530173537E+03  0.80513515951E+02 0.  0.
         25    2    1    2    0    0  0.74999503620E+01  0.11491513190E+03  0.50903133444E+02  0.17748700611E+03  0.12509505006E+03 0.  0.
         24    2    1    2    0    0 -0.28790506804E+02 -0.93031370339E+02  0.19477253201E+03  0.23151895969E+03  0.78619083706E+02 0.  0.
        -11    1    5    5    0    0 -0.33267381661E+02 -0.85944124818E+02  0.20097075008E+03  0.22109354052E+03  0.00000000000E+00 0.  1.
         12    1    5    5    0    0  0.44768748572E+01 -0.70872455216E+01 -0.61982180723E+01  0.10425419169E+02  0.00000000000E+00 0. -1.
         11    1    3    3    0    0 -0.82295246481E+01 -0.51432917214E+01  0.14817787465E+02  0.17712858353E+02  0.00000000000E+00 0. -1.
        -12    1    3    3    0    0  0.29520081090E+02 -0.16740469835E+02 -0.91498144245E+02  0.97588877020E+02  0.00000000000E+00 0.  1.
          5    1    4    4  501    0 -0.21508528691E+02  0.13352096792E+03  0.39774933272E+02  0.14103185242E+03  0.41800000000E+01 0.  1.
         -5    1    4    4    0  501  0.29008479054E+02 -0.18605836025E+02  0.11128200172E+02  0.36455153686E+02  0.41800000000E+01 0.  1.
</event>
<event>
11    1  0.6625361E-009  0.1280954E+03  0.7561462E-02  0.1121631E+00
         22   -1    0    0    0    0  0.00000000000E+00  0.00000000000E+00  0.11444444062E+03  0.11444444062E+03  0.00000000000E+00 0.  1.
         22   -1    0    0    0    0 -0.00000000000E+00 -0.00000000000E+00 -0.15782814759E+04  0.15782814759E+04  0.00000000000E+00 0.  1.
         24    2    1    2    0    0 -0.13533900320E+02  0.10004608597E+02 -0.11808473394E+04  0.11836469510E+04  0.79601550781E+02 0.  0.
         25    2    1    2    0    0  0.10965091660E+02 -0.37047569015E+02 -0.36601527324E+03  0.38872561865E+03  0.12509065010E+03 0.  0.
        -24    2    1    2    0    0  0.25688086601E+01  0.27042960417E+02  0.83025577322E+02  0.12035334696E+03  0.82787445599E+02 0.  0.
        -13    1    3    3    0    0 -0.32352494054E+02  0.32819163561E+02 -0.91497080258E+03  0.91613064077E+03  0.00000000000E+00 0.  1.
         14    1    3    3    0    0  0.18818593734E+02 -0.22814554964E+02 -0.26587653682E+03  0.26751631020E+03  0.00000000000E+00 0. -1.
         11    1    5    5    0    0 -0.55616161028E+01  0.30794849426E+02 -0.51588882939E+01  0.31715429262E+02  0.00000000000E+00 0. -1.
        -12    1    5    5    0    0  0.81304247629E+01 -0.37518890085E+01  0.88184465616E+02  0.88637917698E+02  0.00000000000E+00 0.  1.
          5    1    4    4  501    0  0.60429039286E+02 -0.44530433898E+02 -0.16153392666E+03  0.17817213641E+03  0.41800000000E+01 0.  1.
         -5    1    4    4    0  501 -0.49463947625E+02  0.74828648835E+01 -0.20448134658E+03  0.21055348224E+03  0.41800000000E+01 0.  1.
</event>
<event>
11    1  0.6625361E-009  0.1555596E+03  0.7561462E-02  0.1091330E+00
         22   -1    0    0    0    0  0.00000000000E+00  0.00000000000E+00  0.62951283920E+03  0.62951283920E+03  0.00000000000E+00 0.  1.
         22   -1    0    0    0    0 -0.00000000000E+00 -0.00000000000E+00 -0.20058542071E+04  0.20058542071E+04  0.00000000000E+00 0. -1.
         24    2    1    2    0    0 -0.15217851950E+02  0.46857952017E+02 -0.19572737747E+04  0.19596349138E+04  0.82590044097E+02 0.  0.
         25    2    1    2    0    0 -0.60380953795E+02 -0.95420138899E+02  0.14329290408E+03  0.22120385120E+03  0.12508966760E+03 0.  0.
        -24    2    1    2    0    0  0.75598805745E+02  0.48562186882E+02  0.43763950280E+03  0.45452828126E+03  0.83631086534E+02 0.  0.
        -11    1    3    3    0    0 -0.12075601231E+02  0.83778915167E+01 -0.53850309337E+02  0.55819933958E+02  0.00000000000E+00 0.  1.
         12    1    3    3    0    0 -0.31422507190E+01  0.38480060500E+02 -0.19034234654E+04  0.19038149798E+04  0.00000000000E+00 0. -1.
         11    1    5    5    0    0 -0.10797657760E+02  0.22872704805E+01  0.15472760784E+03  0.15512077117E+03  0.00000000000E+00 0. -1.
        -12    1    5    5    0    0  0.86396463505E+02  0.46274916402E+02  0.28291189496E+03  0.29940751010E+03  0.00000000000E+00 0.  1.
          5    1    4    4  501    0  0.21295667827E+02 -0.36060699195E+02 -0.43256348373E+01  0.42309136264E+02  0.41800000000E+01 0. -1.
         -5    1    4    4    0  501 -0.81676621622E+02 -0.59359439704E+02  0.14761853892E+03  0.17889471494E+03  0.41800000000E+01 0. -1.
</event>
<event>
11    1  0.6625361E-009  0.2249155E+03  0.7561462E-02  0.1038181E+00
         22   -1    0    0    0    0  0.00000000000E+00  0.00000000000E+00  0.93855414621E+03  0.93855414621E+03  0.00000000000E+00 0.  1.
         22   -1    0    0    0    0 -0.00000000000E+00 -0.00000000000E+00 -0.40577095594E+03  0.40577095594E+03  0.00000000000E+00 0.  1.
        -24    2    1    2    0    0  0.19198753705E+03  0.20158781969E+01 -0.27351322579E+03  0.34385110578E+03  0.80998889608E+02 0.  0.
         25    2    1    2    0    0 -0.16966971782E+03 -0.13794733194E+02  0.23472242411E+02  0.21254598194E+03  0.12508693165E+03 0.  0.
         24    2    1    2    0    0 -0.22317819230E+02  0.11778854997E+02  0.78282417365E+03  0.78792801443E+03  0.85907174270E+02 0.  0.
        -13    1    5    5    0    0  0.28435369868E+02  0.20525665200E+00  0.46502548433E+03  0.46589410113E+03  0.00000000000E+00 0.  1.
         14    1    5    5    0    0 -0.50753189097E+02  0.11573598345E+02  0.31779868931E+03  0.32203391330E+03  0.00000000000E+00 0. -1.
         13    1    3    3    0    0  0.64745629373E+01 -0.20110078717E+02 -0.21541822776E+02  0.30172592857E+02  0.00000000000E+00 0. -1.
        -14    1    3    3    0    0  0.18551297411E+03  0.22125956914E+02 -0.25197140301E+03  0.31367851292E+03  0.00000000000E+00 0.  1.
          5    1    4    4  501    0  0.14716646686E+02 -0.17407164397E+02  0.15547469007E+02  0.27906724181E+02  0.41800000000E+01 0.  1.
         -5    1    4    4    0  501 -0.18438636450E+03  0.36124312024E+01  0.79247734039E+01  0.18463925776E+03  0.41800000000E+01 0.  1.
</event>
<event>
11    1  0.6625361E-009  0.1588557E+03  0.7561462E-02  0.1088159E+00
         22   -1    0    0    0    0  0.00000000000E+00  0.00000000000E+00  0.80339956478E+03  0.80339956478E+03  0.00000000000E+00 0. -1.
         22   -1    0    0    0    0 -0.00000000000E+00 -0.00000000000E+00 -0.10108663293E+03  0.10108663293E+03  0.00000000000E+00 0.  1.
        -24    2    1    2    0    0  0.67796064017E+02 -0.61782859140E+02  0.79164480230E+01  0.11470611809E+03  0.68420723456E+02 0.  0.
         25    2    1    2    0    0 -0.10473931624E+03  0.52744629252E+02  0.11748419016E+03  0.20785252255E+03  0.12509123035E+03 0.  0.
         24    2    1    2    0    0  0.36943252224E+02  0.90382298874E+01  0.57691229367E+03  0.58192755707E+03  0.66071125352E+02 0.  0.
        -11    1    5    5    0    0  0.19433249967E+02  0.81871146367E+01  0.44676539987E+02  0.49403170704E+02  0.00000000000E+00 0.  1.
         12    1    5    5    0    0  0.17510002257E+02  0.85111525070E+00  0.53223575368E+03  0.53252438637E+03  0.00000000000E+00 0. -1.
         11    1    3    3    0    0  0.15074625091E+02  0.95539895704E+01 -0.14747617184E+02  0.23152003174E+02  0.00000000000E+00 0. -1.
        -12    1    3    3    0    0  0.52721438926E+02 -0.71336848710E+02  0.22664065207E+02  0.91554114916E+02  0.00000000000E+00 0.  1.
          5    1    4    4  501    0 -0.59342721823E+02 -0.11673769383E+02 -0.64061541935E+01  0.60961846565E+02  0.41800000000E+01 0.  1.
         -5    1    4    4    0  501 -0.45396594418E+02  0.64418398635E+02  0.12389034435E+03  0.14689067598E+03  0.41800000000E+01 0.  1.
</event>
<event>
11    1  0.6625361E-009  0.1293036E+03  0.7561462E-02  0.1120128E+00
         22   -1    0    0    0    0  0.00000000000E+00  0.00000000000E+00  0.70425082668E+03  0.70425082668E+03  0.00000000000E+00 0.  1.
         22   -1    0    0    0    0 -0.00000000000E+00 -0.00000000000E+00 -0.72126119317E+02  0.72126119317E+02  0.00000000000E+00 0. -1.
         24    2    1    2    0    0  0.34636253445E+02  0.83364292880E+01 -0.10847237162E+02  0.85443082361E+02  0.76900530969E+02 0.  0.
         25    2    1    2    0    0 -0.46209481335E+02 -0.32470977478E+02  0.23846087875E+03  0.27514148295E+03  0.12509821903E+03 0.  0.
        -24    2    1    2    0    0  0.11573227890E+02  0.24134548190E+02  0.40451106578E+03  0.41579238069E+03  0.92399596748E+02 0.  0.
        -11    1    3    3    0    0  0.54108290437E+01 -0.31438034253E+02  0.75278021485E+01  0.32776437784E+02  0.00000000000E+00 0.  1.
         12    1    3    3    0    0  0.29225424401E+02  0.39774463541E+02 -0.18375039310E+02  0.52666644577E+02  0.00000000000E+00 0. -1.
         11    1    5    5    0    0 -0.15043395415E+02 -0.29165647656E+02  0.20382612020E+03  0.20645102573E+03  0.00000000000E+00 0. -1.
        -12    1    5    5    0    0  0.26616623305E+02  0.53300195846E+02  0.20068494558E+03  0.20934135496E+03  0.00000000000E+00 0.  1.
          5    1    4    4  501    0 -0.19636914454E+02  0.21557189695E+02  0.20303011197E+03  0.20515608595E+03  0.41800000000E+01 0. -1.
         -5    1    4    4    0  501 -0.26572566881E+02 -0.54028167173E+02  0.35430766781E+02  0.69985397001E+02  0.41800000000E+01 0. -1.
</event>
<event>
11    1  0.6625361E-009  0.2549997E+03  0.7561462E-02  0.1021269E+00
         22   -1    0    0    0    0  0.00000000000E+00  0.00000000000E+00  0.31243361382E+04  0.31243361382E+04  0.00000000000E+00 0. -1.
         22   -1    0    0    0    0 -0.00000000000E+00 -0.00000000000E+00 -0.16297507811E+04  0.16297507811E+04  0.00000000000E+00 0. -1.
        -24    2    1    2    0    0 -0.31790455697E+02 -0.21976783356E+03 -0.15908657884E+04  0.16093818564E+04  0.99737000474E+02 0.  0.
         25    2    1    2    0    0 -0.62599623354E+02  0.24565073137E+03  0.68657772405E+03  0.74249441314E+03  0.12508392269E+03 0.  0.
         24    2    1    2    0    0  0.94390079051E+02 -0.25882897810E+02  0.23988734215E+04  0.24022106497E+04  0.80267687987E+02 0.  0.
        -13    1    5    5    0    0  0.17084592405E+02  0.66043597028E+00  0.75990241011E+02  0.77889897947E+02  0.00000000000E+00 0.  1.
         14    1    5    5    0    0  0.77305486646E+02 -0.26543333780E+02  0.23228831805E+04  0.23243207518E+04  0.00000000000E+00 0. -1.
         11    1    3    3    0    0 -0.30539674658E+02 -0.21567572382E+03 -0.12740431759E+04  0.12925303492E+04  0.00000000000E+00 0. -1.
        -12    1    3    3    0    0 -0.12507810391E+01 -0.40921097347E+01 -0.31682261254E+03  0.31685150722E+03  0.00000000000E+00 0.  1.
          5    1    4    4  501    0 -0.57722101906E+02  0.22512170325E+03  0.46484795237E+03  0.51972368961E+03  0.41800000000E+01 0.  1.
         -5    1    4    4    0  501 -0.48775214480E+01  0.20529028116E+02  0.22172977168E+03  0.22277072352E+03  0.41800000000E+01 0.  1.
</event>
<event>
11    1  0.6625361E-009  0.1409494E+03  0.7561462E-02  0.1106503E+00
         22   -1    0    0    0    0  0.00000000000E+00  0.00000000000E+00  0.46772691140E+03  0.46772691140E+03  0.00000000000E+00 0. -1.
         22   -1    0    0    0    0 -0.00000000000E+00 -0.00000000000E+00 -0.43435496990E+03  0.43435496990E+03  0.00000000000E+00 0. -1.
        -24    2    1    2    0    0 -0.69687040625E+02  0.60080017523E+00 -0.32811106690E+03  0.34874171302E+03  0.95431994565E+02 0.  0.
         25    2    1    2    0    0  0.42970852906E+02 -0.61024886676E-01 -0.43558307237E+02  0.13925497815E+03  0.12509246534E+03 0.  0.
         24    2    1    2    0    0  0.26716187718E+02 -0.53977528856E+00  0.40504131564E+03  0.41408519013E+03  0.81817059727E+02 0.  0.
        -11    1    5    5    0    0  0.14818479280E+02 -0.67538511358E+00  0.79770858896E+01  0.16842724617E+02  0.00000000000E+00 0.  1.
         12    1    5    5    0    0  0.11897708438E+02  0.13560982502E+00  0.39706422975E+03  0.39724246551E+03  0.00000000000E+00 0. -1.
         13    1    3    3    0    0 -0.52319698881E+01  0.39368630632E+02 -0.15478991986E+03  0.15980357280E+03  0.00000000000E+00 0. -1.
        -14    1    3    3    0    0 -0.64455070736E+02 -0.38767830456E+02 -0.17332114704E+03  0.18893814023E+03  0.00000000000E+00 0.  1.
          5    1    4    4  501    0  0.72743714808E+02 -0.39124976909E+02 -0.31569638742E+02  0.88524156887E+02  0.41800000000E+01 0. -1.
         -5    1    4    4    0  501 -0.29772861902E+02  0.39063952023E+02 -0.11988668495E+02  0.50730821260E+02  0.41800000000E+01 0. -1.
</event>
<event>
11    1  0.6625361E-009  0.1485884E+03  0.7561462E-02  0.1098330E+00
         22   -1    0    0    0    0  0.00000000000E+00  0.00000000000E+00  0.13104199760E+03  0.13104199760E+03  0.00000000000E+00 0. -1.
         22   -1    0    0    0    0 -0.00000000000E+00 -0.00000000000E+00 -0.68368014146E+03  0.68368014146E+03  0.00000000000E+00 0.  1.
        -24    2    1    2    0    0 -0.12956548877E+02  0.51030050961E+01 -0.50688716458E+03  0.51407251674E+03  0.84510603102E+02 0.  0.
         25    2    1    2    0    0  0.87497841849E+01 -0.84192750856E+02 -0.93784297103E+02  0.17778141765E+03  0.12508301267E+03 0.  0.
         24    2    1    2    0    0  0.42067646922E+01  0.79089745760E+02  0.48033317818E+02  0.12286820467E+03  0.80724911548E+02 0.  0.
        -13    1    5    5    0    0  0.17401891343E+02  0.57362903982E+02 -0.88210307111E+01  0.60589926211E+02  0.00000000000E+00 0.  1.
         14    1    5    5    0    0 -0.13195126651E+02  0.21726841779E+02  0.56854348529E+02  0.62278278458E+02  0.00000000000E+00 0. -1.
         11    1    3    3    0    0  0.32516614117E+02 -0.95836079780E+01 -0.13798018971E+03  0.14208345607E+03  0.00000000000E+00 0. -1.
        -12    1    3    3    0    0 -0.45473162995E+02  0.14686613074E+02 -0.36890697487E+03  0.37198906067E+03  0.00000000000E+00 0.  1.
          5    1    4    4  501    0 -0.14479393940E+02 -0.11074706871E+03 -0.86941330950E+02  0.14160096576E+03  0.41800000000E+01 0. -1.
         -5    1    4    4    0  501  0.23229178125E+02  0.26554317854E+02 -0.68429661538E+01  0.36180451888E+02  0.41800000000E+01 0. -1.
</event>
<event>
11    1  0.6625361E-009  0.1386214E+03  0.7561462E-02  0.1109108E+00
         22   -1    0    0    0    0  0.00000000000E+00  0.00000000000E+00  0.95747380103E+02  0.95747380103E+02  0.00000000000E+00 0. -1.
         22   -1    0    0    0    0 -0.00000000000E+00 -0.00000000000E+00 -0.14923026159E+04  0.14923026159E+04  0.00000000000E+00 0. -1.
         24    2    1    2    0    0 -0.30404736618E+02  0.51245472836E+02 -0.13103466787E+04  0.13135671061E+04  0.69996982168E+02 0.  0.
         25    2    1    2    0    0  0.11110551016E+02 -0.66308338907E+02 -0.11646168445E+03  0.18365920474E+03  0.12508852621E+03 0.  0.
        -24    2    1    2    0    0  0.19294185602E+02  0.15062866070E+02  0.30253127284E+02  0.90823685169E+02  0.82064209890E+02 0.  0.
        -13    1    3    3    0    0 -0.38759467856E+02  0.47858936808E+02 -0.59789692385E+03  0.60106031788E+03  0.00000000000E+00 0.  1.
         14    1    3    3    0    0  0.83547312379E+01  0.33865360284E+01 -0.71244975483E+03  0.71250678826E+03  0.00000000000E+00 0. -1.
         11    1    5    5    0    0 -0.10965461214E+02  0.33565721210E+02  0.40666970474E+02  0.53858160640E+02  0.00000000000E+00 0. -1.
        -12    1    5    5    0    0  0.30259646816E+02 -0.18502855140E+02 -0.10413843190E+02  0.36965524529E+02  0.00000000000E+00 0.  1.
          5    1    4    4  501    0  0.53394593804E+02  0.61840084640E+01 -0.24903633610E+02  0.59387607926E+02  0.41800000000E+01 0.  1.
         -5    1    4    4    0  501 -0.42284042788E+02 -0.72492347371E+02 -0.91558050840E+02  0.12427159682E+03  0.41800000000E+01 0.  1.
</event>
<event>
11    1  0.6625361E-009  0.1545931E+03  0.7561462E-02  0.1092276E+00
         22   -1    0    0    0    0  0.00000000000E+00  0.00000000000E+00  0.83094805885E+03  0.83094805885E+03  0.00000000000E+00 0. -1.
         22   -1    0    0    0    0 -0.00000000000E+00 -0.00000000000E+00 -0.14504169846E+03  0.14504169846E+03  0.00000000000E+00 0.  1.
        -24    2    1    2    0    0  0.95433672798E+02 -0.18742223248E+01 -0.83247777860E+02  0.14968059696E+03  0.79768351954E+02 0.  0.
         25    2    1    2    0    0 -0.51811156558E+02 -0.73089801469E+02  0.24491570196E+03  0.28923718790E+03  0.12509170545E+03 0.  0.
         24    2    1    2    0    0 -0.43622516240E+02  0.74964023794E+02  0.52423843629E+03  0.53707197246E+03  0.78088646633E+02 0.  0.
        -11    1    5    5    0    0 -0.30077603762E+02 -0.46819330771E+01  0.22768620998E+03  0.22971197827E+03  0.00000000000E+00 0.  1.
         12    1    5    5    0    0 -0.13544912478E+02  0.79645956871E+02  0.29655222630E+03  0.30735999418E+03  0.00000000000E+00 0. -1.
         13    1    3    3    0    0  0.49611129188E+02  0.24507579647E+02 -0.54312427260E+01  0.55600215800E+02  0.00000000000E+00 0. -1.
        -14    1    3    3    0    0  0.45822543611E+02 -0.26381801972E+02 -0.77816535134E+02  0.94080381156E+02  0.00000000000E+00 0.  1.
          5    1    4    4  501    0 -0.11789686313E+02  0.23988716849E+02  0.13297185421E+03  0.13569613720E+03  0.41800000000E+01 0.  1.
         -5    1    4    4    0  501 -0.40021470245E+02 -0.97078518318E+02  0.11194384776E+03  0.15354105070E+03  0.41800000000E+01 0.  1.
</event>
<event>
11    1  0.6625361E-009  0.1482883E+03  0.7561462E-02  0.1098641E+00
         22   -1    0    0    0    0  0.00000000000E+00  0.00000000000E+00  0.23051257701E+03  0.23051257701E+03  0.00000000000E+00 0.  1.
         22   -1    0    0    0    0 -0.00000000000E+00 -0.00000000000E+00 -0.15584932300E+04  0.15584932300E+04  0.00000000000E+00 0. -1.
        -24    2    1    2    0    0  0.76721840613E+02  0.29177242585E+00 -0.13185007590E+04  0.13232579722E+04  0.81737894905E+02 0.  0.
         25    2    1    2    0    0 -0.12205019190E+03  0.29332906326E+02 -0.19059781977E+03  0.26025326771E+03  0.12509023029E+03 0.  0.
         24    2    1    2    0    0  0.45328351289E+02 -0.29624678752E+02  0.18111792571E+03  0.20549456719E+03  0.80573153774E+02 0.  0.
        -13    1    5    5    0    0  0.65305968363E+02 -0.36906977583E+02  0.15126057430E+03  0.16883943803E+03  0.00000000000E+00 0.  1.
         14    1    5    5    0    0 -0.19977617074E+02  0.72822988306E+01  0.29857351418E+02  0.36655129163E+02  0.00000000000E+00 0. -1.
         11    1    3    3    0    0  0.18784703836E+02  0.31862294047E+02 -0.75537082491E+03  0.75627584518E+03  0.00000000000E+00 0. -1.
        -12    1    3    3    0    0  0.57937136777E+02 -0.31570521621E+02 -0.56312993408E+03  0.56698212698E+03  0.00000000000E+00 0.  1.
          5    1    4    4  501    0  0.15007303737E+02  0.35274079953E+02 -0.56213142356E+02  0.68167951822E+02  0.41800000000E+01 0. -1.
         -5    1    4    4    0  501 -0.13705749564E+03 -0.59411736269E+01 -0.13438467741E+03  0.19208531588E+03  0.41800000000E+01 0. -1.
</event>
<event>
11    1  0.6625361E-009  0.1507102E+03  0.7561462E-02  0.1096155E+00
         22   -1    0    0    0    0  0.00000000000E+00  0.00000000000E+00  0.18893121163E+03  0.18893121163E+03  0.00000000000E+00 0.  1.
         22   -1    0    0    0    0 -0.00000000000E+00 -0.00000000000E+00 -0.10315949200E+04  0.10315949200E+04  0.00000000000E+00 0. -1.
         24    2    1    2    0    0  0.87868164019E+02 -0.86397870801E+01 -0.88040999734E+03  0.88834740899E+03  0.79018323596E+02 0.  0.
         25    2    1    2    0    0 -0.44846639941E+02 -0.55703583589E+02 -0.88680546824E+02  0.16919354105E+03  0.12509238430E+03 0.  0.
        -24    2    1    2    0    0 -0.43021524078E+02  0.64343370669E+02  0.12642683580E+03  0.16298518159E+03  0.67745876073E+02 0.  0.
        -11    1    3    3    0    0  0.74517242257E+02 -0.16918128974E+02 -0.37565626426E+03  0.38334928115E+03  0.00000000000E+00 0.  1.
         12    1    3    3    0    0  0.13350921762E+02  0.82783418941E+01 -0.50475373308E+03  0.50499812783E+03  0.00000000000E+00 0. -1.
         11    1    5    5    0    0 -0.96519118807E+01 -0.11206274823E+02  0.40296590131E+01  0.15328997036E+02  0.00000000000E+00 0. -1.
        -12    1    5    5    0    0 -0.33369612198E+02  0.75549645492E+02  0.12239717678E+03  0.14765618455E+03  0.00000000000E+00 0.  1.
          5    1    4    4  501    0 -0.76090491905E+02 -0.54428269128E+01 -0.21086191933E+02  0.79255833939E+02  0.41800000000E+01 0. -1.
         -5    1    4    4    0  501  0.31243851964E+02 -0.50260756676E+02 -0.67594354891E+02  0.89937707111E+02  0.41800000000E+01 0. -1.
</event>
<event>
11    1  0.6625361E-009  0.1285789E+03  0.7561462E-02  0.1121028E+00
         22   -1    0    0    0    0  0.00000000000E+00  0.00000000000E+00  0.59330312160E+02  0.59330312160E+02  0.00000000000E+00 0.  1.
         22   -1    0    0    0    0 -0.00000000000E+00 -0.00000000000E+00 -0.15003919887E+04  0.15003919887E+04  0.00000000000E+00 0.  1.
        -24    2    1    2    0    0  0.52933121422E+01 -0.28274064671E+02 -0.12920264803E+04  0.12949246906E+04  0.81670598402E+02 0.  0.
         25    2    1    2    0    0 -0.20018651067E+02 -0.58130159063E+01 -0.10989238502E+03  0.16780318253E+03  0.12508810590E+03 0.  0.
         24    2    1    2    0    0  0.14725338925E+02  0.34087080577E+02 -0.39142811275E+02  0.96994427786E+02  0.80603937114E+02 0.  0.
        -11    1    5    5    0    0  0.39717555589E+02  0.42940958202E+02 -0.13334547656E+02  0.59993501935E+02  0.00000000000E+00 0.  1.
         12    1    5    5    0    0 -0.24992216664E+02 -0.88538776253E+01 -0.25808263619E+02  0.37000925851E+02  0.00000000000E+00 0. -1.
         13    1    3    3    0    0 -0.12457628170E+02  0.23480734541E+02 -0.23813682512E+03  0.23961570247E+03  0.00000000000E+00 0. -1.
        -14    1    3    3    0    0  0.17750940312E+02 -0.51754799211E+02 -0.10538896551E+04  0.10553089881E+04  0.00000000000E+00 0.  1.
          5    1    4    4  501    0 -0.72242905298E+01 -0.61819476502E+02 -0.29758068142E+02  0.69114781835E+02  0.41800000000E+01 0. -1.
         -5    1    4    4    0  501 -0.12794360537E+02  0.56006460596E+02 -0.80134316879E+02  0.98688400694E+02  0.41800000000E+01 0. -1.
</event>
<event>
11    1  0.6625361E-009  0.1477130E+03  0.7561462E-02  0.1099239E+00
         22   -1    0    0    0    0  0.00000000000E+00  0.00000000000E+00  0.69664292133E+02  0.69664292133E+02  0.00000000000E+00 0.  1.
         22   -1    0    0    0    0 -0.00000000000E+00 -0.00000000000E+00 -0.10314312539E+04  0.10314312539E+04  0.00000000000E+00 0.  1.
         24    2    1    2    0    0  0.21588755041E+02 -0.65582509313E+00 -0.61327992163E+03  0.61904051735E+03  0.81439519888E+02 0.  0.
         25    2    1    2    0    0  0.60168170484E+02 -0.37241522518E+00 -0.33996885418E+03  0.36721555974E+03  0.12509235814E+03 0.  0.
        -24    2    1    2    0    0 -0.81756925525E+02  0.10282403183E+01 -0.85181859494E+01  0.11483946894E+03  0.80189101408E+02 0.  0.
        -13    1    3    3    0    0  0.24745778492E+02  0.38062263159E+02 -0.32593467684E+03  0.32908130150E+03  0.00000000000E+00 0.  1.
         14    1    3    3    0    0 -0.31570234511E+01 -0.38718088252E+02 -0.28734524479E+03  0.28995921585E+03  0.00000000000E+00 0. -1.
         11    1    5    5    0    0 -0.83574708245E+02 -0.10457360722E+02 -0.30819928556E+02  0.89688105386E+02  0.00000000000E+00 0. -1.
        -12    1    5    5    0    0  0.18177827195E+01  0.11485601040E+02  0.22301742607E+02  0.25151363553E+02  0.00000000000E+00 0.  1.
          5    1    4    4  501    0 -0.14096065672E+02 -0.10455003108E+01 -0.25019541521E+03  0.25062922880E+03  0.41800000000E+01 0. -1.
         -5    1    4    4    0  501  0.74264236157E+02  0.67308508566E+00 -0.89773438972E+02  0.11658633093E+03  0.41800000000E+01 0. -1.
</event>
<event>
11    1  0.6625361E-009  0.1632743E+03  0.7561462E-02  0.1084038E+00
         22   -1    0    0    0    0  0.00000000000E+00  0.00000000000E+00  0.14093039531E+03  0.14093039531E+03  0.00000000000E+00 0.  1.
         22   -1    0    0    0    0 -0.00000000000E+00 -0.00000000000E+00 -0.15389793311E+04  0.15389793311E+04  0.00000000000E+00 0. -1.
        -24    2    1    2    0    0 -0.51516348240E+02  0.14411779367E+01 -0.12488134028E+04  0.12528541443E+04  0.86328330748E+02 0.  0.
         25    2    1    2    0    0 -0.58768175301E+02  0.17670001397E+02 -0.22911324628E+03  0.26815140967E+03  0.12508545682E+03 0.  0.
         24    2    1    2    0    0  0.11028452354E+03 -0.19111179334E+02  0.79877713331E+02  0.15890417243E+03  0.79637765033E+02 0.  0.
        -13    1    5    5    0    0  0.10710069492E+03 -0.40954805700E+02  0.61120970389E+02  0.12993701545E+03  0.00000000000E+00 0.  1.
         14    1    5    5    0    0  0.31838286186E+01  0.21843626366E+02  0.18756742942E+02  0.28967156976E+02  0.00000000000E+00 0. -1.
         13    1    3    3    0    0 -0.50220707623E+02  0.28866458626E+02 -0.11003297600E+04  0.11018534261E+04  0.00000000000E+00 0. -1.
        -14    1    3    3    0    0 -0.12956406174E+01 -0.27425280690E+02 -0.14848364287E+03  0.15100071823E+03  0.00000000000E+00 0.  1.
          5    1    4    4  501    0 -0.53798524924E+02  0.68953285145E+02 -0.13970023634E+03  0.16487105643E+03  0.41800000000E+01 0. -1.
         -5    1    4    4    0  501 -0.49696503762E+01 -0.51283283748E+02 -0.89413009947E+02  0.10328035324E+03  0.41800000000E+01 0. -1.
</event>
<event>
11    1  0.6625361E-009  0.1375587E+03  0.7561462E-02  0.1110316E+00
         22   -1    0    0    0    0  0.00000000000E+00  0.00000000000E+00  0.14960598397E+04  0.14960598397E+04  0.00000000000E+00 0. -1.
         22   -1    0    0    0    0 -0.00000000000E+00 -0.00000000000E+00 -0.10310212659E+03  0.10310212659E+03  0.00000000000E+00 0. -1.
        -24    2    1    2    0    0  0.22966303900E+02 -0.11435854318E+02 -0.66867022256E+02  0.10756839775E+03  0.80259153069E+02 0.  0.
         25    2    1    2    0    0  0.37288078897E+02  0.72590793500E+01  0.29703169854E+03  0.32452802696E+03  0.12509002871E+03 0.  0.
         24    2    1    2    0    0 -0.60254382796E+02  0.41767749678E+01  0.11627930368E+04  0.11670655415E+04  0.79412188864E+02 0.  0.
        -13    1    5    5    0    0  0.20175416753E+01  0.31222803455E+02  0.42839860551E+03  0.42953963628E+03  0.00000000000E+00 0.  1.
         14    1    5    5    0    0 -0.62271924472E+02 -0.27046028488E+02  0.73439443127E+03  0.73752590525E+03  0.00000000000E+00 0. -1.
         13    1    3    3    0    0  0.13766342146E+02 -0.35531515211E+02 -0.71822128340E+02  0.81304482463E+02  0.00000000000E+00 0. -1.
        -14    1    3    3    0    0  0.91999617535E+01  0.24095660893E+02  0.49551060839E+01  0.26263915292E+02  0.00000000000E+00 0.  1.
          5    1    4    4  501    0 -0.11178058534E+02  0.40475471445E+02  0.31812367708E+02  0.52846115472E+02  0.41800000000E+01 0.  1.
         -5    1    4    4    0  501  0.48466137431E+02 -0.33216392094E+02  0.26521933083E+03  0.27168191149E+03  0.41800000000E+01 0.  1.
</event>
<event>
11    1  0.6625361E-009  0.1527610E+03  0.7561462E-02  0.1094090E+00
         22   -1    0    0    0    0  0.00000000000E+00  0.00000000000E+00  0.32973825948E+03  0.32973825948E+03  0.00000000000E+00 0.  1.
         22   -1    0    0    0    0 -0.00000000000E+00 -0.00000000000E+00 -0.37746775465E+04  0.37746775465E+04  0.00000000000E+00 0. -1.
         24    2    1    2    0    0  0.25680595659E+02 -0.60760894517E+02 -0.31856279422E+04  0.31873368933E+04  0.80868450288E+02 0.  0.
         25    2    1    2    0    0  0.61475040193E+02  0.46232705016E+02 -0.56753388359E+03  0.58622401156E+03  0.12508892489E+03 0.  0.
        -24    2    1    2    0    0 -0.87155635852E+02  0.14528189501E+02  0.30822253879E+03  0.33085490106E+03  0.81588350812E+02 0.  0.
        -11    1    3    3    0    0  0.29828590733E+02  0.45299882736E+01 -0.49817994294E+03  0.49909269797E+03  0.00000000000E+00 0.  1.
         12    1    3    3    0    0 -0.41479950742E+01 -0.65290882790E+02 -0.26874479993E+04  0.26882441954E+04  0.00000000000E+00 0. -1.
         13    1    5    5    0    0 -0.27837626484E+01  0.86187815823E+01 -0.20287181863E+01  0.92816177429E+01  0.00000000000E+00 0. -1.
        -14    1    5    5    0    0 -0.84371873204E+02  0.59094079183E+01  0.31025125697E+03  0.32157328332E+03  0.00000000000E+00 0.  1.
          5    1    4    4  501    0  0.13302398242E+02  0.17844844688E+01  0.82617008624E+00  0.14081659733E+02  0.41800000000E+01 0.  1.
         -5    1    4    4    0  501  0.48172641951E+02  0.44448220547E+02 -0.56836005368E+03  0.57214235183E+03  0.41800000000E+01 0.  1.
</event>
<event>
11    1  0.6625361E-009  0.1579248E+03  0.7561462E-02  0.1089045E+00
         22   -1    0    0    0    0  0.00000000000E+00  0.00000000000E+00  0.10526152832E+03  0.10526152832E+03  0.00000000000E+00 0.  1.
         22   -1    0    0    0    0 -0.00000000000E+00 -0.00000000000E+00 -0.95199753132E+03  0.95199753132E+03  0.00000000000E+00 0. -1.
        -24    2    1    2    0    0  0.10052060161E+03 -0.38764393028E+02 -0.42759878725E+03  0.44791760140E+03  0.78628145514E+02 0.  0.
         25    2    1    2    0    0 -0.61735588298E+02  0.62211927925E+02 -0.47642255501E+03  0.50030769067E+03  0.12509087732E+03 0.  0.
         24    2    1    2    0    0 -0.38785013313E+02 -0.23447534897E+02  0.57285339255E+02  0.10903376757E+03  0.80948676490E+02 0.  0.
        -13    1    5    5    0    0 -0.42049910822E+02 -0.49740287246E+02  0.32661573584E+02  0.72863362292E+02  0.00000000000E+00 0.  1.
         14    1    5    5    0    0  0.32648975087E+01  0.26292752349E+02  0.24623765671E+02  0.36170405274E+02  0.00000000000E+00 0. -1.
         11    1    3    3    0    0  0.97677370213E+02 -0.54604725724E+02 -0.40498945850E+03  0.42016545101E+03  0.00000000000E+00 0. -1.
        -12    1    3    3    0    0  0.28432313978E+01  0.15840332696E+02 -0.22609328751E+02  0.27752150390E+02  0.00000000000E+00 0.  1.
          5    1    4    4  501    0 -0.73444614456E+02 -0.14285446434E+02 -0.21853611732E+03  0.23102747098E+03  0.41800000000E+01 0.  1.
         -5    1    4    4    0  501  0.11709026158E+02  0.76497374359E+02 -0.25788643768E+03  0.26928021969E+03  0.41800000000E+01 0.  1.
</event>
<event>
11    1  0.6625361E-009  0.1753722E+03  0.7561462E-02  0.1073449E+00
         22   -1    0    0    0    0  0.00000000000E+00  0.00000000000E+00  0.18372508211E+04  0.18372508211E+04  0.00000000000E+00 0.  1.
         22   -1    0    0    0    0 -0.00000000000E+00 -0.00000000000E+00 -0.14830697696E+03  0.14830697696E+03  0.00000000000E+00 0.  1.
         24    2    1    2    0    0 -0.12263660916E+03 -0.12809365368E+02 -0.94580657312E+02  0.17534360244E+03  0.81216134070E+02 0.  0.
         25    2    1    2    0    0  0.11742227572E+03  0.11030794050E+01  0.61027947057E+03  0.63393805819E+03  0.12508885563E+03 0.  0.
        -24    2    1    2    0    0  0.52143334457E+01  0.11706285963E+02  0.11732450309E+04  0.11762761374E+04  0.83411165860E+02 0.  0.
        -13    1    3    3    0    0 -0.12143696861E+03  0.11317131626E+02 -0.68867415754E+02  0.14006332770E+03  0.00000000000E+00 0.  1.
         14    1    3    3    0    0 -0.11996405488E+01 -0.24126496994E+02 -0.25713241558E+02  0.35280274744E+02  0.00000000000E+00 0. -1.
         13    1    5    5    0    0 -0.35680144044E+02  0.10405243015E+02  0.33961447582E+03  0.34164211384E+03  0.00000000000E+00 0. -1.
        -14    1    5    5    0    0  0.40894477490E+02  0.13010429481E+01  0.83363055505E+03  0.83463402357E+03  0.00000000000E+00 0.  1.
          5    1    4    4  501    0  0.12596754554E+03 -0.32325907637E+02  0.39521130055E+03  0.41607959733E+03  0.41800000000E+01 0. -1.
         -5    1    4    4    0  501 -0.85452698224E+01  0.33428987042E+02  0.21506817002E+03  0.21785846086E+03  0.41800000000E+01 0. -1.
</event>
<event>
11    1  0.6625361E-009  0.1365080E+03  0.7561462E-02  0.1111522E+00
         22   -1    0    0    0    0  0.00000000000E+00  0.00000000000E+00  0.12874151089E+03  0.12874151089E+03  0.00000000000E+00 0. -1.
         22   -1    0    0    0    0 -0.00000000000E+00 -0.00000000000E+00 -0.63905528154E+03  0.63905528154E+03  0.00000000000E+00 0.  1.
         24    2    1    2    0    0 -0.44265184447E+02 -0.34548364944E+02 -0.49179016138E+03  0.50114139253E+03  0.78307958751E+02 0.  0.
         25    2    1    2    0    0  0.58256922947E+02 -0.10264195903E+02 -0.75508954225E+02  0.15763607429E+03  0.12509319310E+03 0.  0.
        -24    2    1    2    0    0 -0.13991738500E+02  0.44812560847E+02  0.56985344953E+02  0.10901932561E+03  0.80211903491E+02 0.  0.
        -13    1    3    3    0    0 -0.61940529451E+01 -0.39701893808E+02 -0.39449058127E+03  0.39653174574E+03  0.00000000000E+00 0.  1.
         14    1    3    3    0    0 -0.38071131502E+02  0.51535288640E+01 -0.97299580111E+02  0.10460964680E+03  0.00000000000E+00 0. -1.
         13    1    5    5    0    0 -0.34414098096E+02  0.31192316367E+02  0.67809405603E+02  0.82191278347E+02  0.00000000000E+00 0. -1.
        -14    1    5    5    0    0  0.20422359595E+02  0.13620244479E+02 -0.10824060650E+02  0.26828047265E+02  0.00000000000E+00 0.  1.
          5    1    4    4  501    0 -0.33823026273E+01 -0.55341153381E+02 -0.90836117249E+01  0.56338864300E+02  0.41800000000E+01 0. -1.
         -5    1    4    4    0  501  0.61639225574E+02  0.45076957478E+02 -0.66425342500E+02  0.10129720999E+03  0.41800000000E+01 0. -1.
</event>
<event>
11    1  0.6625361E-009  0.1618886E+03  0.7561462E-02  0.1085314E+00
         22   -1    0    0    0    0  0.00000000000E+00  0.00000000000E+00  0.22051973911E+04  0.22051973911E+04  0.00000000000E+00 0. -1.
         22   -1    0    0    0    0 -0.00000000000E+00 -0.00000000000E+00 -0.14892278163E+03  0.14892278163E+03  0.00000000000E+00 0. -1.
        -24    2    1    2    0    0 -0.10256664438E+03  0.30283186528E+02 -0.91401410712E+02  0.15890428805E+03  0.73887529086E+02 0.  0.
         25    2    1    2    0    0  0.81643310792E+02  0.35718933302E+02  0.24236896360E+03  0.28693446162E+03  0.12508876189E+03 0.  0.
         24    2    1    2    0    0  0.20923333587E+02 -0.66002119830E+02  0.19053070566E+04  0.19082814231E+04  0.80925546370E+02 0.  0.
        -11    1    5    5    0    0 -0.80107003329E+01 -0.17432701944E+02  0.86763203506E+02  0.88859011358E+02  0.00000000000E+00 0.  1.
         12    1    5    5    0    0  0.28934033920E+02 -0.48569417886E+02  0.18185438531E+04  0.18194224117E+04  0.00000000000E+00 0. -1.
         13    1    3    3    0    0 -0.20584957280E+02  0.29690745368E+02 -0.62093633542E+02  0.71839405295E+02  0.00000000000E+00 0. -1.
        -14    1    3    3    0    0 -0.81981687099E+02  0.59244116042E+00 -0.29307777170E+02  0.87064882753E+02  0.00000000000E+00 0.  1.
          5    1    4    4  501    0  0.52623721710E+02 -0.37985776497E+02  0.15935794166E+03  0.17211798649E+03  0.41800000000E+01 0. -1.
         -5    1    4    4    0  501  0.29019589082E+02  0.73704709799E+02  0.83011021945E+02  0.11481647513E+03  0.41800000000E+01 0. -1.
</event>
<event>
11    1  0.6625361E-009  0.2737858E+03  0.7561462E-02  0.1011939E+00
         22   -1    0    0    0    0  0.00000000000E+00  0.00000000000E+00  0.11089787279E+04  0.11089787279E+04  0.00000000000E+00 0.  1.
         22   -1    0    0    0    0 -0.00000000000E+00 -0.00000000000E+00 -0.31015598328E+03  0.31015598328E+03  0.00000000000E+00 0.  1.
         24    2    1    2    0    0  0.14381364093E+03 -0.19634949856E+03 -0.18678456660E+03  0.31587310951E+03  0.75178840696E+02 0.  0.
         25    2    1    2    0    0 -0.19700825522E+03  0.15697003904E+03  0.30535667752E+03  0.41514038354E+03  0.12508793610E+03 0.  0.
        -24    2    1    2    0    0  0.53194614292E+02  0.39379459514E+02  0.68025063372E+03  0.68812121816E+03  0.79934206601E+02 0.  0.
        -11    1    3    3    0    0  0.10821484394E+03 -0.15652846936E+03 -0.18016413509E+03  0.26205100599E+03  0.00000000000E+00 0.  1.
         12    1    3    3    0    0  0.35598796988E+02 -0.39821029200E+02 -0.66204315128E+01  0.53822103516E+02  0.00000000000E+00 0. -1.
         11    1    5    5    0    0  0.50510972640E+02  0.38724002949E+02  0.25370673561E+03  0.26156837434E+03  0.00000000000E+00 0. -1.
        -12    1    5    5    0    0  0.26836416523E+01  0.65545656559E+00  0.42654389811E+03  0.42655284382E+03  0.00000000000E+00 0.  1.
          5    1    4    4  501    0 -0.41727475187E+02  0.26610064207E+02  0.13254280571E+01  0.49684070507E+02  0.41800000000E+01 0.  1.
         -5    1    4    4    0  501 -0.15528078003E+03  0.13035997484E+03  0.30403124947E+03  0.36545631304E+03  0.41800000000E+01 0.  1.
</event>
<event>
11    1  0.6625361E-009  0.1334142E+03  0.7561462E-02  0.1115144E+00
         22   -1    0    0    0    0  0.00000000000E+00  0.00000000000E+00  0.59587978607E+03  0.59587978607E+03  0.00000000000E+00 0. -1.
         22   -1    0    0    0    0 -0.00000000000E+00 -0.00000000000E+00 -0.15594250275E+03  0.15594250275E+03  0.00000000000E+00 0. -1.
         24    2    1    2    0    0  0.43938510935E+02  0.15737002881E+02 -0.11690004617E+03  0.14800973712E+03  0.77865367691E+02 0.  0.
         25    2    1    2    0    0 -0.34470369428E+02 -0.28003504171E+02  0.22069376582E+03  0.25753753591E+03  0.12508973385E+03 0.  0.
        -24    2    1    2    0    0 -0.94681415071E+01  0.12266501290E+02  0.33614356366E+03  0.34627501579E+03  0.81693196857E+02 0.  0.
        -11    1    3    3    0    0  0.72847444231E+01  0.20088988193E+02  0.38773533393E+01  0.21717937675E+02  0.00000000000E+00 0.  1.
         12    1    3    3    0    0  0.36653766512E+02 -0.43519853117E+01 -0.12077739951E+03  0.12629179944E+03  0.00000000000E+00 0. -1.
         13    1    5    5    0    0 -0.39698470582E+02 -0.14691671990E+02  0.15668331861E+03  0.16230057339E+03  0.00000000000E+00 0. -1.
        -14    1    5    5    0    0  0.30230329075E+02  0.26958173280E+02  0.17946024506E+03  0.18397444241E+03  0.00000000000E+00 0.  1.
          5    1    4    4  501    0 -0.60015612453E+02 -0.21387067642E+02  0.41025435911E+02  0.75893604421E+02  0.41800000000E+01 0. -1.
         -5    1    4    4    0  501  0.25545243025E+02 -0.66164365289E+01  0.17966832991E+03  0.18164393149E+03  0.41800000000E+01 0. -1.
</event>
<event>
11    1  0.6625361E-009  0.1412798E+03  0.7561462E-02  0.1106138E+00
         22   -1    0    0    0    0  0.00000000000E+00  0.00000000000E+00  0.39399247795E+03  0.39399247795E+03  0.00000000000E+00 0. -1.
         22   -1    0    0    0    0 -0.00000000000E+00 -0.00000000000E+00 -0.79610071058E+03  0.79610071058E+03  0.00000000000E+00 0. -1.
         24    2    1    2    0    0 -0.25679784806E+02  0.45836477783E+02 -0.67186266985E+03  0.67862315233E+03  0.79809158017E+02 0.  0.
         25    2    1    2    0    0 -0.13090449343E+02  0.11358402373E+02 -0.77618757823E+02  0.14823466328E+03  0.12509384743E+03 0.  0.
        -24    2    1    2    0    0  0.38770234149E+02 -0.57194880155E+02  0.34737319503E+03  0.36323537292E+03  0.80606539070E+02 0.  0.
        -13    1    3    3    0    0  0.71050363480E+01 -0.19715330538E+02 -0.20112254897E+03  0.20221141289E+03  0.00000000000E+00 0.  1.
         14    1    3    3    0    0 -0.32784821154E+02  0.65551808321E+02 -0.47074012088E+03  0.47641173944E+03  0.00000000000E+00 0. -1.
         11    1    5    5    0    0  0.19446705628E+02 -0.61847400175E+02  0.13318227535E+03  0.14812425100E+03  0.00000000000E+00 0. -1.
        -12    1    5    5    0    0  0.19323528521E+02  0.46525200194E+01  0.21419091968E+03  0.21511112192E+03  0.00000000000E+00 0.  1.
          5    1    4    4  501    0  0.36235000253E+02  0.21859897573E+02  0.12980323920E+02  0.44461124303E+02  0.41800000000E+01 0. -1.
         -5    1    4    4    0  501 -0.49325449596E+02 -0.10501495200E+02 -0.90599081743E+02  0.10377353898E+03  0.41800000000E+01 0. -1.
</event>
<event>
11    1  0.6625361E-009  0.1444709E+03  0.7561462E-02  0.1102666E+00
         22   -1    0    0    0    0  0.00000000000E+00  0.00000000000E+00  0.47457884228E+03  0.47457884228E+03  0.00000000000E+00 0. -1.
         22   -1    0    0    0    0 -0.00000000000E+00 -0.00000000000E+00 -0.81787172821E+03  0.81787172821E+03  0.00000000000E+00 0. -1.
         24    2    1    2    0    0  0.55836001688E+02 -0.35260739010E+02 -0.77416705182E+03  0.78086703249E+03  0.77831352962E+02 0.  0.
         25    2    1    2    0    0 -0.60635116856E+02 -0.43741538192E+02  0.15060276454E+03  0.20956781860E+03  0.12509012090E+03 0.  0.
        -24    2    1    2    0    0  0.47991151673E+01  0.79002277202E+02  0.28027140135E+03  0.30201571939E+03  0.79981529330E+02 0.  0.
        -11    1    3    3    0    0  0.26471635191E+02 -0.38363281018E+02 -0.17903002027E+03  0.18499793771E+03  0.00000000000E+00 0.  1.
         12    1    3    3    0    0  0.29364366498E+02  0.31025420077E+01 -0.59513703155E+03  0.59586909478E+03  0.00000000000E+00 0. -1.
         11    1    5    5    0    0 -0.33674113169E+02  0.43094632842E+02  0.18797947338E+03  0.19577378703E+03  0.00000000000E+00 0. -1.
        -12    1    5    5    0    0  0.38473228336E+02  0.35907644360E+02  0.92291927969E+02  0.10624193235E+03  0.00000000000E+00 0.  1.
          5    1    4    4  501    0  0.19538692399E+02 -0.96290533525E+01 -0.11872342739E+02  0.25157585163E+02  0.41800000000E+01 0. -1.
         -5    1    4    4    0  501 -0.80173809254E+02 -0.34112484839E+02  0.16247510728E+03  0.18441023344E+03  0.41800000000E+01 0. -1.
</event>
<event>
11    1  0.6625361E-009  0.2312894E+03  0.7561462E-02  0.1034367E+00
         22   -1    0    0    0    0  0.00000000000E+00  0.00000000000E+00  0.64104940566E+03  0.64104940566E+03  0.00000000000E+00 0.  1.
         22   -1    0    0    0    0 -0.00000000000E+00 -0.00000000000E+00 -0.27580352788E+03  0.27580352788E+03  0.00000000000E+00 0.  1.
         24    2    1    2    0    0 -0.18918514533E+03  0.21262547981E+02 -0.11330896388E+03  0.23461055817E+03  0.77201538521E+02 0.  0.
         25    2    1    2    0    0  0.20447865758E+03 -0.10648593652E+02  0.48259832082E+02  0.24477318396E+03  0.12513986672E+03 0.  0.
        -24    2    1    2    0    0 -0.15293512250E+02 -0.10613954329E+02  0.43029500958E+03  0.43746919141E+03  0.76674315255E+02 0.  0.
        -13    1    3    3    0    0 -0.91207766219E+02  0.16581887607E+02 -0.98753005367E+02  0.13544730224E+03  0.00000000000E+00 0.  1.
         14    1    3    3    0    0 -0.97977379109E+02  0.46806603736E+01 -0.14555958518E+02  0.99163255931E+02  0.00000000000E+00 0. -1.
         11    1    5    5    0    0 -0.11099588585E+02  0.50882275357E+01  0.74325925314E+01  0.14294556934E+02  0.00000000000E+00 0. -1.
        -12    1    5    5    0    0 -0.41939236649E+01 -0.15702181864E+02  0.42286241705E+03  0.42317463448E+03  0.00000000000E+00 0.  1.
          5    1    4    4  501    0  0.57219908582E+02  0.33963774289E+02 -0.28811983591E+02  0.72630976178E+02  0.41800000000E+01 0.  1.
         -5    1    4    4    0  501  0.14725874900E+03 -0.44612367942E+02  0.77071815674E+02  0.17214220778E+03  0.41800000000E+01 0.  1.
</event>
<event>
11    1  0.6625361E-009  0.1347445E+03  0.7561462E-02  0.1113573E+00
         22   -1    0    0    0    0  0.00000000000E+00  0.00000000000E+00  0.11175114986E+04  0.11175114986E+04  0.00000000000E+00 0. -1.
         22   -1    0    0    0    0 -0.00000000000E+00 -0.00000000000E+00 -0.15891793167E+03  0.15891793167E+03  0.00000000000E+00 0.  1.
        -24    2    1    2    0    0 -0.17623461305E+02  0.46256011307E+02 -0.11837189142E+03  0.15098826269E+03  0.79594885635E+02 0.  0.
         25    2    1    2    0    0  0.14623689704E+02 -0.56188741103E+02  0.19048930449E+03  0.23516942897E+03  0.12508980082E+03 0.  0.
         24    2    1    2    0    0  0.29997716004E+01  0.99327297962E+01  0.88647615382E+03  0.89027173857E+03  0.81462503358E+02 0.  0.
        -11    1    5    5    0    0 -0.20627439129E+02 -0.19589239154E+02  0.14120419149E+03  0.14404115117E+03  0.00000000000E+00 0.  1.
         12    1    5    5    0    0  0.23627210729E+02  0.29521968950E+02  0.74527196234E+03  0.74623058741E+03  0.00000000000E+00 0. -1.
         13    1    3    3    0    0  0.22342297262E+02 -0.26625289631E+01 -0.81170889074E+01  0.23919749993E+02  0.00000000000E+00 0. -1.
        -14    1    3    3    0    0 -0.39965758567E+02  0.48918540270E+02 -0.11025480252E+03  0.12706851269E+03  0.00000000000E+00 0.  1.
          5    1    4    4  501    0 -0.49872349703E+02 -0.19612892192E+02  0.38852782458E+02  0.66324414131E+02  0.41800000000E+01 0. -1.
         -5    1    4    4    0  501  0.64496039407E+02 -0.36575848911E+02  0.15163652203E+03  0.16884501484E+03  0.41800000000E+01 0. -1.
</event>
<event>
11    1  0.6625361E-009  0.1464358E+03  0.7561462E-02  0.1100577E+00
         22   -1    0    0    0    0  0.00000000000E+00  0.00000000000E+00  0.33179620931E+03  0.33179620931E+03  0.00000000000E+00 0. -1.
         22   -1    0    0    0    0 -0.00000000000E+00 -0.00000000000E+00 -0.11353235158E+04  0.11353235158E+04  0.00000000000E+00 0.  1.
         24    2    1    2    0    0 -0.18829464924E+02  0.43774671936E+02 -0.47280926039E+03  0.48234501768E+03  0.82688262270E+02 0.  0.
         25    2    1    2    0    0 -0.15344813228E+02 -0.11129830932E+03 -0.63718369747E+03  0.65899435240E+03  0.12509082790E+03 0.  0.
        -24    2    1    2    0    0  0.34174278153E+02  0.67523637381E+02  0.30646565133E+03  0.32578035506E+03  0.80525284227E+02 0.  0.
        -13    1    3    3    0    0 -0.27923715231E+02  0.30605289314E+02 -0.45995671250E+03  0.46181879020E+03  0.00000000000E+00 0.  1.
         14    1    3    3    0    0  0.90942503071E+01  0.13169382622E+02 -0.12852547886E+02  0.20526227477E+02  0.00000000000E+00 0. -1.
         11    1    5    5    0    0  0.32945154273E+02 -0.74592309005E+01  0.12365236150E+03  0.12818318852E+03  0.00000000000E+00 0. -1.
        -12    1    5    5    0    0  0.12291238796E+01  0.74982868281E+02  0.18281328984E+03  0.19759716654E+03  0.00000000000E+00 0.  1.
          5    1    4    4  501    0 -0.16835842020E+02  0.16178056167E+02 -0.25470679473E+03  0.25580891063E+03  0.41800000000E+01 0.  1.
         -5    1    4    4    0  501  0.14910287919E+01 -0.12747636548E+03 -0.38247690274E+03  0.40318544176E+03  0.41800000000E+01 0.  1.
</event>
<event>
11    1  0.6625361E-009  0.1385653E+03  0.7561462E-02  0.1109171E+00
         22   -1    0    0    0    0  0.00000000000E+00  0.00000000000E+00  0.34177170650E+03  0.34177170650E+03  0.00000000000E+00 0.  1.
         22   -1    0    0    0    0 -0.00000000000E+00 -0.00000000000E+00 -0.40416708522E+03  0.40416708522E+03  0.00000000000E+00 0. -1.
         24    2    1    2    0    0 -0.56830651363E+02  0.11109875643E+02 -0.34490607839E+03  0.35911591307E+03  0.81552951112E+02 0.  0.
         25    2    1    2    0    0  0.91478983862E+02 -0.32413200941E+02  0.11223247976E+03  0.19407086122E+03  0.12509336345E+03 0.  0.
        -24    2    1    2    0    0 -0.34648332500E+02  0.21303325298E+02  0.17027821991E+03  0.19275201743E+03  0.80649423029E+02 0.  0.
        -11    1    3    3    0    0  0.19333255011E+01  0.34792145647E+02 -0.91525170453E+02  0.97934100153E+02  0.00000000000E+00 0.  1.
         12    1    3    3    0    0 -0.58763976864E+02 -0.23682270004E+02 -0.25338090794E+03  0.26118181292E+03  0.00000000000E+00 0. -1.
         11    1    5    5    0    0 -0.16924823151E+02  0.18218653690E+02  0.36241026899E+01  0.25129725452E+02  0.00000000000E+00 0. -1.
        -12    1    5    5    0    0 -0.17723509348E+02  0.30846716079E+01  0.16665411722E+03  0.16762229198E+03  0.00000000000E+00 0.  1.
          5    1    4    4  501    0  0.99063347987E+02  0.19204062110E+02  0.49808383051E+02  0.11260857133E+03  0.41800000000E+01 0.  1.
         -5    1    4    4    0  501 -0.75843641247E+01 -0.51617263051E+02  0.62424096708E+02  0.81462289888E+02  0.41800000000E+01 0.  1.
</event>
<event>
11    1  0.6625361E-009  0.1646242E+03  0.7561462E-02  0.1082807E+00
         22   -1    0    0    0    0  0.00000000000E+00  0.00000000000E+00  0.92246453124E+03  0.92246453124E+03  0.00000000000E+00 0. -1.
         22   -1    0    0    0    0 -0.00000000000E+00 -0.00000000000E+00 -0.17117343823E+04  0.17117343823E+04  0.00000000000E+00 0.  1.
        -24    2    1    2    0    0  0.84482804938E+02 -0.55255894882E+02 -0.16368127079E+04  0.16417617826E+04  0.77687527212E+02 0.  0.
         25    2    1    2    0    0 -0.18284798668E+03  0.71270114465E+02  0.13627252770E+03  0.26968676890E+03  0.12509171062E+03 0.  0.
         24    2    1    2    0    0  0.98365181745E+02 -0.16014219583E+02  0.71127032915E+03  0.72275036200E+03  0.80811140582E+02 0.  0.
        -13    1    5    5    0    0  0.24267466228E+02 -0.63420801294E+01  0.39196066314E+02  0.46534541063E+02  0.00000000000E+00 0.  1.
         14    1    5    5    0    0  0.74097715517E+02 -0.96721394532E+01  0.67207426283E+03  0.67621582094E+03  0.00000000000E+00 0. -1.
         13    1    3    3    0    0  0.21989803402E+02 -0.60160479983E+02 -0.74481843283E+03  0.74756761078E+03  0.00000000000E+00 0. -1.
        -14    1    3    3    0    0  0.62493001536E+02  0.49045851004E+01 -0.89199427509E+03  0.89419417186E+03  0.00000000000E+00 0.  1.
          5    1    4    4  501    0 -0.81303406738E+02 -0.32331007563E+02  0.50824981806E+02  0.10127284519E+03  0.41800000000E+01 0. -1.
         -5    1    4    4    0  501 -0.10154457995E+03  0.10360112203E+03  0.85447545891E+02  0.16841392371E+03  0.41800000000E+01 0. -1.
</event>
<event>
11    1  0.6625361E-009  0.1308007E+03  0.7561462E-02  0.1118289E+00
         22   -1    0    0    0    0  0.00000000000E+00  0.00000000000E+00  0.53325161833E+03  0.53325161833E+03  0.00000000000E+00 0. -1.
         22   -1    0    0    0    0 -0.00000000000E+00 -0.00000000000E+00 -0.31834371722E+03  0.31834371722E+03  0.00000000000E+00 0.  1.
         24    2    1    2    0    0  0.94701631522E+01  0.27054687049E+02 -0.25434851283E+03  0.26853422480E+03  0.81214677412E+02 0.  0.
         25    2    1    2    0    0 -0.17079511655E+02  0.12394130199E+02  0.24658551872E+02  0.12924371161E+03  0.12510223271E+03 0.  0.
        -24    2    1    2    0    0  0.76093485024E+01 -0.39448817247E+02  0.44459786207E+03  0.45381739914E+03  0.81663097136E+02 0.  0.
        -11    1    3    3    0    0 -0.22389725616E+02 -0.13523372718E+02 -0.14845524146E+03  0.15074196543E+03  0.00000000000E+00 0.  1.
         12    1    3    3    0    0  0.31859888768E+02  0.40578059767E+02 -0.10589327137E+03  0.11779225937E+03  0.00000000000E+00 0. -1.
         11    1    5    5    0    0 -0.29250945797E+02  0.85378935095E+01  0.14347534975E+03  0.14667545617E+03  0.00000000000E+00 0. -1.
        -12    1    5    5    0    0  0.36860294299E+02 -0.47986710757E+02  0.30112251232E+03  0.30714194297E+03  0.00000000000E+00 0.  1.
          5    1    4    4  501    0 -0.55582520797E+02  0.40492986900E+02  0.39158544581E+02  0.79246215177E+02  0.41800000000E+01 0.  1.
         -5    1    4    4    0  501  0.38503009142E+02 -0.28098856701E+02 -0.14499992708E+02  0.49997496432E+02  0.41800000000E+01 0.  1.
</event>
<event>
11    1  0.6625361E-009  0.2881676E+03  0.7561462E-02  0.1005327E+00
         22   -1    0    0    0    0  0.00000000000E+00  0.00000000000E+00  0.21649739318E+04  0.21649739318E+04  0.00000000000E+00 0. -1.
         22   -1    0    0    0    0 -0.00000000000E+00 -0.00000000000E+00 -0.24692687983E+03  0.24692687983E+03  0.00000000000E+00 0. -1.
         24    2    1    2    0    0 -0.61420886452E+02 -0.38317821394E+02 -0.19346197561E+03  0.22169549841E+03  0.80502032747E+02 0.  0.
         25    2    1    2    0    0  0.28514265884E+03  0.10652855260E+03  0.10610680201E+04  0.11109314701E+04  0.12509484235E+03 0.  0.
        -24    2    1    2    0    0 -0.22372177239E+03 -0.68210731205E+02  0.10504410075E+04  0.10792738431E+04  0.81863196563E+02 0.  0.
        -11    1    3    3    0    0 -0.23931388630E+02  0.19323873741E+02 -0.24652486649E+02  0.39419139464E+02  0.00000000000E+00 0.  1.
         12    1    3    3    0    0 -0.37489497822E+02 -0.57641695135E+02 -0.16880948896E+03  0.18227635894E+03  0.00000000000E+00 0. -1.
         11    1    5    5    0    0 -0.17655144189E+03 -0.18991763184E+02  0.81745065791E+03  0.83651460048E+03  0.00000000000E+00 0. -1.
        -12    1    5    5    0    0 -0.47170330499E+02 -0.49218968022E+02  0.23299034956E+03  0.24275924263E+03  0.00000000000E+00 0.  1.
          5    1    4    4  501    0  0.16281553606E+03  0.83737462817E+02  0.81302651249E+03  0.83339693056E+03  0.41800000000E+01 0. -1.
         -5    1    4    4    0  501  0.12232712278E+03  0.22791089782E+02  0.24804150762E+03  0.27753453955E+03  0.41800000000E+01 0. -1.
</event>
<event>
11    1  0.6625361E-009  0.1366692E+03  0.7561462E-02  0.1111336E+00
         22   -1    0    0    0    0  0.00000000000E+00  0.00000000000E+00  0.26069179121E+04  0.26069179121E+04  0.00000000000E+00 0. -1.
         22   -1    0    0    0    0 -0.00000000000E+00 -0.00000000000E+00 -0.11438909724E+04  0.11438909724E+04  0.00000000000E+00 0. -1.
        -24    2    1    2    0    0  0.49573024488E+02 -0.29131013148E+02 -0.10436276468E+04  0.10483308940E+04  0.80826340948E+02 0.  0.
         25    2    1    2    0    0 -0.22396339231E+02 -0.17390992213E+02 -0.54549276453E+02  0.13938408843E+03  0.12509299711E+03 0.  0.
         24    2    1    2    0    0 -0.27176685257E+02  0.46522005361E+02  0.25612038630E+04  0.25630939021E+04  0.82354440316E+02 0.  0.
        -11    1    5    5    0    0 -0.20547190826E+02  0.52292296450E+02  0.84420569837E+03  0.84607324297E+03  0.00000000000E+00 0.  1.
         12    1    5    5    0    0 -0.66294944310E+01 -0.57702910890E+01  0.17169981646E+04  0.17170206591E+04  0.00000000000E+00 0. -1.
         13    1    3    3    0    0  0.16016727160E+02 -0.52330994528E+02 -0.73223799246E+03  0.73428029126E+03  0.00000000000E+00 0. -1.
        -14    1    3    3    0    0  0.33556297328E+02  0.23199981380E+02 -0.31138965435E+03  0.31405060271E+03  0.00000000000E+00 0.  1.
          5    1    4    4  501    0 -0.59069477628E+02 -0.49918955893E+02 -0.22443283740E+02  0.80636708326E+02  0.41800000000E+01 0.  1.
         -5    1    4    4    0  501  0.36673138397E+02  0.32527963679E+02 -0.32105992714E+02  0.58747380104E+02  0.41800000000E+01 0.  1.
</event>
<event>
11    1  0.6625361E-009  0.1506448E+03  0.7561462E-02  0.1096222E+00
         22   -1    0    0    0    0  0.00000000000E+00  0.00000000000E+00  0.17087927931E+03  0.17087927931E+03  0.00000000000E+00 0.  1.
         22   -1    0    0    0    0 -0.00000000000E+00 -0.00000000000E+00 -0.11121060751E+04  0.11121060751E+04  0.00000000000E+00 0.  1.
         24    2    1    2    0    0  0.12063483029E+02 -0.15960446074E+02 -0.99551037745E+03  0.99890942177E+03  0.79867752055E+02 0.  0.
         25    2    1    2    0    0  0.42634128158E+02  0.77788887891E+02 -0.73238109552E+01  0.15352351502E+03  0.12508817488E+03 0.  0.
        -24    2    1    2    0    0 -0.54697611188E+02 -0.61828441817E+02  0.61607392661E+02  0.13055241758E+03  0.80211458153E+02 0.  0.
        -11    1    3    3    0    0  0.39301376506E+02 -0.26707953151E+02 -0.77616866044E+03  0.77762182480E+03  0.00000000000E+00 0.  1.
         12    1    3    3    0    0 -0.27237893476E+02  0.10747507077E+02 -0.21934171701E+03  0.22128759697E+03  0.00000000000E+00 0. -1.
         13    1    5    5    0    0 -0.49193305712E+02 -0.81166179306E+02  0.48890527108E+02  0.10676241675E+03  0.00000000000E+00 0. -1.
        -14    1    5    5    0    0 -0.55043054756E+01  0.19337737489E+02  0.12716865553E+02  0.23790000830E+02  0.00000000000E+00 0.  1.
          5    1    4    4  501    0 -0.42214764852E+02  0.82288932327E+01  0.25245045536E+01  0.43285639404E+02  0.41800000000E+01 0.  1.
         -5    1    4    4    0  501  0.84848893011E+02  0.69559994659E+02 -0.98483155088E+01  0.11023787562E+03  0.41800000000E+01 0.  1.
</event>
<event>
11    1  0.6625361E-009  0.1552539E+03  0.7561462E-02  0.1091628E+00
         22   -1    0    0    0    0  0.00000000000E+00  0.00000000000E+00  0.35378171294E+03  0.35378171294E+03  0.00000000000E+00 0. -1.
         22   -1    0    0    0    0 -0.00000000000E+00 -0.00000000000E+00 -0.33957539954E+03  0.33957539954E+03  0.00000000000E+00 0. -1.
        -24    2    1    2    0    0 -0.23879747199E+02 -0.25799769865E+02 -0.25074251659E+03  0.26539706056E+03  0.79548222316E+02 0.  0.
         25    2    1    2    0    0  0.77142281039E+02 -0.50777568645E+02  0.30448233891E+02  0.15844400275E+03  0.12509242206E+03 0.  0.
         24    2    1    2    0    0 -0.53262533841E+02  0.76577338510E+02  0.23450059610E+03  0.26951604917E+03  0.94590617436E+02 0.  0.
        -11    1    5    5    0    0 -0.17744230042E+02  0.48176971208E+02  0.28838140509E+02  0.58885623055E+02  0.00000000000E+00 0.  1.
         12    1    5    5    0    0 -0.35518303799E+02  0.28400367302E+02  0.20566245559E+03  0.21063042612E+03  0.00000000000E+00 0. -1.
         11    1    3    3    0    0  0.27788134253E+02 -0.50430998710E+00 -0.59146825732E+02  0.65351218259E+02  0.00000000000E+00 0. -1.
        -12    1    3    3    0    0 -0.51667881452E+02 -0.25295459878E+02 -0.19159569086E+03  0.20004584230E+03  0.00000000000E+00 0.  1.
          5    1    4    4  501    0  0.85623352773E+02 -0.83401421649E+02  0.33871041429E+02  0.12430557317E+03  0.41800000000E+01 0. -1.
         -5    1    4    4    0  501 -0.84810717335E+01  0.32623853005E+02 -0.34228075382E+01  0.34138429578E+02  0.41800000000E+01 0. -1.
</event>
<event>
11    1  0.6625361E-009  0.1516392E+03  0.7561462E-02  0.1095216E+00
         22   -1    0    0    0    0  0.00000000000E+00  0.00000000000E+00  0.15474855519E+04  0.15474855519E+04  0.00000000000E+00 0. -1.
         22   -1    0    0    0    0 -0.00000000000E+00 -0.00000000000E+00 -0.39647656879E+03  0.39647656879E+03  0.00000000000E+00 0.  1.
         24    2    1    2    0    0 -0.23336961848E+02 -0.90315949291E+01 -0.31525520916E+03  0.32671576786E+03  0.82043662554E+02 0.  0.
         25    2    1    2    0    0  0.24851712612E+02  0.94432721974E+02  0.12898359977E+02  0.15921643198E+03  0.12509339680E+03 0.  0.
        -24    2    1    2    0    0 -0.15147507637E+01 -0.85401127045E+02  0.14533658323E+04  0.14580299208E+04  0.79267651857E+02 0.  0.
        -13    1    3    3    0    0 -0.15591602582E+02  0.93043786733E-01 -0.31432446387E+03  0.31471093930E+03  0.00000000000E+00 0.  1.
         14    1    3    3    0    0 -0.77453592663E+01 -0.91246387158E+01 -0.93074529485E+00  0.12004828556E+02  0.00000000000E+00 0. -1.
         13    1    5    5    0    0  0.22779550938E+02 -0.53028504864E+02  0.12055380565E+04  0.12069187777E+04  0.00000000000E+00 0. -1.
        -14    1    5    5    0    0 -0.24294301702E+02 -0.32372622182E+02  0.24782777576E+03  0.25111114312E+03  0.00000000000E+00 0.  1.
          5    1    4    4  501    0  0.33805083733E+02 -0.22832003975E+02  0.27254310726E+01  0.41097256188E+02  0.41800000000E+01 0. -1.
         -5    1    4    4    0  501 -0.89533711208E+01  0.11726472595E+03  0.10172928905E+02  0.11811917579E+03  0.41800000000E+01 0. -1.
</event>
<event>
11    1  0.6625361E-009  0.3003208E+03  0.7561462E-02  0.1000056E+00
         22   -1    0    0    0    0  0.00000000000E+00  0.00000000000E+00  0.19602233777E+03  0.19602233777E+03  0.00000000000E+00 0.  1.
         22   -1    0    0    0    0 -0.00000000000E+00 -0.00000000000E+00 -0.27464848165E+04  0.27464848165E+04  0.00000000000E+00 0.  1.
        -24    2    1    2    0    0 -0.20178509353E+03  0.19026578384E+03 -0.25174196957E+04  0.25338707578E+04  0.78618065185E+02 0.  0.
         25    2    1    2    0    0  0.17411901588E+03 -0.14751430955E+03 -0.11047059362E+03  0.28271530017E+03  0.12508511374E+03 0.  0.
         24    2    1    2    0    0  0.27666077645E+02 -0.42751474286E+02  0.77427810630E+02  0.12592109632E+03  0.85252309262E+02 0.  0.
        -11    1    5    5    0    0  0.53020212457E+02 -0.10566512710E+02  0.61698613087E+02  0.82033608824E+02  0.00000000000E+00 0.  1.
         12    1    5    5    0    0 -0.25354134812E+02 -0.32184961576E+02  0.15729197542E+02  0.43887487499E+02  0.00000000000E+00 0. -1.
         11    1    3    3    0    0 -0.20509257370E+02 -0.53107476995E+01 -0.15267928616E+03  0.15414213603E+03  0.00000000000E+00 0. -1.
        -12    1    3    3    0    0 -0.18127583616E+03  0.19557653154E+03 -0.23647404096E+04  0.23797286217E+04  0.00000000000E+00 0.  1.
          5    1    4    4  501    0  0.22926329541E+02  0.41744425947E+01  0.20772667666E+02  0.31496328027E+02  0.41800000000E+01 0.  1.
         -5    1    4    4    0  501  0.15119268634E+03 -0.15168875215E+03 -0.13124326129E+03  0.25121897214E+03  0.41800000000E+01 0.  1.
</event>
<event>
11    1  0.6625361E-009  0.1590730E+03  0.7561462E-02  0.1087952E+00
         22   -1    0    0    0    0  0.00000000000E+00  0.00000000000E+00  0.93140406258E+02  0.93140406258E+02  0.00000000000E+00 0. -1.
         22   -1    0    0    0    0 -0.00000000000E+00 -0.00000000000E+00 -0.21953324558E+04  0.21953324558E+04  0.00000000000E+00 0.  1.
         24    2    1    2    0    0  0.15103786275E+02 -0.24699256830E+02 -0.18714242250E+04  0.18734531900E+04  0.82219508484E+02 0.  0.
         25    2    1    2    0    0  0.63046352309E+02  0.83195494915E+02 -0.23787623516E+03  0.28832222095E+03  0.12509303309E+03 0.  0.
        -24    2    1    2    0    0 -0.78150138585E+02 -0.58496238086E+02  0.71084106103E+01  0.12669745111E+03  0.80451603993E+02 0.  0.
        -11    1    3    3    0    0 -0.18290819835E+02 -0.19517963847E+02 -0.15548949248E+04  0.15551249893E+04  0.00000000000E+00 0.  1.
         12    1    3    3    0    0  0.33394606111E+02 -0.51812929826E+01 -0.31652930012E+03  0.31832820068E+03  0.00000000000E+00 0. -1.
         11    1    5    5    0    0 -0.27009575893E+02 -0.61614164464E+02  0.25952344691E+02  0.72106495183E+02  0.00000000000E+00 0. -1.
        -12    1    5    5    0    0 -0.51140562692E+02  0.31179263786E+01 -0.18843934081E+02  0.54590955926E+02  0.00000000000E+00 0.  1.
          5    1    4    4  501    0  0.79846902777E+02  0.10250810614E+03 -0.15952157184E+03  0.20578640381E+03  0.41800000000E+01 0. -1.
         -5    1    4    4    0  501 -0.16800550467E+02 -0.19312611229E+02 -0.78354663320E+02  0.82535817149E+02  0.41800000000E+01 0. -1.
</event>
<event>
11    1  0.6625361E-009  0.1372031E+03  0.7561462E-02  0.1110722E+00
         22   -1    0    0    0    0  0.00000000000E+00  0.00000000000E+00  0.74048502027E+03  0.74048502027E+03  0.00000000000E+00 0.  1.
         22   -1    0    0    0    0 -0.00000000000E+00 -0.00000000000E+00 -0.19694057562E+03  0.19694057562E+03  0.00000000000E+00 0.  1.
        -24    2    1    2    0    0 -0.33276775777E+02  0.31151285459E+01 -0.10583358857E+03  0.13756796134E+03  0.81284363107E+02 0.  0.
         25    2    1    2    0    0  0.81596751355E+02  0.23111232279E+02  0.82344537522E+01  0.15136113138E+03  0.12510086721E+03 0.  0.
         24    2    1    2    0    0 -0.48319975579E+02 -0.26226360825E+02  0.64114357946E+03  0.64849650318E+03  0.80374020070E+02 0.  0.
        -11    1    5    5    0    0 -0.15432591490E+02 -0.18533605914E+02  0.56110940347E+03  0.56162747626E+03  0.00000000000E+00 0.  1.
         12    1    5    5    0    0 -0.32887384088E+02 -0.76927549112E+01  0.80034175994E+02  0.86869026916E+02  0.00000000000E+00 0. -1.
         13    1    3    3    0    0 -0.16542709203E+01 -0.27256731549E+02 -0.52001091853E+01  0.27797610735E+02  0.00000000000E+00 0. -1.
        -14    1    3    3    0    0 -0.31622504857E+02  0.30371860095E+02 -0.10063347938E+03  0.10977035060E+03  0.00000000000E+00 0.  1.
          5    1    4    4  501    0  0.10361352428E+03 -0.92401825981E+01  0.27303621838E+02  0.10762947344E+03  0.41800000000E+01 0.  1.
         -5    1    4    4    0  501 -0.22016772925E+02  0.32351414877E+02 -0.19069168086E+02  0.43731657939E+02  0.41800000000E+01 0.  1.
</event>
<event>
11    1  0.6625361E-009  0.1983504E+03  0.7561462E-02  0.1055696E+00
         22   -1    0    0    0    0  0.00000000000E+00  0.00000000000E+00  0.10177179050E+03  0.10177179050E+03  0.00000000000E+00 0. -1.
         22   -1    0    0    0    0 -0.00000000000E+00 -0.00000000000E+00 -0.10304618862E+04  0.10304618862E+04  0.00000000000E+00 0.  1.
         24    2    1    2    0    0  0.14427423242E+03  0.15946793901E+02 -0.51781352067E+03  0.54373328763E+03  0.80285064116E+02 0.  0.
         25    2    1    2    0    0 -0.15804834337E+03 -0.88491553044E+02 -0.42451597044E+03  0.47819623422E+03  0.12509114861E+03 0.  0.
        -24    2    1    2    0    0  0.13774110953E+02  0.72544759143E+02  0.13639395454E+02  0.11030415479E+03  0.80799166113E+02 0.  0.
        -13    1    3    3    0    0  0.15271756988E+03  0.11372303102E+02 -0.45235449564E+03  0.47757363323E+03  0.00000000000E+00 0.  1.
         14    1    3    3    0    0 -0.84433374663E+01  0.45744907984E+01 -0.65459025021E+02  0.66159654400E+02  0.00000000000E+00 0. -1.
         13    1    5    5    0    0  0.43355600739E+02  0.18619856679E+02  0.12395479021E+02  0.48785808165E+02  0.00000000000E+00 0. -1.
        -14    1    5    5    0    0 -0.29581489786E+02  0.53924902464E+02  0.12439164336E+01  0.61518346628E+02  0.00000000000E+00 0.  1.
          5    1    4    4  501    0 -0.10171578358E+03  0.13301565648E+02 -0.22232704548E+03  0.24488736152E+03  0.41800000000E+01 0.  1.
         -5    1    4    4    0  501 -0.56332559787E+02 -0.10179311869E+03 -0.20218892496E+03  0.23330887270E+03  0.41800000000E+01 0.  1.
</event>
<event>
11    1  0.6625361E-009  0.1393476E+03  0.7561462E-02  0.1108289E+00
         22   -1    0    0    0    0  0.00000000000E+00  0.00000000000E+00  0.29329548159E+03  0.29329548159E+03  0.00000000000E+00 0.  1.
         22   -1    0    0    0    0 -0.00000000000E+00 -0.00000000000E+00 -0.70184531107E+03  0.70184531107E+03  0.00000000000E+00 0.  1.
         24    2    1    2    0    0  0.52174007754E+02  0.23049480252E+02 -0.48351334713E+03  0.49343668537E+03  0.80257086865E+02 0.  0.
         25    2    1    2    0    0 -0.78655834211E+02 -0.34707843688E+02 -0.17844415291E+03  0.23426642613E+03  0.12508824100E+03 0.  0.
        -24    2    1    2    0    0  0.26481826458E+02  0.11658363436E+02  0.25340767056E+03  0.26743768116E+03  0.80437934047E+02 0.  0.
        -13    1    3    3    0    0  0.17027091943E+02 -0.21198985185E+01 -0.39040716383E+03  0.39078404445E+03  0.00000000000E+00 0.  1.
         14    1    3    3    0    0  0.35146915811E+02  0.25169378770E+02 -0.93106183305E+02  0.10265264092E+03  0.00000000000E+00 0. -1.
         13    1    5    5    0    0 -0.37588570128E+01 -0.30310843101E+01 -0.49421719366E+01  0.69095254242E+01  0.00000000000E+00 0. -1.
        -14    1    5    5    0    0  0.30240683471E+02  0.14689447746E+02  0.25834984250E+03  0.26052815573E+03  0.00000000000E+00 0.  1.
          5    1    4    4  501    0  0.13038085439E+02 -0.16410400524E+02  0.10198967596E+02  0.23680883795E+02  0.41800000000E+01 0.  1.
         -5    1    4    4    0  501 -0.91693919650E+02 -0.18297443164E+02 -0.18864312050E+03  0.21058554233E+03  0.41800000000E+01 0.  1.
</event>
<event>
11    1  0.6625361E-009  0.1472250E+03  0.7561462E-02  0.1099748E+00
         22   -1    0    0    0    0  0.00000000000E+00  0.00000000000E+00  0.32339103080E+03  0.32339103080E+03  0.00000000000E+00 0.  1.
         22   -1    0    0    0    0 -0.00000000000E+00 -0.00000000000E+00 -0.97611012268E+03  0.97611012268E+03  0.00000000000E+00 0. -1.
        -24    2    1    2    0    0  0.14836120848E+02  0.55993296826E+01 -0.84353685734E+03  0.84767057750E+03  0.82094550979E+02 0.  0.
         25    2    1    2    0    0 -0.86905146776E+02  0.20171717573E+02 -0.68889575762E+02  0.16838035122E+03  0.12508703491E+03 0.  0.
         24    2    1    2    0    0  0.72069025928E+02 -0.25771047256E+02  0.25970734122E+03  0.28345022475E+03  0.83893000044E+02 0.  0.
        -13    1    5    5    0    0  0.77667557037E+02 -0.46771229609E+02  0.19177672055E+03  0.21212757454E+03  0.00000000000E+00 0.  1.
         14    1    5    5    0    0 -0.55985311085E+01  0.21000182354E+02  0.67930620665E+02  0.71322650212E+02  0.00000000000E+00 0. -1.
         11    1    3    3    0    0  0.29973742317E+02  0.29341290685E+02 -0.25223679205E+03  0.25570048071E+03  0.00000000000E+00 0. -1.
        -12    1    3    3    0    0 -0.15137621469E+02 -0.23741961003E+02 -0.59130006528E+03  0.59197009680E+03  0.00000000000E+00 0.  1.
          5    1    4    4  501    0 -0.58491976540E+01 -0.37094862991E+02  0.12671528328E+02  0.39853255873E+02  0.41800000000E+01 0.  1.
         -5    1    4    4    0  501 -0.81055949122E+02  0.57266580564E+02 -0.81561104089E+02  0.12852709534E+03  0.41800000000E+01 0.  1.
</event>
<event>
11    1  0.6625361E-009  0.1370120E+03  0.7561462E-02  0.1110942E+00
         22   -1    0    0    0    0  0.00000000000E+00  0.00000000000E+00  0.99259679429E+03  0.99259679429E+03  0.00000000000E+00 0. -1.
         22   -1    0    0    0    0 -0.00000000000E+00 -0.00000000000E+00 -0.66441990732E+03  0.66441990732E+03  0.00000000000E+00 0.  1.
        -24    2    1    2    0    0 -0.36407549680E+02 -0.48430681492E+02 -0.63502851193E+03  0.64289438028E+03  0.79880740209E+02 0.  0.
         25    2    1    2    0    0  0.59192080262E+02 -0.66063725109E+01  0.19534554589E+03  0.23948866474E+03  0.12509033423E+03 0.  0.
         24    2    1    2    0    0 -0.22784530583E+02  0.55037054003E+02  0.76785985301E+03  0.77463365658E+03  0.83068260475E+02 0.  0.
        -11    1    5    5    0    0  0.26367917107E+01  0.24369687222E+02  0.50156193790E+02  0.55825425223E+02  0.00000000000E+00 0.  1.
         12    1    5    5    0    0 -0.25421322293E+02  0.30667366781E+02  0.71770365922E+03  0.71880823136E+03  0.00000000000E+00 0. -1.
         11    1    3    3    0    0 -0.57362882601E+02 -0.18688504112E+02 -0.30838919727E+03  0.31423503541E+03  0.00000000000E+00 0. -1.
        -12    1    3    3    0    0  0.20955332921E+02 -0.29742177380E+02 -0.32663931465E+03  0.32865934487E+03  0.00000000000E+00 0.  1.
          5    1    4    4  501    0  0.47509403327E+02  0.17950866173E+02  0.97735412163E+01  0.51888067114E+02  0.41800000000E+01 0. -1.
         -5    1    4    4    0  501  0.11682676935E+02 -0.24557238683E+02  0.18557200467E+03  0.18760059763E+03  0.41800000000E+01 0. -1.
</event>
<event>
11    1  0.6625361E-009  0.1366933E+03  0.7561462E-02  0.1111308E+00
         22   -1    0    0    0    0  0.00000000000E+00  0.00000000000E+00  0.15316360285E+04  0.15316360285E+04  0.00000000000E+00 0. -1.
         22   -1    0    0    0    0 -0.00000000000E+00 -0.00000000000E+00 -0.33027747953E+02  0.33027747953E+02  0.00000000000E+00 0. -1.
        -24    2    1    2    0    0  0.39157543184E+02  0.36074267871E+02  0.79467854661E+02  0.12517513165E+03  0.80740371984E+02 0.  0.
         25    2    1    2    0    0 -0.32772132671E+02 -0.62519637103E+02  0.65120834442E+03  0.66686043875E+03  0.12509124364E+03 0.  0.
         24    2    1    2    0    0 -0.63854105133E+01  0.26445369232E+02  0.76793208149E+03  0.77262820607E+03  0.80588659337E+02 0.  0.
        -13    1    5    5    0    0  0.81199945725E+01 -0.18404952440E+02  0.51176982453E+03  0.51216504165E+03  0.00000000000E+00 0.  1.
         14    1    5    5    0    0 -0.14505405086E+02  0.44850321671E+02  0.25616225696E+03  0.26046316443E+03  0.00000000000E+00 0. -1.
         11    1    3    3    0    0  0.48180765363E+02 -0.16589376253E+01  0.16012329834E+02  0.50798946168E+02  0.00000000000E+00 0. -1.
        -12    1    3    3    0    0 -0.90232221796E+01  0.37733205496E+02  0.63455524827E+02  0.74376185480E+02  0.00000000000E+00 0.  1.
          5    1    4    4  501    0  0.14610723876E+02  0.30661360948E+02  0.24579200587E+03  0.24816279910E+03  0.41800000000E+01 0. -1.
         -5    1    4    4    0  501 -0.47382856547E+02 -0.93180998050E+02  0.40541633855E+03  0.41869763966E+03  0.41800000000E+01 0. -1.
</event>
<event>
11    1  0.6625361E-009  0.3636547E+03  0.7561462E-02  0.9763536E-01
         22   -1    0    0    0    0  0.00000000000E+00  0.00000000000E+00  0.42592926525E+03  0.42592926525E+03  0.00000000000E+00 0.  1.
         22   -1    0    0    0    0 -0.00000000000E+00 -0.00000000000E+00 -0.18408155192E+04  0.18408155192E+04  0.00000000000E+00 0.  1.
         24    2    1    2    0    0 -0.17812677946E+03  0.29248721062E+03 -0.14109270765E+04  0.14541884798E+04  0.81676200028E+02 0.  0.
         25    2    1    2    0    0  0.13981120423E+03 -0.30961298307E+03 -0.32044203573E+03  0.48346819242E+03  0.12510404752E+03 0.  0.
        -24    2    1    2    0    0  0.38315575230E+02  0.17125772443E+02  0.31648285832E+03  0.32908811220E+03  0.79851177794E+02 0.  0.
        -13    1    3    3    0    0 -0.15024737266E+03  0.18772272243E+03 -0.10584015275E+04  0.10853699309E+04  0.00000000000E+00 0.  1.
         14    1    3    3    0    0 -0.27879406799E+02  0.10476448820E+03 -0.35252554901E+03  0.36881854890E+03  0.00000000000E+00 0. -1.
         11    1    5    5    0    0  0.53826240630E+02  0.19674187818E+02  0.13158532893E+03  0.14352364486E+03  0.00000000000E+00 0. -1.
        -12    1    5    5    0    0 -0.15510665400E+02 -0.25484153747E+01  0.18489752939E+03  0.18556446734E+03  0.00000000000E+00 0.  1.
          5    1    4    4  501    0  0.20577382036E+02 -0.19256128358E+03 -0.19137748890E+03  0.27229780065E+03  0.41800000000E+01 0.  1.
         -5    1    4    4    0  501  0.11923382220E+03 -0.11705169949E+03 -0.12906454684E+03  0.21117039177E+03  0.41800000000E+01 0.  1.
</event>
<event>
11    1  0.6625361E-009  0.1378718E+03  0.7561462E-02  0.1109958E+00
         22   -1    0    0    0    0  0.00000000000E+00  0.00000000000E+00  0.89249515384E+03  0.89249515384E+03  0.00000000000E+00 0. -1.
         22   -1    0    0    0    0 -0.00000000000E+00 -0.00000000000E+00 -0.11663013035E+04  0.11663013035E+04  0.00000000000E+00 0. -1.
        -24    2    1    2    0    0  0.68962376016E+01 -0.32480660098E+02 -0.97957819229E+03  0.98307519044E+03  0.75900223093E+02 0.  0.
         25    2    1    2    0    0 -0.30755664346E+02  0.84772658523E+02 -0.14949684811E+03  0.21477689118E+03  0.12508993113E+03 0.  0.
         24    2    1    2    0    0  0.23859426744E+02 -0.52291998425E+02  0.85526889072E+03  0.86094437573E+03  0.80228531811E+02 0.  0.
        -11    1    5    5    0    0  0.22462863437E+02 -0.83276708924E+01  0.62161948650E+02  0.66618602479E+02  0.00000000000E+00 0.  1.
         12    1    5    5    0    0  0.13965633072E+01 -0.43964327532E+02  0.79310694207E+03  0.79432577325E+03  0.00000000000E+00 0. -1.
         13    1    3    3    0    0  0.37888375730E+02 -0.33359016013E+02 -0.68925304689E+03  0.69109920823E+03  0.00000000000E+00 0. -1.
        -14    1    3    3    0    0 -0.30992138129E+02  0.87835591523E+00 -0.29032514540E+03  0.29197598221E+03  0.00000000000E+00 0.  1.
          5    1    4    4  501    0 -0.42353601703E+02  0.95626357150E+02 -0.16286489472E+03  0.19359926159E+03  0.41800000000E+01 0.  1.
         -5    1    4    4    0  501  0.11597937357E+02 -0.10853698628E+02  0.13368046608E+02  0.21177629588E+02  0.41800000000E+01 0.  1.
</event>
<event>
11    1  0.6625361E-009  0.1750688E+03  0.7561462E-02  0.1073703E+00
         22   -1    0    0    0    0  0.00000000000E+00  0.00000000000E+00  0.72239335076E+03  0.72239335076E+03  0.00000000000E+00 0. -1.
         22   -1    0    0    0    0 -0.00000000000E+00 -0.00000000000E+00 -0.13708526397E+03  0.13708526397E+03  0.00000000000E+00 0. -1.
        -24    2    1    2    0    0 -0.12013270710E+02 -0.65854728060E+00 -0.24368173775E+02  0.86669722838E+02  0.82298727851E+02 0.  0.
         25    2    1    2    0    0  0.13132640967E+03  0.21642337039E+02  0.42685203591E+02  0.18757588258E+03  0.12509064110E+03 0.  0.
         24    2    1    2    0    0 -0.11931313896E+03 -0.20983789758E+02  0.56699105696E+03  0.58523300932E+03  0.79642149350E+02 0.  0.
        -11    1    5    5    0    0 -0.29305030199E+02 -0.38182684591E+02  0.12732575657E+03  0.13611961829E+03  0.00000000000E+00 0.  1.
         12    1    5    5    0    0 -0.90008108760E+02  0.17198894833E+02  0.43966530040E+03  0.44911339103E+03  0.00000000000E+00 0. -1.
         13    1    3    3    0    0 -0.42197043547E+02  0.17040207130E+02 -0.24490887686E+02  0.51679422624E+02  0.00000000000E+00 0. -1.
        -14    1    3    3    0    0  0.30183772836E+02 -0.17698754411E+02  0.12271391024E+00  0.34990300214E+02  0.00000000000E+00 0.  1.
          5    1    4    4  501    0  0.31466665292E+02  0.65943570416E+02  0.20763446453E+02  0.76074296661E+02  0.41800000000E+01 0.  1.
         -5    1    4    4    0  501  0.99859744377E+02 -0.44301233378E+02  0.21921757138E+02  0.11150158592E+03  0.41800000000E+01 0.  1.
</event>
<event>
11    1  0.6625361E-009  0.1656547E+03  0.7561462E-02  0.1081876E+00
         22   -1    0    0    0    0  0.00000000000E+00  0.00000000000E+00  0.56406238908E+03  0.56406238908E+03  0.00000000000E+00 0. -1.
         22   -1    0    0    0    0 -0.00000000000E+00 -0.00000000000E+00 -0.57793498414E+03  0.57793498414E+03  0.00000000000E+00 0. -1.
        -24    2    1    2    0    0  0.99321449781E+02  0.64304383092E+01 -0.40401154484E+03  0.42366605533E+03  0.79758994181E+02 0.  0.
         25    2    1    2    0    0 -0.17860525622E+03  0.34124686706E+01 -0.82417193785E+02  0.23313570344E+03  0.12509268522E+03 0.  0.
         24    2    1    2    0    0  0.79283806434E+02 -0.98429069798E+01  0.47255614357E+03  0.48519561444E+03  0.75648335527E+02 0.  0.
        -11    1    5    5    0    0  0.56072583547E+02 -0.29523621741E+00  0.12820715363E+03  0.13993318417E+03  0.00000000000E+00 0.  1.
         12    1    5    5    0    0  0.23211222887E+02 -0.95476707624E+01  0.34434898994E+03  0.34526243027E+03  0.00000000000E+00 0. -1.
         13    1    3    3    0    0  0.16676603592E+02  0.35836083778E+02 -0.13924776525E+03  0.14474900392E+03  0.00000000000E+00 0. -1.
        -14    1    3    3    0    0  0.82644846189E+02 -0.29405645468E+02 -0.26476377959E+03  0.27891705141E+03  0.00000000000E+00 0.  1.
          5    1    4    4  501    0 -0.78828624401E+02 -0.67240400901E+01 -0.10372660034E+03  0.13052143409E+03  0.41800000000E+01 0. -1.
         -5    1    4    4    0  501 -0.99776631814E+02  0.10136508761E+02  0.21309406552E+02  0.10261426935E+03  0.41800000000E+01 0. -1.
</event>
<event>
11    1  0.6625361E-009  0.1395364E+03  0.7561462E-02  0.1108077E+00
         22   -1    0    0    0    0  0.00000000000E+00  0.00000000000E+00  0.38013489668E+03  0.38013489668E+03  0.00000000000E+00 0. -1.
         22   -1    0    0    0    0 -0.00000000000E+00 -0.00000000000E+00 -0.88470481662E+03  0.88470481662E+03  0.00000000000E+00 0. -1.
        -24    2    1    2    0    0  0.50743109978E+02  0.18180503530E+02 -0.81301768001E+03  0.81873633218E+03  0.80162582969E+02 0.  0.
         25    2    1    2    0    0  0.73018560967E+01  0.18355308233E+02  0.70425386551E+01  0.12685808479E+03  0.12511251689E+03 0.  0.
         24    2    1    2    0    0 -0.58044966075E+02 -0.36535811762E+02  0.30140522141E+03  0.31924529633E+03  0.79802055777E+02 0.  0.
        -11    1    5    5    0    0 -0.62129728226E+02 -0.53364127028E+02  0.19594795753E+03  0.21237569363E+03  0.00000000000E+00 0.  1.
         12    1    5    5    0    0  0.40847621517E+01  0.16828315266E+02  0.10545726388E+03  0.10686960270E+03  0.00000000000E+00 0. -1.
         13    1    3    3    0    0  0.50477796821E+02  0.26475553003E+02 -0.80557372090E+03  0.80758775541E+03  0.00000000000E+00 0. -1.
        -14    1    3    3    0    0  0.26531315694E+00 -0.82950494732E+01 -0.74439591022E+01  0.11148576768E+02  0.00000000000E+00 0.  1.
          5    1    4    4  501    0  0.31417671537E+02 -0.44544209612E+02 -0.13492494386E+02  0.56309648370E+02  0.41800000000E+01 0. -1.
         -5    1    4    4    0  501 -0.24115815440E+02  0.62899517844E+02  0.20535033041E+02  0.70548436421E+02  0.41800000000E+01 0. -1.
</event>
<event>
11    1  0.6625361E-009  0.1404294E+03  0.7561462E-02  0.1107080E+00
         22   -1    0    0    0    0  0.00000000000E+00  0.00000000000E+00  0.20378437361E+03  0.20378437361E+03  0.00000000000E+00 0. -1.
         22   -1    0    0    0    0 -0.00000000000E+00 -0.00000000000E+00 -0.57814374420E+03  0.57814374420E+03  0.00000000000E+00 0. -1.
         24    2    1    2    0    0 -0.34764623556E+02  0.71596924146E+02 -0.41119295455E+03  0.42662460550E+03  0.81204738472E+02 0.  0.
         25    2    1    2    0    0 -0.19390664571E+02 -0.13574430251E+02 -0.11108036658E+03  0.16895924598E+03  0.12509242956E+03 0.  0.
        -24    2    1    2    0    0  0.54155288127E+02 -0.58022493895E+02  0.14791395055E+03  0.18634426633E+03  0.80908861060E+02 0.  0.
        -11    1    3    3    0    0 -0.49862409725E+02  0.29391473962E+02 -0.13599079747E+03  0.14779585800E+03  0.00000000000E+00 0.  1.
         12    1    3    3    0    0  0.15097786169E+02  0.42205450184E+02 -0.27520215709E+03  0.27882874751E+03  0.00000000000E+00 0. -1.
         13    1    5    5    0    0  0.58586945143E+02 -0.55217740089E+01  0.94447963140E+02  0.11128044694E+03  0.00000000000E+00 0. -1.
        -14    1    5    5    0    0 -0.44316570154E+01 -0.52500719886E+02  0.53465987405E+02  0.75063819392E+02  0.00000000000E+00 0.  1.
          5    1    4    4  501    0  0.11512759883E+02  0.50565770608E+02 -0.68063276003E+02  0.85671014571E+02  0.41800000000E+01 0. -1.
         -5    1    4    4    0  501 -0.30903424454E+02 -0.64140200859E+02 -0.43017090577E+02  0.83288231407E+02  0.41800000000E+01 0. -1.
</event>
<event>
11    1  0.6625361E-009  0.2007720E+03  0.7561462E-02  0.1053979E+00
         22   -1    0    0    0    0  0.00000000000E+00  0.00000000000E+00  0.34772054753E+03  0.34772054753E+03  0.00000000000E+00 0.  1.
         22   -1    0    0    0    0 -0.00000000000E+00 -0.00000000000E+00 -0.54704288763E+03  0.54704288763E+03  0.00000000000E+00 0. -1.
        -24    2    1    2    0    0 -0.84998487803E+01 -0.63617101238E+01 -0.23274278425E+03  0.24656342152E+03  0.80694475795E+02 0.  0.
         25    2    1    2    0    0 -0.87307968057E+02 -0.11913696559E+03 -0.24863874606E+03  0.31509507984E+03  0.12508950971E+03 0.  0.
         24    2    1    2    0    0  0.95807816837E+02  0.12549867571E+03  0.28205919021E+03  0.33310493381E+03  0.80451567860E+02 0.  0.
        -11    1    5    5    0    0  0.10598804634E+03  0.10037295883E+03  0.25991471566E+03  0.29810041303E+03  0.00000000000E+00 0.  1.
         12    1    5    5    0    0 -0.10180229507E+02  0.25125716880E+02  0.22144474547E+02  0.35004520773E+02  0.00000000000E+00 0. -1.
         13    1    3    3    0    0  0.35232838569E+02  0.49642533311E+01 -0.87514355873E+02  0.94470943727E+02  0.00000000000E+00 0. -1.
        -14    1    3    3    0    0 -0.43732687349E+02 -0.11325963455E+02 -0.14522842838E+03  0.15209247779E+03  0.00000000000E+00 0.  1.
          5    1    4    4  501    0 -0.60158637402E+02 -0.10172685024E+03 -0.78650770241E+02  0.14202404646E+03  0.41800000000E+01 0. -1.
         -5    1    4    4    0  501 -0.27149330655E+02 -0.17410115352E+02 -0.16998797582E+03  0.17307103338E+03  0.41800000000E+01 0. -1.
</event>
<event>
11    1  0.6625361E-009  0.1492926E+03  0.7561462E-02  0.1097604E+00
         22   -1    0    0    0    0  0.00000000000E+00  0.00000000000E+00  0.19192955086E+03  0.19192955086E+03  0.00000000000E+00 0. -1.
         22   -1    0    0    0    0 -0.00000000000E+00 -0.00000000000E+00 -0.22710904212E+03  0.22710904212E+03  0.00000000000E+00 0. -1.
        -24    2    1    2    0    0 -0.56553224961E+02 -0.12384974048E+02 -0.50466535402E+02  0.11218429246E+03  0.81772791585E+02 0.  0.
         25    2    1    2    0    0 -0.10151052587E+02  0.70076135247E+02 -0.70325786644E+02  0.16001982125E+03  0.12508764258E+03 0.  0.
         24    2    1    2    0    0  0.66704277547E+02 -0.57691161199E+02  0.85612830788E+02  0.14683447927E+03  0.80331044956E+02 0.  0.
        -11    1    5    5    0    0  0.20197283650E+02  0.17849253801E+02  0.36698616232E+02  0.45533664046E+02  0.00000000000E+00 0.  1.
         12    1    5    5    0    0  0.46506993897E+02 -0.75540415000E+02  0.48914214555E+02  0.10130081523E+03  0.00000000000E+00 0. -1.
         13    1    3    3    0    0 -0.48118127992E+02 -0.44739655015E+02 -0.40949926515E+02  0.77420200554E+02  0.00000000000E+00 0. -1.
        -14    1    3    3    0    0 -0.84350969688E+01  0.32354680966E+02 -0.95166088862E+01  0.34764091905E+02  0.00000000000E+00 0.  1.
          5    1    4    4  501    0  0.96747210877E+01  0.42515038723E+02  0.30614928586E+02  0.53440387331E+02  0.41800000000E+01 0.  1.
         -5    1    4    4    0  501 -0.19825773674E+02  0.27561096524E+02 -0.10094071523E+03  0.10657943392E+03  0.41800000000E+01 0.  1.
</event>
<event>
11    1  0.6625361E-009  0.1411716E+03  0.7561462E-02  0.1106257E+00
         22   -1    0    0    0    0  0.00000000000E+00  0.00000000000E+00  0.12680803055E+04  0.12680803055E+04  0.00000000000E+00 0. -1.
         22   -1    0    0    0    0 -0.00000000000E+00 -0.00000000000E+00 -0.13508122391E+03  0.13508122391E+03  0.00000000000E+00 0. -1.
         24    2    1    2    0    0  0.23578355845E+02  0.50445547350E+02 -0.70582831812E+02  0.12001819151E+03  0.79509358152E+02 0.  0.
         25    2    1    2    0    0  0.41523926866E+02 -0.31924181159E+02  0.86126784767E+02  0.16065309908E+03  0.12509278695E+03 0.  0.
        -24    2    1    2    0    0 -0.65102282712E+02 -0.18521366191E+02  0.11174551286E+04  0.11224902388E+04  0.81835343891E+02 0.  0.
        -13    1    3    3    0    0  0.33025668123E+01 -0.36593705743E+01  0.15543346247E+02  0.16306242765E+02  0.00000000000E+00 0.  1.
         14    1    3    3    0    0  0.20275789033E+02  0.54104917924E+02 -0.86126178059E+02  0.10371194874E+03  0.00000000000E+00 0. -1.
         11    1    5    5    0    0 -0.28978249216E+02 -0.40585825939E+02  0.87099548544E+03  0.87242196433E+03  0.00000000000E+00 0. -1.
        -12    1    5    5    0    0 -0.36124033496E+02  0.22064459748E+02  0.24645964320E+03  0.25006827449E+03  0.00000000000E+00 0.  1.
          5    1    4    4  501    0 -0.36419730811E+02 -0.33263338208E+02  0.61178494422E+02  0.78696423304E+02  0.41800000000E+01 0.  1.
         -5    1    4    4    0  501  0.77943657677E+02  0.13391570489E+01  0.24948290345E+02  0.81956675780E+02  0.41800000000E+01 0.  1.
</event>
<event>
11    1  0.6625361E-009  0.1309020E+03  0.7561462E-02  0.1118166E+00
         22   -1    0    0    0    0  0.00000000000E+00  0.00000000000E+00  0.11492805808E+03  0.11492805808E+03  0.00000000000E+00 0. -1.
         22   -1    0    0    0    0 -0.00000000000E+00 -0.00000000000E+00 -0.15827533591E+04  0.15827533591E+04  0.00000000000E+00 0. -1.
        -24    2    1    2    0    0  0.18519901224E+02  0.16532330359E+01 -0.11087907854E+04  0.11121486479E+04  0.84332018420E+02 0.  0.
         25    2    1    2    0    0 -0.25577054647E+02  0.36163147865E+02 -0.44384374440E+03  0.46325882334E+03  0.12509799748E+03 0.  0.
         24    2    1    2    0    0  0.70571534231E+01 -0.37816380901E+02  0.84809228744E+02  0.12227394597E+03  0.79236547772E+02 0.  0.
        -11    1    5    5    0    0 -0.14070267794E+02 -0.18970957582E+02 -0.82382388878E+01  0.25014760589E+02  0.00000000000E+00 0.  1.
         12    1    5    5    0    0  0.21127421217E+02 -0.18845423320E+02  0.93047467631E+02  0.97259185376E+02  0.00000000000E+00 0. -1.
         13    1    3    3    0    0  0.36930218821E+02  0.32348214390E+02 -0.73929364685E+03  0.74092195561E+03  0.00000000000E+00 0. -1.
        -14    1    3    3    0    0 -0.18410317597E+02 -0.30694981354E+02 -0.36949713854E+03  0.37122669228E+03  0.00000000000E+00 0.  1.
          5    1    4    4  501    0 -0.63797394753E+02  0.70877240169E+01 -0.12291073689E+03  0.13872586295E+03  0.41800000000E+01 0.  1.
         -5    1    4    4    0  501  0.38220340106E+02  0.29075423848E+02 -0.32093300750E+03  0.32453296038E+03  0.41800000000E+01 0.  1.
</event>
<event>
11    1  0.6625361E-009  0.1364688E+03  0.7561462E-02  0.1111567E+00
         22   -1    0    0    0    0  0.00000000000E+00  0.00000000000E+00  0.10754777799E+03  0.10754777799E+03  0.00000000000E+00 0. -1.
         22   -1    0    0    0    0 -0.00000000000E+00 -0.00000000000E+00 -0.66795292582E+03  0.66795292582E+03  0.00000000000E+00 0. -1.
         24    2    1    2    0    0  0.49552197718E+02  0.40802624231E+02 -0.23802628469E+03  0.26004774375E+03  0.82752899574E+02 0.  0.
         25    2    1    2    0    0 -0.55707097237E+02  0.13461349875E+02 -0.37955277161E+03  0.40372111270E+03  0.12508373905E+03 0.  0.
        -24    2    1    2    0    0  0.61548995191E+01 -0.54263974106E+02  0.57173908469E+02  0.11173184736E+03  0.78947376341E+02 0.  0.
        -11    1    3    3    0    0  0.35623418730E+02  0.65712370450E+02 -0.15149647486E+03  0.16893290233E+03  0.00000000000E+00 0.  1.
         12    1    3    3    0    0  0.13928778988E+02 -0.24909746219E+02 -0.86529809823E+02  0.91114841429E+02  0.00000000000E+00 0. -1.
         11    1    5    5    0    0  0.26513602632E+02 -0.28828715187E+02  0.67081773696E+02  0.77679021016E+02  0.00000000000E+00 0. -1.
        -12    1    5    5    0    0 -0.20358703113E+02 -0.25435258919E+02 -0.99078652263E+01  0.34052826345E+02  0.00000000000E+00 0.  1.
          5    1    4    4  501    0 -0.16143494964E+02  0.28080498379E+02 -0.13691104538E+02  0.35412505734E+02  0.41800000000E+01 0.  1.
         -5    1    4    4    0  501 -0.39563602273E+02 -0.14619148505E+02 -0.36586166707E+03  0.36830860696E+03  0.41800000000E+01 0.  1.
</event>
<event>
11    1  0.6625361E-009  0.1562870E+03  0.7561462E-02  0.1090622E+00
         22   -1    0    0    0    0  0.00000000000E+00  0.00000000000E+00  0.12082290273E+04  0.12082290273E+04  0.00000000000E+00 0. -1.
         22   -1    0    0    0    0 -0.00000000000E+00 -0.00000000000E+00 -0.24881271222E+03  0.24881271222E+03  0.00000000000E+00 0.  1.
        -24    2    1    2    0    0  0.85366422276E+02 -0.25727017470E+02 -0.18042716400E+03  0.21696223252E+03  0.81051485813E+02 0.  0.
         25    2    1    2    0    0 -0.12345186619E+03  0.89659052045E+02  0.16118226574E+03  0.25477132135E+03  0.12509833937E+03 0.  0.
         24    2    1    2    0    0  0.38085443913E+02 -0.63932034576E+02  0.97866121338E+03  0.98530818570E+03  0.86698582166E+02 0.  0.
        -11    1    5    5    0    0  0.41820530843E+02  0.42138449483E+00  0.22192909497E+03  0.22583546568E+03  0.00000000000E+00 0.  1.
         12    1    5    5    0    0 -0.37350869302E+01 -0.64353419070E+02  0.75673211841E+03  0.75947272002E+03  0.00000000000E+00 0. -1.
         13    1    3    3    0    0 -0.46353794097E+01 -0.96934932718E+01  0.37207396202E+01  0.11370772067E+02  0.00000000000E+00 0. -1.
        -14    1    3    3    0    0  0.90001801686E+02 -0.16033524198E+02 -0.18414790362E+03  0.20559146046E+03  0.00000000000E+00 0.  1.
          5    1    4    4  501    0 -0.92758892330E+02  0.10287734494E+03  0.17060550892E+03  0.21979916351E+03  0.41800000000E+01 0.  1.
         -5    1    4    4    0  501 -0.30692973860E+02 -0.13218292890E+02 -0.94232431832E+01  0.34972157831E+02  0.41800000000E+01 0.  1.
</event>
<event>
11    1  0.6625361E-009  0.1960451E+03  0.7561462E-02  0.1057356E+00
         22   -1    0    0    0    0  0.00000000000E+00  0.00000000000E+00  0.30945318874E+03  0.30945318874E+03  0.00000000000E+00 0.  1.
         22   -1    0    0    0    0 -0.00000000000E+00 -0.00000000000E+00 -0.16001797375E+04  0.16001797375E+04  0.00000000000E+00 0.  1.
        -24    2    1    2    0    0  0.13755984273E+03  0.92032440979E+02 -0.97558676324E+03  0.99295273474E+03  0.82419174339E+02 0.  0.
         25    2    1    2    0    0 -0.58147437977E+02 -0.12805928743E+03 -0.58893628269E+03  0.61828252342E+03  0.12508808123E+03 0.  0.
         24    2    1    2    0    0 -0.79412404754E+02  0.36026846447E+02  0.27379649720E+03  0.29839766804E+03  0.80451120081E+02 0.  0.
        -13    1    5    5    0    0 -0.48445135905E+02 -0.26676729205E+01  0.21985589380E+03  0.22514586763E+03  0.00000000000E+00 0.  1.
         14    1    5    5    0    0 -0.30967268848E+02  0.38694519367E+02  0.53940603395E+02  0.73251800412E+02  0.00000000000E+00 0. -1.
         13    1    3    3    0    0 -0.70077159125E+01  0.18497109567E+02 -0.61965790665E+02  0.65046217088E+02  0.00000000000E+00 0. -1.
        -14    1    3    3    0    0  0.14456755864E+03  0.73535331412E+02 -0.91362097257E+03  0.92790651765E+03  0.00000000000E+00 0.  1.
          5    1    4    4  501    0  0.14331636690E+01 -0.12713880152E+03 -0.43281939916E+03  0.45112795690E+03  0.41800000000E+01 0.  1.
         -5    1    4    4    0  501 -0.59580601646E+02 -0.92048590895E+00 -0.15611688353E+03  0.16715456652E+03  0.41800000000E+01 0.  1.
</event>
<event>
11    1  0.6625361E-009  0.1292841E+03  0.7561462E-02  0.1120152E+00
         22   -1    0    0    0    0  0.00000000000E+00  0.00000000000E+00  0.38637813753E+03  0.38637813753E+03  0.00000000000E+00 0. -1.
         22   -1    0    0    0    0 -0.00000000000E+00 -0.00000000000E+00 -0.55397599330E+03  0.55397599330E+03  0.00000000000E+00 0.  1.
         24    2    1    2    0    0  0.19843585194E+02  0.26989115640E+02 -0.50389491456E+03  0.51180307626E+03  0.83127153900E+02 0.  0.
         25    2    1    2    0    0  0.17432817061E+02 -0.24936675852E+02  0.66960868376E+02  0.14511048686E+03  0.12509018582E+03 0.  0.
        -24    2    1    2    0    0 -0.37276402255E+02 -0.20524397876E+01  0.26933619041E+03  0.28344056771E+03  0.80017681075E+02 0.  0.
        -13    1    3    3    0    0  0.28372974337E+02  0.42603335299E+02 -0.47581948657E+03  0.47856478522E+03  0.00000000000E+00 0.  1.
         14    1    3    3    0    0 -0.85293891429E+01 -0.15614219659E+02 -0.28075427993E+02  0.33238291047E+02  0.00000000000E+00 0. -1.
         13    1    5    5    0    0 -0.47751061721E+02 -0.11162594271E+02  0.26408344312E+03  0.26859790085E+03  0.00000000000E+00 0. -1.
        -14    1    5    5    0    0  0.10474659466E+02  0.91101544835E+01  0.52527472898E+01  0.14842666867E+02  0.00000000000E+00 0.  1.
          5    1    4    4  501    0 -0.43073439028E+02 -0.30117660993E+02 -0.24600474324E+01  0.52781804504E+02  0.41800000000E+01 0.  1.
         -5    1    4    4    0  501  0.60506256089E+02  0.51809851409E+01  0.69420915809E+02  0.92328682351E+02  0.41800000000E+01 0.  1.
</event>
<event>
11    1  0.6625361E-009  0.1626182E+03  0.7561462E-02  0.1084640E+00
         22   -1    0    0    0    0  0.00000000000E+00  0.00000000000E+00  0.29612129050E+03  0.29612129050E+03  0.00000000000E+00 0.  1.
         22   -1    0    0    0    0 -0.00000000000E+00 -0.00000000000E+00 -0.34676271663E+03  0.34676271663E+03  0.00000000000E+00 0. -1.
        -24    2    1    2    0    0  0.23271925561E+02 -0.24133166241E+02 -0.26257255274E+03  0.27820224654E+03  0.85604627755E+02 0.  0.
         25    2    1    2    0    0  0.15482853981E+02 -0.85233899816E+02  0.81078985786E+02  0.17241210107E+03  0.12509034420E+03 0.  0.
         24    2    1    2    0    0 -0.38754779541E+02  0.10936706606E+03  0.13085214083E+03  0.19226965952E+03  0.79888992594E+02 0.  0.
        -11    1    5    5    0    0 -0.30785919654E+02  0.30712722330E+02  0.96938542958E+02  0.10624558943E+03  0.00000000000E+00 0.  1.
         12    1    5    5    0    0 -0.79688598880E+01  0.78654343727E+02  0.33913597870E+02  0.86024070094E+02  0.00000000000E+00 0. -1.
         13    1    3    3    0    0  0.45076164067E+02 -0.18415214559E+02 -0.24452516691E+03  0.24932616779E+03  0.00000000000E+00 0. -1.
        -14    1    3    3    0    0 -0.21804238506E+02 -0.57179516819E+01 -0.18047385832E+02  0.28876078744E+02  0.00000000000E+00 0.  1.
          5    1    4    4  501    0 -0.26876149906E+02 -0.17754597629E+01  0.73533468584E+02  0.78422720516E+02  0.41800000000E+01 0.  1.
         -5    1    4    4    0  501  0.42359003887E+02 -0.83458440053E+02  0.75455172016E+01  0.93989380550E+02  0.41800000000E+01 0.  1.
</event>
<event>
11    1  0.6625361E-009  0.1585753E+03  0.7561462E-02  0.1088425E+00
         22   -1    0    0    0    0  0.00000000000E+00  0.00000000000E+00  0.23796994834E+03  0.23796994834E+03  0.00000000000E+00 0.  1.
         22   -1    0    0    0    0 -0.00000000000E+00 -0.00000000000E+00 -0.70973720830E+03  0.70973720830E+03  0.00000000000E+00 0.  1.
        -24    2    1    2    0    0 -0.37827588913E+02  0.97444730642E+02 -0.57081485739E+03  0.58618637483E+03  0.82815835480E+02 0.  0.
         25    2    1    2    0    0  0.13615111791E+02 -0.59398871039E+02 -0.79577476422E+02  0.16029067824E+03  0.12508768775E+03 0.  0.
         24    2    1    2    0    0  0.24212477121E+02 -0.38045859603E+02  0.17862507386E+03  0.20123010356E+03  0.80950022163E+02 0.  0.
        -11    1    5    5    0    0 -0.18959871248E+02  0.89526117507E+01  0.87521881969E+02  0.89998365531E+02  0.00000000000E+00 0.  1.
         12    1    5    5    0    0  0.43172348369E+02 -0.46998471354E+02  0.91103191888E+02  0.11123173803E+03  0.00000000000E+00 0. -1.
         11    1    3    3    0    0  0.11722199896E+02  0.64906835451E+02 -0.19821682296E+03  0.20890240822E+03  0.00000000000E+00 0. -1.
        -12    1    3    3    0    0 -0.49549788808E+02  0.32537895191E+02 -0.37259803444E+03  0.37728396661E+03  0.00000000000E+00 0.  1.
          5    1    4    4  501    0  0.72658680605E+01 -0.97389876132E+02 -0.42247718378E+02  0.10648907418E+03  0.41800000000E+01 0. -1.
         -5    1    4    4    0  501  0.63492437309E+01  0.37991005093E+02 -0.37329758043E+02  0.53801604061E+02  0.41800000000E+01 0. -1.
</event>
<event>
11    1  0.6625361E-009  0.1695201E+03  0.7561462E-02  0.1078450E+00
         22   -1    0    0    0    0  0.00000000000E+00  0.00000000000E+00  0.12678388142E+04  0.12678388142E+04  0.00000000000E+00 0.  1.
         22   -1    0    0    0    0 -0.00000000000E+00 -0.00000000000E+00 -0.88084921793E+03  0.88084921793E+03  0.00000000000E+00 0.  1.
        -24    2    1    2    0    0  0.10387426858E+03 -0.53590371627E+02 -0.83095878919E+03  0.84475843155E+03  0.97275416985E+02 0.  0.
         25    2    1    2    0    0 -0.57899586060E+02  0.37796376780E+02  0.87108075621E+02  0.16738017743E+03  0.12508948314E+03 0.  0.
         24    2    1    2    0    0 -0.45974682516E+02  0.15793994847E+02  0.11308403099E+04  0.11365494232E+04  0.10286721164E+03 0.  0.
        -13    1    5    5    0    0 -0.46366584942E+02  0.53003982503E+02  0.54540164539E+03  0.54992930196E+03  0.00000000000E+00 0.  1.
         14    1    5    5    0    0  0.39190242544E+00 -0.37209987656E+02  0.58543866447E+03  0.58662012122E+03  0.00000000000E+00 0. -1.
         13    1    3    3    0    0  0.20342189511E+01 -0.28226555522E+02 -0.56196169854E+02  0.62919678874E+02  0.00000000000E+00 0. -1.
        -14    1    3    3    0    0  0.10184004963E+03 -0.25363816105E+02 -0.77476261933E+03  0.78183875268E+03  0.00000000000E+00 0.  1.
          5    1    4    4  501    0 -0.76648963612E+02 -0.42646752470E+01  0.93114151370E+02  0.12075168182E+03  0.41800000000E+01 0. -1.
         -5    1    4    4    0  501  0.18749377552E+02  0.42061052027E+02 -0.60060757498E+01  0.46628495602E+02  0.41800000000E+01 0. -1.
</event>
<event>
11    1  0.6625361E-009  0.1580277E+03  0.7561462E-02  0.1088947E+00
         22   -1    0    0    0    0  0.00000000000E+00  0.00000000000E+00  0.10163879166E+04  0.10163879166E+04  0.00000000000E+00 0. -1.
         22   -1    0    0    0    0 -0.00000000000E+00 -0.00000000000E+00 -0.29081275446E+03  0.29081275446E+03  0.00000000000E+00 0.  1.
        -24    2    1    2    0    0  0.30094266841E+02  0.91952982359E+02 -0.23387453866E+03  0.26778971455E+03  0.87481515306E+02 0.  0.
         25    2    1    2    0    0 -0.41171485563E+02 -0.86209880704E+02  0.12481778517E+03  0.20088256495E+03  0.12508833139E+03 0.  0.
         24    2    1    2    0    0  0.11077218722E+02 -0.57431016545E+01  0.83463191561E+03  0.83852839155E+03  0.79773058629E+02 0.  0.
        -13    1    5    5    0    0 -0.26573616248E+02 -0.18255438112E+02  0.19328032617E+03  0.19595076572E+03  0.00000000000E+00 0.  1.
         14    1    5    5    0    0  0.37650834970E+02  0.12512336457E+02  0.64135158944E+03  0.64257762583E+03  0.00000000000E+00 0. -1.
         11    1    3    3    0    0  0.18949098375E+01 -0.16235425340E+02 -0.15841719194E+02  0.22762684075E+02  0.00000000000E+00 0. -1.
        -12    1    3    3    0    0  0.28199357004E+02  0.10818840770E+03 -0.21803281947E+03  0.24502703047E+03  0.00000000000E+00 0.  1.
          5    1    4    4  501    0 -0.71445541210E+02 -0.69425810448E+02  0.36924988579E+02  0.10632655217E+03  0.41800000000E+01 0.  1.
         -5    1    4    4    0  501  0.30274055647E+02 -0.16784070256E+02  0.87892796591E+02  0.94556012776E+02  0.41800000000E+01 0.  1.
</event>
<event>
11    1  0.6625361E-009  0.1493025E+03  0.7561462E-02  0.1097594E+00
         22   -1    0    0    0    0  0.00000000000E+00  0.00000000000E+00  0.11014743737E+04  0.11014743737E+04  0.00000000000E+00 0.  1.
         22   -1    0    0    0    0 -0.00000000000E+00 -0.00000000000E+00 -0.61214748485E+03  0.61214748485E+03  0.00000000000E+00 0.  1.
         24    2    1    2    0    0 -0.61809258115E+02  0.16299212980E+02 -0.12426968551E+03  0.16196806934E+03  0.81881939495E+02 0.  0.
         25    2    1    2    0    0  0.95453815419E+02  0.13586487452E+02 -0.45360387371E+03  0.48031210230E+03  0.12508883982E+03 0.  0.
        -24    2    1    2    0    0 -0.33644557304E+02 -0.29885700432E+02  0.10672004481E+04  0.10713416870E+04  0.82650483605E+02 0.  0.
        -13    1    3    3    0    0 -0.43220411192E+02  0.36337649331E+02 -0.12212986250E+03  0.13455159612E+03  0.00000000000E+00 0.  1.
         14    1    3    3    0    0 -0.18588846923E+02 -0.20038436351E+02 -0.21398230061E+01  0.27416473220E+02  0.00000000000E+00 0. -1.
         11    1    5    5    0    0 -0.38626062501E+02 -0.23109478066E+02  0.24513397140E+03  0.24923219017E+03  0.00000000000E+00 0. -1.
        -12    1    5    5    0    0  0.49815051970E+01 -0.67762223659E+01  0.82206647672E+03  0.82210949680E+03  0.00000000000E+00 0.  1.
          5    1    4    4  501    0  0.86570698687E+02  0.49402317545E+02 -0.41469054470E+03  0.42652174050E+03  0.41800000000E+01 0. -1.
         -5    1    4    4    0  501  0.88831167323E+01 -0.35815830094E+02 -0.38913329005E+02  0.53790361799E+02  0.41800000000E+01 0. -1.
</event>
<event>
11    1  0.6625361E-009  0.1426389E+03  0.7561462E-02  0.1104647E+00
         22   -1    0    0    0    0  0.00000000000E+00  0.00000000000E+00  0.56712599703E+03  0.56712599703E+03  0.00000000000E+00 0.  1.
         22   -1    0    0    0    0 -0.00000000000E+00 -0.00000000000E+00 -0.39243175367E+03  0.39243175367E+03  0.00000000000E+00 0. -1.
         24    2    1    2    0    0  0.16698884929E+02 -0.67608927427E+02 -0.36158796973E+03  0.37712124519E+03  0.81392591159E+02 0.  0.
         25    2    1    2    0    0 -0.24594643246E+02  0.17247126389E+02  0.31231044258E+03  0.33776850941E+03  0.12508954218E+03 0.  0.
        -24    2    1    2    0    0  0.78957583174E+01  0.50361801037E+02  0.22397177051E+03  0.24466799610E+03  0.84263991864E+02 0.  0.
        -13    1    3    3    0    0  0.14152312113E+02 -0.61668993479E+02 -0.12186734834E+03  0.13731352186E+03  0.00000000000E+00 0.  1.
         14    1    3    3    0    0  0.25465728159E+01 -0.59399339476E+01 -0.23972062139E+03  0.23980772333E+03  0.00000000000E+00 0. -1.
         11    1    5    5    0    0  0.44860221670E+02  0.28806366770E+02  0.15024528460E+03  0.15942362372E+03  0.00000000000E+00 0. -1.
        -12    1    5    5    0    0 -0.36964463353E+02  0.21555434267E+02  0.73726485913E+02  0.85244372380E+02  0.00000000000E+00 0.  1.
          5    1    4    4  501    0 -0.43793007092E+02 -0.40563424353E+01  0.30458964453E+03  0.30777687590E+03  0.41800000000E+01 0.  1.
         -5    1    4    4    0  501  0.19198363845E+02  0.21303468825E+02  0.77207980495E+01  0.29991633514E+02  0.41800000000E+01 0.  1.
</event>
<event>
11    1  0.8068009E-009  0.2050617E+03  0.7561462E-02  0.1051001E+00
         22   -1    0    0    0    0  0.00000000000E+00  0.00000000000E+00  0.16668922532E+04  0.16668922532E+04  0.00000000000E+00 0.  1.
         22   -1    0    0    0    0 -0.00000000000E+00 -0.00000000000E+00 -0.90071027855E+03  0.90071027855E+03  0.00000000000E+00 0.  1.
        -24    2    1    2    0    0  0.15818613923E+03  0.40773481460E+02 -0.72980073614E+03  0.75184110583E+03  0.77269673949E+02 0.  0.
         25    2    1    2    0    0 -0.52453715819E+02  0.88343015340E+02 -0.11212017656E+03  0.19691243987E+03  0.12509074435E+03 0.  0.
         24    2    1    2    0    0 -0.10573242341E+03 -0.12911649680E+03  0.16081028874E+04  0.16188489861E+04  0.82624017135E+02 0.  0.
        -13    1    5    5    0    0 -0.66472048082E+02 -0.12358010524E+03  0.13990434933E+04  0.14060630398E+04  0.00000000000E+00 0.  1.
         14    1    5    5    0    0 -0.39260375332E+02 -0.55363915582E+01  0.20905939405E+03  0.21278594630E+03  0.00000000000E+00 0. -1.
         11    1    3    3    0    0  0.42565796710E+02  0.16167836908E+01 -0.79601915761E+02  0.90282479097E+02  0.00000000000E+00 0. -1.
        -12    1    3    3    0    0  0.11562034252E+03  0.39156697769E+02 -0.65019882038E+03  0.66155862673E+03  0.00000000000E+00 0.  1.
          5    1    4    4  501    0 -0.63482515007E+02  0.55732855018E+02 -0.13212540718E+03  0.15687822176E+03  0.41800000000E+01 0.  1.
         -5    1    4    4    0  501  0.11028799188E+02  0.32610160322E+02  0.20005230619E+02  0.40034218112E+02  0.41800000000E+01 0.  1.
</event>
<event>
11    1  0.6625361E-009  0.2068148E+03  0.7561462E-02  0.1049806E+00
         22   -1    0    0    0    0  0.00000000000E+00  0.00000000000E+00  0.17505421460E+04  0.17505421460E+04  0.00000000000E+00 0. -1.
         22   -1    0    0    0    0 -0.00000000000E+00 -0.00000000000E+00 -0.24065353118E+03  0.24065353118E+03  0.00000000000E+00 0.  1.
        -24    2    1    2    0    0 -0.77579495142E+01 -0.76924405744E+02 -0.16180884526E+03  0.20168836407E+03  0.92295957754E+02 0.  0.
         25    2    1    2    0    0  0.14229794836E+03 -0.24286134861E+02  0.11764931901E+03  0.22433748325E+03  0.12508965454E+03 0.  0.
         24    2    1    2    0    0 -0.13453999884E+03  0.10121054060E+03  0.15540481410E+04  0.15651698298E+04  0.79664212255E+02 0.  0.
        -11    1    5    5    0    0  0.72232157729E+01  0.12227464467E+02  0.25320488488E+03  0.25360283803E+03  0.00000000000E+00 0.  1.
         12    1    5    5    0    0 -0.14176321462E+03  0.88983076138E+02  0.13008432561E+04  0.13115669918E+04  0.00000000000E+00 0. -1.
         11    1    3    3    0    0  0.99329037094E+01  0.97082256348E+01  0.34059348446E+01  0.14300790651E+02  0.00000000000E+00 0. -1.
        -12    1    3    3    0    0 -0.17690853224E+02 -0.86632631379E+02 -0.16521478011E+03  0.18738757342E+03  0.00000000000E+00 0.  1.
          5    1    4    4  501    0  0.68228527014E+02 -0.14677885085E+02  0.13086696861E+03  0.14837185745E+03  0.41800000000E+01 0.  1.
         -5    1    4    4    0  501  0.74069421343E+02 -0.96082497752E+01 -0.13217649604E+02  0.75965625798E+02  0.41800000000E+01 0.  1.
</event>
<event>
11    1  0.6625361E-009  0.1552253E+03  0.7561462E-02  0.1091656E+00
         22   -1    0    0    0    0  0.00000000000E+00  0.00000000000E+00  0.21453489760E+04  0.21453489760E+04  0.00000000000E+00 0. -1.
         22   -1    0    0    0    0 -0.00000000000E+00 -0.00000000000E+00 -0.99433430932E+02  0.99433430932E+02  0.00000000000E+00 0. -1.
         24    2    1    2    0    0  0.89211876217E+02  0.80073865105E+00 -0.36248293980E+02  0.12589542364E+03  0.81094505592E+02 0.  0.
         25    2    1    2    0    0 -0.11958675266E+03  0.40822158914E+02  0.45235117238E+03  0.48604274758E+03  0.12509408159E+03 0.  0.
        -24    2    1    2    0    0  0.30374876442E+02 -0.41622897565E+02  0.16298126667E+04  0.16328442358E+04  0.85063922728E+02 0.  0.
        -13    1    3    3    0    0  0.47222944874E+02  0.18436481111E+02 -0.56625484711E+02  0.76002341261E+02  0.00000000000E+00 0.  1.
         14    1    3    3    0    0  0.41988931342E+02 -0.17635742460E+02  0.20377190732E+02  0.49893082381E+02  0.00000000000E+00 0. -1.
         13    1    5    5    0    0  0.10629139050E+02 -0.13355687966E+02  0.14283596937E+04  0.14284616787E+04  0.00000000000E+00 0. -1.
        -14    1    5    5    0    0  0.19745737392E+02 -0.28267209599E+02  0.20145297299E+03  0.20438255701E+03  0.00000000000E+00 0.  1.
          5    1    4    4  501    0  0.16884985544E+02 -0.21550323651E+02  0.71970469050E+02  0.77115108776E+02  0.41800000000E+01 0.  1.
         -5    1    4    4    0  501 -0.13647173820E+03  0.62372482565E+02  0.38038070333E+03  0.40892763880E+03  0.41800000000E+01 0.  1.
</event>
<event>
11    1  0.6625361E-009  0.1553211E+03  0.7561462E-02  0.1091562E+00
         22   -1    0    0    0    0  0.00000000000E+00  0.00000000000E+00  0.17258088455E+04  0.17258088455E+04  0.00000000000E+00 0.  1.
         22   -1    0    0    0    0 -0.00000000000E+00 -0.00000000000E+00 -0.16317463112E+04  0.16317463112E+04  0.00000000000E+00 0. -1.
        -24    2    1    2    0    0 -0.97262470732E+01 -0.55146598111E+02 -0.14755749393E+04  0.14787183020E+04  0.78426195003E+02 0.  0.
         25    2    1    2    0    0  0.10034965881E+03  0.69995541669E+02 -0.10212563013E+03  0.20258475998E+03  0.12506602565E+03 0.  0.
         24    2    1    2    0    0 -0.90623411739E+02 -0.14848943559E+02  0.16717631038E+04  0.16762520947E+04  0.81216475538E+02 0.  0.
        -11    1    5    5    0    0 -0.78768194282E+02 -0.44633851163E+02  0.12316283779E+04  0.12349514445E+04  0.00000000000E+00 0.  1.
         12    1    5    5    0    0 -0.11855217457E+02  0.29784907604E+02  0.44013472593E+03  0.44130065020E+03  0.00000000000E+00 0. -1.
         13    1    3    3    0    0  0.16432456697E+02 -0.64237362491E+02 -0.87693282745E+03  0.87943598302E+03  0.00000000000E+00 0. -1.
        -14    1    3    3    0    0 -0.26158703771E+02  0.90907643809E+01 -0.59864211185E+03  0.59928231900E+03  0.00000000000E+00 0.  1.
          5    1    4    4  501    0 -0.36174678835E+01  0.31096171508E+02  0.20087743385E+02  0.37430572940E+02  0.41800000000E+01 0. -1.
         -5    1    4    4    0  501  0.10396712670E+03  0.38899370162E+02 -0.12221337351E+03  0.16515418704E+03  0.41800000000E+01 0. -1.
</event>
<event>
11    1  0.6625361E-009  0.1768255E+03  0.7561462E-02  0.1072240E+00
         22   -1    0    0    0    0  0.00000000000E+00  0.00000000000E+00  0.39132073780E+03  0.39132073780E+03  0.00000000000E+00 0.  1.
         22   -1    0    0    0    0 -0.00000000000E+00 -0.00000000000E+00 -0.32202255525E+03  0.32202255525E+03  0.00000000000E+00 0.  1.
         24    2    1    2    0    0  0.43300558658E+02  0.11709799951E+03 -0.18152511317E+03  0.23461944146E+03  0.80672397571E+02 0.  0.
         25    2    1    2    0    0 -0.87519376228E+02 -0.98816371060E+02 -0.28065770541E+02  0.18400948637E+03  0.12508991644E+03 0.  0.
        -24    2    1    2    0    0  0.44218817569E+02 -0.18281628448E+02  0.27888906626E+03  0.29471436521E+03  0.82388858553E+02 0.  0.
        -11    1    3    3    0    0 -0.12216113535E+02  0.55256000308E+02 -0.11499023312E+03  0.12816088605E+03  0.00000000000E+00 0.  1.
         12    1    3    3    0    0  0.55516672194E+02  0.61841999200E+02 -0.66534880052E+02  0.10645855541E+03  0.00000000000E+00 0. -1.
         13    1    5    5    0    0  0.27551135273E+02  0.31965123790E+02  0.11591149680E+03  0.12335440521E+03  0.00000000000E+00 0. -1.
        -14    1    5    5    0    0  0.16667682296E+02 -0.50246752238E+02  0.16297756946E+03  0.17135996000E+03  0.00000000000E+00 0.  1.
          5    1    4    4  501    0 -0.10519590338E+03 -0.11059709920E+03 -0.55805330449E+01  0.15279565173E+03  0.41800000000E+01 0.  1.
         -5    1    4    4    0  501  0.17676527150E+02  0.11780728141E+02 -0.22485237497E+02  0.31213834640E+02  0.41800000000E+01 0.  1.
</event>
<event>
11    1  0.6625361E-009  0.1270129E+03  0.7561462E-02  0.1122995E+00
         22   -1    0    0    0    0  0.00000000000E+00  0.00000000000E+00  0.80106032869E+03  0.80106032869E+03  0.00000000000E+00 0. -1.
         22   -1    0    0    0    0 -0.00000000000E+00 -0.00000000000E+00 -0.85491681475E+02  0.85491681475E+02  0.00000000000E+00 0.  1.
         24    2    1    2    0    0 -0.63091362247E+01 -0.20671585495E+02 -0.26565937602E+02  0.86074494472E+02  0.78968030944E+02 0.  0.
         25    2    1    2    0    0  0.50035146451E+01  0.24409960338E+02  0.12712995032E+03  0.18007012660E+03  0.12506936037E+03 0.  0.
        -24    2    1    2    0    0  0.13056215796E+01 -0.37383748425E+01  0.61500463450E+03  0.62040738909E+03  0.81602376751E+02 0.  0.
        -13    1    3    3    0    0 -0.71307780967E+01 -0.43733123385E+02 -0.39724526548E+02  0.59510268750E+02  0.00000000000E+00 0.  1.
         14    1    3    3    0    0  0.82164187207E+00  0.23061537889E+02  0.13158588945E+02  0.26564225722E+02  0.00000000000E+00 0. -1.
         11    1    5    5    0    0  0.21320476162E+02 -0.18758918565E+02  0.55030086319E+03  0.55103312038E+03  0.00000000000E+00 0. -1.
        -12    1    5    5    0    0 -0.20014854582E+02  0.15020543722E+02  0.64703771311E+02  0.69374268714E+02  0.00000000000E+00 0.  1.
          5    1    4    4  501    0  0.26264273659E+02 -0.39052025331E+02  0.94149436170E+02  0.10533974314E+03  0.41800000000E+01 0. -1.
         -5    1    4    4    0  501 -0.21260759014E+02  0.63461985669E+02  0.32980514151E+02  0.74730383463E+02  0.41800000000E+01 0. -1.
</event>
<event>
11    1  0.6625361E-009  0.1645806E+03  0.7561462E-02  0.1082846E+00
         22   -1    0    0    0    0  0.00000000000E+00  0.00000000000E+00  0.24974644061E+03  0.24974644061E+03  0.00000000000E+00 0.  1.
         22   -1    0    0    0    0 -0.00000000000E+00 -0.00000000000E+00 -0.89622120299E+03  0.89622120299E+03  0.00000000000E+00 0. -1.
         24    2    1    2    0    0 -0.50777157535E+01 -0.11503056095E+03 -0.76321615904E+03  0.77617780720E+03  0.81824628432E+02 0.  0.
         25    2    1    2    0    0  0.27128520054E+02 -0.18876012963E+02 -0.49539066859E+02  0.13854188747E+03  0.12508986759E+03 0.  0.
        -24    2    1    2    0    0 -0.22050804300E+02  0.13390657392E+03  0.16628046352E+03  0.23124794893E+03  0.86076784490E+02 0.  0.
        -11    1    3    3    0    0 -0.18623094882E+02 -0.96762623657E+02 -0.38952951641E+03  0.40179978740E+03  0.00000000000E+00 0.  1.
         12    1    3    3    0    0  0.13545379129E+02 -0.18267937298E+02 -0.37368664263E+03  0.37437801980E+03  0.00000000000E+00 0. -1.
         11    1    5    5    0    0  0.15232374325E+01  0.63069396392E+02  0.18605226814E+02  0.65774033465E+02  0.00000000000E+00 0. -1.
        -12    1    5    5    0    0 -0.23574041733E+02  0.70837177525E+02  0.14767523671E+03  0.16547391547E+03  0.00000000000E+00 0.  1.
          5    1    4    4  501    0  0.40699928613E+02 -0.48382335129E+01 -0.86904546361E+02  0.96175700002E+02  0.41800000000E+01 0.  1.
         -5    1    4    4    0  501 -0.13571408559E+02 -0.14037779450E+02  0.37365479502E+02  0.42366187468E+02  0.41800000000E+01 0.  1.
</event>
<event>
11    1  0.6625361E-009  0.1810636E+03  0.7561462E-02  0.1068786E+00
         22   -1    0    0    0    0  0.00000000000E+00  0.00000000000E+00  0.20421794631E+03  0.20421794631E+03  0.00000000000E+00 0.  1.
         22   -1    0    0    0    0 -0.00000000000E+00 -0.00000000000E+00 -0.18127966233E+04  0.18127966233E+04  0.00000000000E+00 0.  1.
         24    2    1    2    0    0 -0.43855086969E+02 -0.12094147557E+03 -0.14672910109E+04  0.14752384768E+04  0.82677347825E+02 0.  0.
         25    2    1    2    0    0  0.19586016244E+02  0.14917268135E+03 -0.30096427487E+03  0.35897503239E+03  0.12508988064E+03 0.  0.
        -24    2    1    2    0    0  0.24269070725E+02 -0.28231205781E+02  0.15967660876E+03  0.18280106035E+03  0.80830807900E+02 0.  0.
        -13    1    3    3    0    0 -0.66540213838E+02 -0.10744601831E+03 -0.12372825463E+04  0.12437203650E+04  0.00000000000E+00 0.  1.
         14    1    3    3    0    0  0.22685126869E+02 -0.13495457256E+02 -0.23000846459E+03  0.23151811188E+03  0.00000000000E+00 0. -1.
         13    1    5    5    0    0  0.47985368698E+01 -0.14625306326E+02 -0.51810426415E+01  0.16240958841E+02  0.00000000000E+00 0. -1.
        -14    1    5    5    0    0  0.19470533856E+02 -0.13605899454E+02  0.16485765140E+03  0.16656010151E+03  0.00000000000E+00 0.  1.
          5    1    4    4  501    0 -0.28435117524E+00  0.16709247844E+03 -0.24226196023E+03  0.29432687098E+03  0.41800000000E+01 0.  1.
         -5    1    4    4    0  501  0.19870367419E+02 -0.17919797094E+02 -0.58702314635E+02  0.64648161403E+02  0.41800000000E+01 0.  1.
</event>
<event>
11    1  0.6625361E-009  0.1999923E+03  0.7561462E-02  0.1054529E+00
         22   -1    0    0    0    0  0.00000000000E+00  0.00000000000E+00  0.24412859756E+03  0.24412859756E+03  0.00000000000E+00 0. -1.
         22   -1    0    0    0    0 -0.00000000000E+00 -0.00000000000E+00 -0.33529317114E+04  0.33529317114E+04  0.00000000000E+00 0.  1.
        -24    2    1    2    0    0 -0.17427666413E+02  0.14280054654E+02 -0.22497488440E+04  0.22513965881E+04  0.83120948948E+02 0.  0.
         25    2    1    2    0    0  0.17295703294E+03 -0.13426258742E+02 -0.10592651317E+04  0.10806408863E+04  0.12509079226E+03 0.  0.
         24    2    1    2    0    0 -0.15552936653E+03 -0.85379591240E+00  0.20021086189E+03  0.26502283454E+03  0.77217878671E+02 0.  0.
        -13    1    5    5    0    0 -0.26635605448E+02  0.11008458078E+01  0.94878868028E+02  0.98552863669E+02  0.00000000000E+00 0.  1.
         14    1    5    5    0    0 -0.12889376108E+03 -0.19546417202E+01  0.10533199387E+03  0.16646997087E+03  0.00000000000E+00 0. -1.
         13    1    3    3    0    0 -0.18061980252E+02  0.47606213491E+02 -0.11211323020E+04  0.11222879422E+04  0.00000000000E+00 0. -1.
        -14    1    3    3    0    0  0.63431383882E+00 -0.33326158836E+02 -0.11286165420E+04  0.11291086459E+04  0.00000000000E+00 0.  1.
          5    1    4    4  501    0  0.53897904821E+01  0.27455969894E+02 -0.57005811874E+02  0.63639729035E+02  0.41800000000E+01 0.  1.
         -5    1    4    4    0  501  0.16756724246E+03 -0.40882228636E+02 -0.10022593198E+04  0.10170011573E+04  0.41800000000E+01 0.  1.
</event>
<event>
11    1  0.6625361E-009  0.1652819E+03  0.7561462E-02  0.1082212E+00
         22   -1    0    0    0    0  0.00000000000E+00  0.00000000000E+00  0.21022929573E+03  0.21022929573E+03  0.00000000000E+00 0. -1.
         22   -1    0    0    0    0 -0.00000000000E+00 -0.00000000000E+00 -0.28803793885E+03  0.28803793885E+03  0.00000000000E+00 0. -1.
        -24    2    1    2    0    0 -0.11285753931E+03 -0.24445077263E+01 -0.10455076540E+03  0.17342778777E+03  0.80022092128E+02 0.  0.
         25    2    1    2    0    0  0.21577547983E+02  0.98221473510E+02 -0.22101233534E+02  0.16201876445E+03  0.12509423278E+03 0.  0.
         24    2    1    2    0    0  0.91279991327E+02 -0.95776965783E+02  0.48843355813E+02  0.16282068237E+03  0.81361152939E+02 0.  0.
        -11    1    5    5    0    0  0.17582280528E+02 -0.76128913951E+02  0.33545990834E+02  0.85029886681E+02  0.00000000000E+00 0.  1.
         12    1    5    5    0    0  0.73697710800E+02 -0.19648051832E+02  0.15297364979E+02  0.77790795684E+02  0.00000000000E+00 0. -1.
         13    1    3    3    0    0 -0.19489246147E+02  0.12340047906E+02 -0.68458641402E+02  0.72240522426E+02  0.00000000000E+00 0. -1.
        -14    1    3    3    0    0 -0.93368293163E+02 -0.14784555632E+02 -0.36092123996E+02  0.10118726534E+03  0.00000000000E+00 0.  1.
          5    1    4    4  501    0  0.16941472930E+02  0.47691166566E+02 -0.73717780425E+02  0.89516727064E+02  0.41800000000E+01 0.  1.
         -5    1    4    4    0  501  0.46360750528E+01  0.50530306943E+02  0.51616546890E+02  0.72502037382E+02  0.41800000000E+01 0.  1.
</event>
<event>
11    1  0.6625361E-009  0.1453994E+03  0.7561462E-02  0.1101675E+00
         22   -1    0    0    0    0  0.00000000000E+00  0.00000000000E+00  0.74447581188E+03  0.74447581188E+03  0.00000000000E+00 0.  1.
         22   -1    0    0    0    0 -0.00000000000E+00 -0.00000000000E+00 -0.50622249512E+03  0.50622249512E+03  0.00000000000E+00 0.  1.
         24    2    1    2    0    0 -0.39021877633E+02 -0.62240935721E+02 -0.42880958478E+03  0.44257635311E+03  0.81237474836E+02 0.  0.
         25    2    1    2    0    0  0.16689592578E+02  0.86040635442E+02  0.18576797487E+02  0.15386672606E+03  0.12509331931E+03 0.  0.
        -24    2    1    2    0    0  0.22332285054E+02 -0.23799699721E+02  0.64848610405E+03  0.65425522783E+03  0.80315125193E+02 0.  0.
        -13    1    3    3    0    0 -0.37461940332E+02 -0.66777903635E+02 -0.43067526989E+03  0.43742870674E+03  0.00000000000E+00 0.  1.
         14    1    3    3    0    0 -0.15599373002E+01  0.45369679144E+01  0.18656851056E+01  0.51476463699E+01  0.00000000000E+00 0. -1.
         11    1    5    5    0    0  0.22317074942E+02 -0.21264854951E+02  0.79555126189E+02  0.85318602854E+02  0.00000000000E+00 0. -1.
        -12    1    5    5    0    0  0.15210112564E-01 -0.25348447704E+01  0.56893097786E+03  0.56893662498E+03  0.00000000000E+00 0.  1.
          5    1    4    4  501    0 -0.27258552141E+02  0.19463425028E+02  0.56207076587E+02  0.65563415386E+02  0.41800000000E+01 0.  1.
         -5    1    4    4    0  501  0.43948144720E+02  0.66577210414E+02 -0.37630279099E+02  0.88303310674E+02  0.41800000000E+01 0.  1.
</event>
<event>
11    1  0.6625361E-009  0.1415675E+03  0.7561462E-02  0.1105821E+00
         22   -1    0    0    0    0  0.00000000000E+00  0.00000000000E+00  0.82015335301E+03  0.82015335301E+03  0.00000000000E+00 0.  1.
         22   -1    0    0    0    0 -0.00000000000E+00 -0.00000000000E+00 -0.84939652213E+02  0.84939652213E+02  0.00000000000E+00 0.  1.
         24    2    1    2    0    0  0.23385453280E+02 -0.33622901779E+02 -0.29477133151E+02  0.98953667505E+02  0.85120784681E+02 0.  0.
         25    2    1    2    0    0  0.13463014099E+02 -0.35626947166E+02  0.27987454323E+03  0.30891431043E+03  0.12509100340E+03 0.  0.
        -24    2    1    2    0    0 -0.36848467379E+02  0.69249848945E+02  0.48481629072E+03  0.49722502728E+03  0.77669433389E+02 0.  0.
        -11    1    3    3    0    0  0.17845833467E+02 -0.28636481937E+02 -0.59292332459E+02  0.68220983270E+02  0.00000000000E+00 0.  1.
         12    1    3    3    0    0  0.55396198132E+01 -0.49864198413E+01  0.29815199308E+02  0.30732684235E+02  0.00000000000E+00 0. -1.
         13    1    5    5    0    0 -0.12887317637E+02 -0.52884088412E+01  0.13324597384E+02  0.19276802624E+02  0.00000000000E+00 0. -1.
        -14    1    5    5    0    0 -0.23961149742E+02  0.74538257786E+02  0.47149169333E+03  0.47794822466E+03  0.00000000000E+00 0.  1.
          5    1    4    4  501    0  0.51138386469E+02 -0.61422465659E+02  0.13482084637E+03  0.15678643715E+03  0.41800000000E+01 0.  1.
         -5    1    4    4    0  501 -0.37675372371E+02  0.25795518493E+02  0.14505369685E+03  0.15212787328E+03  0.41800000000E+01 0.  1.
</event>
<event>
11    1  0.6625361E-009  0.1458385E+03  0.7561462E-02  0.1101208E+00
         22   -1    0    0    0    0  0.00000000000E+00  0.00000000000E+00  0.23235665578E+03  0.23235665578E+03  0.00000000000E+00 0. -1.
         22   -1    0    0    0    0 -0.00000000000E+00 -0.00000000000E+00 -0.10702298638E+04  0.10702298638E+04  0.00000000000E+00 0. -1.
         24    2    1    2    0    0  0.67224514772E+02  0.18150818850E-01 -0.73232316747E+03  0.73955637788E+03  0.78276936114E+02 0.  0.
         25    2    1    2    0    0 -0.36993175714E+02  0.69810434852E+02 -0.30258499183E+03  0.33681962460E+03  0.12509112827E+03 0.  0.
        -24    2    1    2    0    0 -0.30231339058E+02 -0.69828585670E+02  0.19703495130E+03  0.22621051708E+03  0.80984324177E+02 0.  0.
        -11    1    3    3    0    0  0.75772247728E+02 -0.46942307918E+01 -0.40298641428E+03  0.41007501683E+03  0.00000000000E+00 0.  1.
         12    1    3    3    0    0 -0.85477329556E+01  0.47123816107E+01 -0.32933675319E+03  0.32948136105E+03  0.00000000000E+00 0. -1.
         13    1    5    5    0    0  0.25105814004E+02 -0.37929417424E+02  0.10227607730E+03  0.11193452815E+03  0.00000000000E+00 0. -1.
        -14    1    5    5    0    0 -0.55337153062E+02 -0.31899168247E+02  0.94758874002E+02  0.11427598893E+03  0.00000000000E+00 0.  1.
          5    1    4    4  501    0 -0.46202676932E+02  0.27117485513E+02 -0.31667973308E+02  0.62372897236E+02  0.41800000000E+01 0.  1.
         -5    1    4    4    0  501  0.92095012175E+01  0.42692949338E+02 -0.27091701852E+03  0.27444672736E+03  0.41800000000E+01 0.  1.
</event>
<event>
11    1  0.6625361E-009  0.1814059E+03  0.7561462E-02  0.1068511E+00
         22   -1    0    0    0    0  0.00000000000E+00  0.00000000000E+00  0.24581881549E+04  0.24581881549E+04  0.00000000000E+00 0. -1.
         22   -1    0    0    0    0 -0.00000000000E+00 -0.00000000000E+00 -0.18678351302E+03  0.18678351302E+03  0.00000000000E+00 0. -1.
        -24    2    1    2    0    0 -0.36451131312E+02 -0.67349944586E+02 -0.10910723202E+03  0.15570452630E+03  0.80466212925E+02 0.  0.
         25    2    1    2    0    0  0.28422957983E+02  0.19534509946E+03  0.21198244077E+03  0.31551907231E+03  0.12509259518E+03 0.  0.
         24    2    1    2    0    0  0.80281733299E+01 -0.12799515488E+03  0.21685294331E+04  0.21737480693E+04  0.78826107641E+02 0.  0.
        -11    1    5    5    0    0 -0.17245148380E+02 -0.27527994973E+01  0.12316079818E+03  0.12439274599E+03  0.00000000000E+00 0.  1.
         12    1    5    5    0    0  0.25273321709E+02 -0.12524235538E+03  0.20453686349E+04  0.20493553233E+04  0.00000000000E+00 0. -1.
         11    1    3    3    0    0 -0.56356680628E+02 -0.66013808177E+02 -0.10330215696E+03  0.13492677256E+03  0.00000000000E+00 0. -1.
        -12    1    3    3    0    0  0.19905549316E+02 -0.13361364086E+01 -0.58050750602E+01  0.20777753741E+02  0.00000000000E+00 0.  1.
          5    1    4    4  501    0 -0.43424892664E+02  0.12758603216E+03  0.12401671918E+03  0.18319807843E+03  0.41800000000E+01 0. -1.
         -5    1    4    4    0  501  0.71847850646E+02  0.67759067301E+02  0.87965721597E+02  0.13232099387E+03  0.41800000000E+01 0. -1.
</event>
<event>
11    1  0.6625361E-009  0.1585656E+03  0.7561462E-02  0.1088434E+00
         22   -1    0    0    0    0  0.00000000000E+00  0.00000000000E+00  0.99685191939E+03  0.99685191939E+03  0.00000000000E+00 0.  1.
         22   -1    0    0    0    0 -0.00000000000E+00 -0.00000000000E+00 -0.41339144310E+03  0.41339144310E+03  0.00000000000E+00 0.  1.
         24    2    1    2    0    0  0.12440864296E+02  0.16925443845E+02 -0.22619737727E+03  0.23973170372E+03  0.76581920392E+02 0.  0.
         25    2    1    2    0    0 -0.85942524145E+02  0.47117680823E+02 -0.14037664570E+03  0.21203426468E+03  0.12508690354E+03 0.  0.
        -24    2    1    2    0    0  0.73501659850E+02 -0.64043124668E+02  0.95003449926E+03  0.95847739409E+03  0.81297905064E+02 0.  0.
        -11    1    3    3    0    0  0.38313775974E+02  0.13869275713E+02 -0.19439925516E+03  0.19862369608E+03  0.00000000000E+00 0.  1.
         12    1    3    3    0    0 -0.25872911678E+02  0.30561681321E+01 -0.31798122113E+02  0.41108007642E+02  0.00000000000E+00 0. -1.
         11    1    5    5    0    0  0.65855436211E+02 -0.70970783441E+01  0.39962899092E+03  0.40508102570E+03  0.00000000000E+00 0. -1.
        -12    1    5    5    0    0  0.76462236384E+01 -0.56946046324E+02  0.55040550835E+03  0.55339636839E+03  0.00000000000E+00 0.  1.
          5    1    4    4  501    0 -0.10619142817E+03  0.23317716230E+02 -0.14379965433E+03  0.18032234552E+03  0.41800000000E+01 0. -1.
         -5    1    4    4    0  501  0.20248904025E+02  0.23799964594E+02  0.34230086297E+01  0.31711919163E+02  0.41800000000E+01 0. -1.
</event>
<event>
11    1  0.6625361E-009  0.1499385E+03  0.7561462E-02  0.1096942E+00
         22   -1    0    0    0    0  0.00000000000E+00  0.00000000000E+00  0.44382614440E+03  0.44382614440E+03  0.00000000000E+00 0.  1.
         22   -1    0    0    0    0 -0.00000000000E+00 -0.00000000000E+00 -0.19214434892E+03  0.19214434892E+03  0.00000000000E+00 0. -1.
         24    2    1    2    0    0 -0.25845741264E+02 -0.38797694253E+01 -0.35424273491E+02  0.92034189626E+02  0.80823003875E+02 0.  0.
         25    2    1    2    0    0 -0.92294644150E+01 -0.72064337595E+02 -0.75660374229E+02  0.16325133012E+03  0.12509217718E+03 0.  0.
        -24    2    1    2    0    0  0.35075205679E+02  0.75944107020E+02  0.36276644320E+03  0.38068497357E+03  0.79522194034E+02 0.  0.
        -11    1    3    3    0    0 -0.91485379971E+01 -0.38223091143E+01  0.26291842817E+02  0.28099231185E+02  0.00000000000E+00 0.  1.
         12    1    3    3    0    0 -0.16697203266E+02 -0.57460311023E-01 -0.61716116309E+02  0.63934958441E+02  0.00000000000E+00 0. -1.
         13    1    5    5    0    0  0.12430176537E+02 -0.15431943970E+02  0.89176700448E+02  0.91351727330E+02  0.00000000000E+00 0. -1.
        -14    1    5    5    0    0  0.22645029142E+02  0.91376050990E+02  0.27358974275E+03  0.28933324624E+03  0.00000000000E+00 0.  1.
          5    1    4    4  501    0 -0.23125908117E+02 -0.10239366225E+03 -0.35538230122E+02  0.11090404815E+03  0.41800000000E+01 0. -1.
         -5    1    4    4    0  501  0.13896443702E+02  0.30329324658E+02 -0.40122144107E+02  0.52347281969E+02  0.41800000000E+01 0. -1.
</event>
<event>
11    1  0.6625361E-009  0.1469384E+03  0.7561462E-02  0.1100049E+00
         22   -1    0    0    0    0  0.00000000000E+00  0.00000000000E+00  0.23877014549E+03  0.23877014549E+03  0.00000000000E+00 0.  1.
         22   -1    0    0    0    0 -0.00000000000E+00 -0.00000000000E+00 -0.14821883153E+04  0.14821883153E+04  0.00000000000E+00 0.  1.
        -24    2    1    2    0    0 -0.43232503753E+02 -0.22154319137E+02 -0.13128715477E+04  0.13161289346E+04  0.78764259386E+02 0.  0.
         25    2    1    2    0    0  0.15385262398E+02 -0.53323802070E+02 -0.12129095762E+03  0.18282701948E+03  0.12503634866E+03 0.  0.
         24    2    1    2    0    0  0.27847241355E+02  0.75478121207E+02  0.19074433549E+03  0.22200250672E+03  0.80182889918E+02 0.  0.
        -11    1    5    5    0    0  0.35443497238E+02  0.12194553227E+02  0.12472787405E+03  0.13023820941E+03  0.00000000000E+00 0.  1.
         12    1    5    5    0    0 -0.75962558826E+01  0.63283567980E+02  0.66016461438E+02  0.91764297308E+02  0.00000000000E+00 0. -1.
         11    1    3    3    0    0  0.15942107781E+02 -0.34138797425E+01 -0.68558644512E+03  0.68578027028E+03  0.00000000000E+00 0. -1.
        -12    1    3    3    0    0 -0.59174611534E+02 -0.18740439395E+02 -0.62728510254E+03  0.63034866430E+03  0.00000000000E+00 0.  1.
          5    1    4    4  501    0  0.53491003952E+02 -0.25798516182E+02 -0.12186617487E+03  0.13563070419E+03  0.41800000000E+01 0. -1.
         -5    1    4    4    0  501 -0.38105741554E+02 -0.27525285888E+02  0.57521724667E+00  0.47196315296E+02  0.41800000000E+01 0. -1.
</event>
<event>
11    1  0.6625361E-009  0.1567225E+03  0.7561462E-02  0.1090201E+00
         22   -1    0    0    0    0  0.00000000000E+00  0.00000000000E+00  0.12984731447E+04  0.12984731447E+04  0.00000000000E+00 0.  1.
         22   -1    0    0    0    0 -0.00000000000E+00 -0.00000000000E+00 -0.15867654232E+04  0.15867654232E+04  0.00000000000E+00 0. -1.
         24    2    1    2    0    0  0.22563301327E+02 -0.93166778172E+02 -0.14952493890E+04  0.15005040734E+04  0.80948055537E+02 0.  0.
         25    2    1    2    0    0 -0.70163356206E+02  0.42864704235E+02 -0.22172475240E+02  0.15132689222E+03  0.12509168728E+03 0.  0.
        -24    2    1    2    0    0  0.47600054880E+02  0.50302073936E+02  0.12291295858E+04  0.12334076024E+04  0.75754281001E+02 0.  0.
        -13    1    3    3    0    0 -0.18809754622E+01  0.92913850839E+01 -0.29745101542E+02  0.31219208369E+02  0.00000000000E+00 0.  1.
         14    1    3    3    0    0  0.24444276789E+02 -0.10245816326E+03 -0.14655042875E+04  0.14692848650E+04  0.00000000000E+00 0. -1.
         13    1    5    5    0    0  0.12152609468E+02 -0.20255469897E+02  0.30060057110E+03  0.30152723480E+03  0.00000000000E+00 0. -1.
        -14    1    5    5    0    0  0.35447445411E+02  0.70557543833E+02  0.92852901466E+03  0.93188036756E+03  0.00000000000E+00 0.  1.
          5    1    4    4  501    0 -0.89794576983E+02  0.70630260221E+02 -0.24752102905E+02  0.11696939220E+03  0.41800000000E+01 0.  1.
         -5    1    4    4    0  501  0.19631220777E+02 -0.27765555986E+02  0.25796276646E+01  0.34357500015E+02  0.41800000000E+01 0.  1.
</event>
<event>
11    1  0.6625361E-009  0.1564044E+03  0.7561462E-02  0.1090509E+00
         22   -1    0    0    0    0  0.00000000000E+00  0.00000000000E+00  0.42373268420E+03  0.42373268420E+03  0.00000000000E+00 0.  1.
         22   -1    0    0    0    0 -0.00000000000E+00 -0.00000000000E+00 -0.24437719755E+03  0.24437719755E+03  0.00000000000E+00 0.  1.
         24    2    1    2    0    0 -0.22281587620E+02  0.58035633851E+02 -0.14123310747E+03  0.17453173626E+03  0.81547117493E+02 0.  0.
         25    2    1    2    0    0  0.83639078693E+02 -0.11799615162E+03  0.48948983068E+02  0.19739189013E+03  0.12509583551E+03 0.  0.
        -24    2    1    2    0    0 -0.61357491073E+02  0.59960517774E+02  0.27163961105E+03  0.29618625537E+03  0.81106190723E+02 0.  0.
        -13    1    3    3    0    0 -0.13245414927E+02  0.58725930456E+02 -0.15018005989E+03  0.16179686744E+03  0.00000000000E+00 0.  1.
         14    1    3    3    0    0 -0.90361726930E+01 -0.69029660455E+00  0.89469524161E+01  0.12734868820E+02  0.00000000000E+00 0. -1.
         13    1    5    5    0    0 -0.45513410756E+01  0.54405850693E+02  0.18115999849E+03  0.18920797116E+03  0.00000000000E+00 0. -1.
        -14    1    5    5    0    0 -0.56806149997E+02  0.55546670809E+01  0.90479612560E+02  0.10697828421E+03  0.00000000000E+00 0.  1.
          5    1    4    4  501    0  0.93859497276E+02 -0.31641466384E+02  0.48425232716E+02  0.11033251192E+03  0.41800000000E+01 0.  1.
         -5    1    4    4    0  501 -0.10220418583E+02 -0.86354685240E+02  0.52375035172E+00  0.87059378205E+02  0.41800000000E+01 0.  1.
</event>
<event>
11    1  0.6625361E-009  0.1428600E+03  0.7561462E-02  0.1104406E+00
         22   -1    0    0    0    0  0.00000000000E+00  0.00000000000E+00  0.65013924549E+02  0.65013924549E+02  0.00000000000E+00 0. -1.
         22   -1    0    0    0    0 -0.00000000000E+00 -0.00000000000E+00 -0.43129648644E+04  0.43129648644E+04  0.00000000000E+00 0.  1.
         24    2    1    2    0    0 -0.46104282287E+02  0.18537548240E+00 -0.35822323803E+04  0.35834568888E+04  0.81540224312E+02 0.  0.
         25    2    1    2    0    0  0.66751931457E+02  0.64177506531E+02 -0.65321230631E+03  0.67149694701E+03  0.12508900843E+03 0.  0.
        -24    2    1    2    0    0 -0.20647649171E+02 -0.64362882014E+02 -0.12506253209E+02  0.12302495311E+03  0.10202855836E+03 0.  0.
        -13    1    3    3    0    0  0.72576471016E+01  0.13902633055E+02 -0.22863261198E+04  0.22863799078E+04  0.00000000000E+00 0.  1.
         14    1    3    3    0    0 -0.53361929388E+02 -0.13717257573E+02 -0.12959062605E+04  0.12970769810E+04  0.00000000000E+00 0. -1.
         13    1    5    5    0    0  0.37365507449E+02 -0.27489376911E+02  0.15340515389E+02  0.48858759729E+02  0.00000000000E+00 0. -1.
        -14    1    5    5    0    0 -0.58013156619E+02 -0.36873505103E+02 -0.27846768598E+02  0.74166193383E+02  0.00000000000E+00 0.  1.
          5    1    4    4  501    0  0.10365787723E+03  0.40770308025E+02 -0.48580595188E+03  0.49842960267E+03  0.41800000000E+01 0.  1.
         -5    1    4    4    0  501 -0.36905945776E+02  0.23407198506E+02 -0.16740635442E+03  0.17306734434E+03  0.41800000000E+01 0.  1.
</event>
<event>
11    1  0.6625361E-009  0.3765028E+03  0.7561462E-02  0.9721750E-01
         22   -1    0    0    0    0  0.00000000000E+00  0.00000000000E+00  0.14967538299E+04  0.14967538299E+04  0.00000000000E+00 0.  1.
         22   -1    0    0    0    0 -0.00000000000E+00 -0.00000000000E+00 -0.15306416306E+04  0.15306416306E+04  0.00000000000E+00 0.  1.
         24    2    1    2    0    0 -0.20308955136E+03 -0.27908477808E+03 -0.11540354236E+04  0.12073136815E+04  0.81699983609E+02 0.  0.
         25    2    1    2    0    0  0.20501507993E+03  0.34919912417E+03 -0.21881326522E+03  0.47696772075E+03  0.12509096802E+03 0.  0.
        -24    2    1    2    0    0 -0.19255285737E+01 -0.70114346091E+02  0.13389608881E+04  0.13431140582E+04  0.78863073591E+02 0.  0.
        -13    1    3    3    0    0 -0.17199383290E+03 -0.19650820920E+03 -0.76322145810E+03  0.80666247523E+03  0.00000000000E+00 0.  1.
         14    1    3    3    0    0 -0.31095718455E+02 -0.82576568881E+02 -0.39081396551E+03  0.40065120626E+03  0.00000000000E+00 0. -1.
         11    1    5    5    0    0 -0.14578386256E+02 -0.83551182483E+02  0.11891116282E+04  0.11921324564E+04  0.00000000000E+00 0. -1.
        -12    1    5    5    0    0  0.12652857682E+02  0.13436836392E+02  0.14984925992E+03  0.15098160178E+03  0.00000000000E+00 0.  1.
          5    1    4    4  501    0  0.17386397289E+03  0.27005146869E+03 -0.11158575322E+03  0.34003724728E+03  0.41800000000E+01 0. -1.
         -5    1    4    4    0  501  0.31151107037E+02  0.79147655480E+02 -0.10722751199E+03  0.13693047347E+03  0.41800000000E+01 0. -1.
</event>
<event>
11    1  0.6625361E-009  0.1337399E+03  0.7561462E-02  0.1114757E+00
         22   -1    0    0    0    0  0.00000000000E+00  0.00000000000E+00  0.85416282470E+02  0.85416282470E+02  0.00000000000E+00 0. -1.
         22   -1    0    0    0    0 -0.00000000000E+00 -0.00000000000E+00 -0.77816480269E+03  0.77816480269E+03  0.00000000000E+00 0. -1.
        -24    2    1    2    0    0 -0.26298146528E+02 -0.31180030371E+02 -0.35302894917E+03  0.36441876767E+03  0.80671013832E+02 0.  0.
         25    2    1    2    0    0 -0.57525719338E+01 -0.77318733528E+01 -0.37746194401E+03  0.39776606363E+03  0.12508976076E+03 0.  0.
         24    2    1    2    0    0  0.32050718461E+02  0.38911903724E+02  0.37742372964E+02  0.10139625386E+03  0.79469042872E+02 0.  0.
        -13    1    5    5    0    0  0.93573347164E+01 -0.14349077333E+02 -0.15232125307E+02  0.22923206030E+02  0.00000000000E+00 0.  1.
         14    1    5    5    0    0  0.22693383745E+02  0.53260981057E+02  0.52974498271E+02  0.78473047832E+02  0.00000000000E+00 0. -1.
         11    1    3    3    0    0 -0.17013106780E+01 -0.31379772607E+02 -0.32736693737E+03  0.32887185388E+03  0.00000000000E+00 0. -1.
        -12    1    3    3    0    0 -0.24596835850E+02  0.19974223569E+00 -0.25662011799E+02  0.35546913795E+02  0.00000000000E+00 0.  1.
          5    1    4    4  501    0 -0.58942003224E+01  0.47953099176E+02 -0.69282203618E+02  0.84567945797E+02  0.41800000000E+01 0. -1.
         -5    1    4    4    0  501  0.14162838866E+00 -0.55684972529E+02 -0.30817974039E+03  0.31319811783E+03  0.41800000000E+01 0. -1.
</event>
<event>
11    1  0.6625361E-009  0.1569040E+03  0.7561462E-02  0.1090026E+00
         22   -1    0    0    0    0  0.00000000000E+00  0.00000000000E+00  0.21708552936E+04  0.21708552936E+04  0.00000000000E+00 0.  1.
         22   -1    0    0    0    0 -0.00000000000E+00 -0.00000000000E+00 -0.24141312242E+03  0.24141312242E+03  0.00000000000E+00 0. -1.
        -24    2    1    2    0    0  0.66496813160E+01  0.20813982525E+02 -0.21947201263E+03  0.23472268051E+03  0.80307734927E+02 0.  0.
         25    2    1    2    0    0 -0.82710064304E+02 -0.71745288111E+02  0.57826742117E+03  0.60169442981E+03  0.12511848534E+03 0.  0.
         24    2    1    2    0    0  0.76060382988E+02  0.50931305587E+02  0.15706467627E+04  0.15758513057E+04  0.89425415476E+02 0.  0.
        -11    1    5    5    0    0  0.90680971248E+02  0.55255617326E+02  0.14897835701E+04  0.14935632921E+04  0.00000000000E+00 0.  1.
         12    1    5    5    0    0 -0.14620588260E+02 -0.43243117389E+01  0.80863192570E+02  0.82288013621E+02  0.00000000000E+00 0. -1.
         13    1    3    3    0    0  0.31485373844E+02  0.11229009435E+02 -0.19720107789E+03  0.20001421085E+03  0.00000000000E+00 0. -1.
        -14    1    3    3    0    0 -0.24835692528E+02  0.95849730894E+01 -0.22270934739E+02  0.34708469667E+02  0.00000000000E+00 0.  1.
          5    1    4    4  501    0 -0.11082854370E+01 -0.86798971030E+01 -0.38967247418E+01  0.10451113531E+02  0.41800000000E+01 0. -1.
         -5    1    4    4    0  501 -0.81601778867E+02 -0.63065391008E+02  0.58216414592E+03  0.59124331628E+03  0.41800000000E+01 0. -1.
</event>
<event>
11    1  0.6625361E-009  0.1305194E+03  0.7561462E-02  0.1118632E+00
         22   -1    0    0    0    0  0.00000000000E+00  0.00000000000E+00  0.83022907839E+03  0.83022907839E+03  0.00000000000E+00 0. -1.
         22   -1    0    0    0    0 -0.00000000000E+00 -0.00000000000E+00 -0.11147410187E+04  0.11147410187E+04  0.00000000000E+00 0. -1.
        -24    2    1    2    0    0 -0.27458205522E+02  0.25117141462E+02 -0.10775589238E+04  0.10809076266E+04  0.76441082970E+02 0.  0.
         25    2    1    2    0    0  0.45825961633E+02 -0.10668019244E+02  0.10241778692E+03  0.16837513609E+03  0.12508780109E+03 0.  0.
         24    2    1    2    0    0 -0.18367756110E+02 -0.14449122218E+02  0.69062919657E+03  0.69568733438E+03  0.80411618908E+02 0.  0.
        -11    1    5    5    0    0 -0.35378829417E+02  0.16181694909E+02  0.19629851378E+03  0.20011650440E+03  0.00000000000E+00 0.  1.
         12    1    5    5    0    0  0.17011073307E+02 -0.30630817127E+02  0.49433068279E+03  0.49557082998E+03  0.00000000000E+00 0. -1.
         11    1    3    3    0    0 -0.38024612391E+02  0.20630315589E+02 -0.10519995985E+04  0.10528887103E+04  0.00000000000E+00 0. -1.
        -12    1    3    3    0    0  0.10566406868E+02  0.44868258730E+01 -0.25559325269E+02  0.28018916266E+02  0.00000000000E+00 0.  1.
          5    1    4    4  501    0  0.72362495405E+02 -0.27575925917E+02  0.11107947947E+03  0.13547282233E+03  0.41800000000E+01 0.  1.
         -5    1    4    4    0  501 -0.26536533772E+02  0.16907906673E+02 -0.86616925537E+01  0.32902313757E+02  0.41800000000E+01 0.  1.
</event>
<event>
11    1  0.6625361E-009  0.1477645E+03  0.7561462E-02  0.1099185E+00
         22   -1    0    0    0    0  0.00000000000E+00  0.00000000000E+00  0.28566565485E+03  0.28566565485E+03  0.00000000000E+00 0. -1.
         22   -1    0    0    0    0 -0.00000000000E+00 -0.00000000000E+00 -0.18692219908E+04  0.18692219908E+04  0.00000000000E+00 0. -1.
         24    2    1    2    0    0 -0.69748391588E+01  0.53320282479E+02 -0.13715922178E+04  0.13750008636E+04  0.80439183523E+02 0.  0.
         25    2    1    2    0    0  0.10416565975E+02  0.26504965410E+02 -0.47577507682E+03  0.49276838449E+03  0.12509092288E+03 0.  0.
        -24    2    1    2    0    0 -0.34417268163E+01 -0.79825247889E+02  0.26381095858E+03  0.28711839758E+03  0.80354444021E+02 0.  0.
        -13    1    3    3    0    0 -0.40289511750E+02  0.13749502511E+02 -0.46920251995E+03  0.47112981046E+03  0.00000000000E+00 0.  1.
         14    1    3    3    0    0  0.33314672592E+02  0.39570779967E+02 -0.90238969780E+03  0.90387105316E+03  0.00000000000E+00 0. -1.
         13    1    5    5    0    0  0.23904786507E+02 -0.54147855864E+02  0.22689418921E+03  0.23448753103E+03  0.00000000000E+00 0. -1.
        -14    1    5    5    0    0 -0.27346513324E+02 -0.25677392025E+02  0.36916769375E+02  0.52630866545E+02  0.00000000000E+00 0.  1.
          5    1    4    4  501    0  0.46893827366E+02 -0.22188311461E+02 -0.33954991094E+03  0.34351559882E+03  0.41800000000E+01 0.  1.
         -5    1    4    4    0  501 -0.36477261391E+02  0.48693276872E+02 -0.13622516588E+03  0.14925278567E+03  0.41800000000E+01 0.  1.
</event>
<event>
11    1  0.6625361E-009  0.1819065E+03  0.7561462E-02  0.1068111E+00
         22   -1    0    0    0    0  0.00000000000E+00  0.00000000000E+00  0.14643697937E+04  0.14643697937E+04  0.00000000000E+00 0. -1.
         22   -1    0    0    0    0 -0.00000000000E+00 -0.00000000000E+00 -0.77604641436E+03  0.77604641436E+03  0.00000000000E+00 0.  1.
        -24    2    1    2    0    0  0.26209825572E+02 -0.42560615041E+02 -0.70601500272E+03  0.71301584111E+03  0.86232503700E+02 0.  0.
         25    2    1    2    0    0 -0.56722116783E+02  0.16782383783E+03  0.12707776373E+03  0.25135340175E+03  0.12509010935E+03 0.  0.
         24    2    1    2    0    0  0.30512291211E+02 -0.12526322279E+03  0.12672606183E+04  0.12760469652E+04  0.75660476774E+02 0.  0.
        -13    1    5    5    0    0 -0.17331455190E+02 -0.65109811334E+02  0.42758049513E+03  0.43285649665E+03  0.00000000000E+00 0.  1.
         14    1    5    5    0    0  0.47843746402E+02 -0.60153411459E+02  0.83968012319E+03  0.84319046855E+03  0.00000000000E+00 0. -1.
         13    1    3    3    0    0  0.33654431630E+02  0.64207812826E+01 -0.11679414335E+03  0.12171573079E+03  0.00000000000E+00 0. -1.
        -14    1    3    3    0    0 -0.74446060581E+01 -0.48981396323E+02 -0.58922085937E+03  0.59130011032E+03  0.00000000000E+00 0.  1.
          5    1    4    4  501    0 -0.74821387334E+02  0.14693662908E+03  0.54717241455E+02  0.17378165001E+03  0.41800000000E+01 0. -1.
         -5    1    4    4    0  501  0.18099270550E+02  0.20887208754E+02  0.72360522274E+02  0.77571751739E+02  0.41800000000E+01 0. -1.
</event>
<event>
11    1  0.6625361E-009  0.1528824E+03  0.7561462E-02  0.1093969E+00
         22   -1    0    0    0    0  0.00000000000E+00  0.00000000000E+00  0.34551983288E+03  0.34551983288E+03  0.00000000000E+00 0. -1.
         22   -1    0    0    0    0 -0.00000000000E+00 -0.00000000000E+00 -0.16378519167E+04  0.16378519167E+04  0.00000000000E+00 0.  1.
        -24    2    1    2    0    0  0.39003361443E+02 -0.25435556908E+02 -0.15807865725E+04  0.15836321954E+04  0.82683207292E+02 0.  0.
         25    2    1    2    0    0 -0.97509434185E+02 -0.29390925445E+02  0.18906065135E+03  0.24852220583E+03  0.12508973038E+03 0.  0.
         24    2    1    2    0    0  0.58506072742E+02  0.54826482354E+02  0.99393837383E+02  0.15121734831E+03  0.80985478973E+02 0.  0.
        -13    1    5    5    0    0 -0.30553965684E+01  0.16434233444E+02 -0.10349078945E+02  0.19660185963E+02  0.00000000000E+00 0.  1.
         14    1    5    5    0    0  0.61561469311E+02  0.38392248910E+02  0.10974291633E+03  0.13155716234E+03  0.00000000000E+00 0. -1.
         13    1    3    3    0    0  0.64316297371E+02 -0.24484079901E+02 -0.10618549951E+04  0.10640827444E+04  0.00000000000E+00 0. -1.
        -14    1    3    3    0    0 -0.25312935929E+02 -0.95147700699E+00 -0.51893157739E+03  0.51954945101E+03  0.00000000000E+00 0.  1.
          5    1    4    4  501    0 -0.19417556900E+02 -0.44737431581E+02  0.65684013680E+01  0.49387200740E+02  0.41800000000E+01 0. -1.
         -5    1    4    4    0  501 -0.78091877285E+02  0.15346506136E+02  0.18249224998E+03  0.19913500509E+03  0.41800000000E+01 0. -1.
</event>
<event>
11    1  0.6625361E-009  0.1595166E+03  0.7561462E-02  0.1087533E+00
         22   -1    0    0    0    0  0.00000000000E+00  0.00000000000E+00  0.64042448001E+03  0.64042448001E+03  0.00000000000E+00 0. -1.
         22   -1    0    0    0    0 -0.00000000000E+00 -0.00000000000E+00 -0.13427016415E+04  0.13427016415E+04  0.00000000000E+00 0. -1.
        -24    2    1    2    0    0  0.58989841200E+02 -0.67239375323E+02 -0.10397301361E+04  0.10467210083E+04  0.81149111497E+02 0.  0.
         25    2    1    2    0    0 -0.87053610887E+02  0.16022421848E+03 -0.25088096234E+03  0.33442281676E+03  0.12508889537E+03 0.  0.
         24    2    1    2    0    0  0.28063769687E+02 -0.92984843158E+02  0.58833393697E+03  0.60198229646E+03  0.82535493165E+02 0.  0.
        -11    1    5    5    0    0 -0.27334831332E+02 -0.30688031204E+02  0.26011502096E+03  0.26334155083E+03  0.00000000000E+00 0.  1.
         12    1    5    5    0    0  0.55398601019E+02 -0.62296811955E+02  0.32821891601E+03  0.33864074563E+03  0.00000000000E+00 0. -1.
         11    1    3    3    0    0  0.31858748615E+02 -0.32118003915E+02 -0.87343299173E+03  0.87460376005E+03  0.00000000000E+00 0. -1.
        -12    1    3    3    0    0  0.27131092585E+02 -0.35121371408E+02 -0.16629714439E+03  0.17211724825E+03  0.00000000000E+00 0.  1.
          5    1    4    4  501    0 -0.72248026310E+02  0.14527711133E+02 -0.70863069743E+02  0.10232242545E+03  0.41800000000E+01 0.  1.
         -5    1    4    4    0  501 -0.14805584577E+02  0.14569650735E+03 -0.18001789260E+03  0.23210039131E+03  0.41800000000E+01 0.  1.
</event>
<event>
11    1  0.6625361E-009  0.2079518E+03  0.7561462E-02  0.1049039E+00
         22   -1    0    0    0    0  0.00000000000E+00  0.00000000000E+00  0.73792286435E+03  0.73792286435E+03  0.00000000000E+00 0.  1.
         22   -1    0    0    0    0 -0.00000000000E+00 -0.00000000000E+00 -0.21416311409E+03  0.21416311409E+03  0.00000000000E+00 0. -1.
         24    2    1    2    0    0 -0.80360820627E+02 -0.70567832689E+02 -0.11089277389E+03  0.17329970568E+03  0.79359310640E+02 0.  0.
         25    2    1    2    0    0  0.16694550245E+03  0.17986634308E+03  0.29845704724E+03  0.40613740338E+03  0.12509308223E+03 0.  0.
        -24    2    1    2    0    0 -0.86584681827E+02 -0.10929851039E+03  0.33619547691E+03  0.37264886938E+03  0.79979432699E+02 0.  0.
        -11    1    3    3    0    0 -0.12218602770E+02  0.79680544479E+01  0.69373059800E+01  0.16152719883E+02  0.00000000000E+00 0.  1.
         12    1    3    3    0    0 -0.68142217857E+02 -0.78535887137E+02 -0.11783007987E+03  0.15714698580E+03  0.00000000000E+00 0. -1.
         13    1    5    5    0    0 -0.20837599819E+02 -0.21815743896E+02  0.15750027549E+02  0.34032273150E+02  0.00000000000E+00 0. -1.
        -14    1    5    5    0    0 -0.65747082008E+02 -0.87482766491E+02  0.32044544936E+03  0.33861659623E+03  0.00000000000E+00 0.  1.
          5    1    4    4  501    0  0.69154350552E+02  0.15931410292E+03  0.21065761861E+03  0.27305203216E+03  0.41800000000E+01 0. -1.
         -5    1    4    4    0  501  0.97791151902E+02  0.20552240153E+02  0.87799428629E+02  0.13308537122E+03  0.41800000000E+01 0. -1.
</event>
<event>
11    1  0.6625361E-009  0.1972563E+03  0.7561462E-02  0.1056481E+00
         22   -1    0    0    0    0  0.00000000000E+00  0.00000000000E+00  0.51550987258E+03  0.51550987258E+03  0.00000000000E+00 0. -1.
         22   -1    0    0    0    0 -0.00000000000E+00 -0.00000000000E+00 -0.11970470003E+04  0.11970470003E+04  0.00000000000E+00 0.  1.
        -24    2    1    2    0    0  0.10912038056E+03 -0.10553743326E+03 -0.10734544792E+04  0.10875929428E+04  0.86651503252E+02 0.  0.
         25    2    1    2    0    0 -0.17795107945E+03  0.50204970857E+02  0.90271088031E+01  0.22341883493E+03  0.12508941334E+03 0.  0.
         24    2    1    2    0    0  0.68830698898E+02  0.55332462407E+02  0.38289024259E+03  0.40154509524E+03  0.82669094178E+02 0.  0.
        -11    1    5    5    0    0  0.67446041240E+02  0.52333498871E+01  0.17305015587E+03  0.18580288716E+03  0.00000000000E+00 0.  1.
         12    1    5    5    0    0  0.13846576584E+01  0.50099112520E+02  0.20984008672E+03  0.21574220808E+03  0.00000000000E+00 0. -1.
         11    1    3    3    0    0  0.64422359104E+02 -0.90365283569E+02 -0.49848655339E+03  0.51069067814E+03  0.00000000000E+00 0. -1.
        -12    1    3    3    0    0  0.44698021451E+02 -0.15172149695E+02 -0.57496792577E+03  0.57690226461E+03  0.00000000000E+00 0.  1.
          5    1    4    4  501    0 -0.25818539474E+02 -0.28362002708E+02  0.32627094609E+02  0.50527219207E+02  0.41800000000E+01 0.  1.
         -5    1    4    4    0  501 -0.15213253998E+03  0.78566973566E+02 -0.23599985806E+02  0.17289161572E+03  0.41800000000E+01 0.  1.
</event>
<event>
11    1  0.6625361E-009  0.1514188E+03  0.7561462E-02  0.1095438E+00
         22   -1    0    0    0    0  0.00000000000E+00  0.00000000000E+00  0.51859192852E+03  0.51859192852E+03  0.00000000000E+00 0. -1.
         22   -1    0    0    0    0 -0.00000000000E+00 -0.00000000000E+00 -0.49180735573E+03  0.49180735573E+03  0.00000000000E+00 0.  1.
         24    2    1    2    0    0  0.39429071759E+02  0.80100174353E+02 -0.36344346449E+03  0.38294413025E+03  0.81144102561E+02 0.  0.
         25    2    1    2    0    0 -0.66976854965E+02 -0.38730474957E+02 -0.66239167615E+02  0.16129882298E+03  0.12507491426E+03 0.  0.
        -24    2    1    2    0    0  0.27547783207E+02 -0.41369699396E+02  0.45646720490E+03  0.46615633101E+03  0.80430612396E+02 0.  0.
        -11    1    3    3    0    0  0.28693091570E+02  0.42280963036E+02 -0.32119378250E+03  0.32523286927E+03  0.00000000000E+00 0.  1.
         12    1    3    3    0    0  0.10735980189E+02  0.37819211317E+02 -0.42249681994E+02  0.57711260979E+02  0.00000000000E+00 0. -1.
         11    1    5    5    0    0  0.12520995930E+02 -0.18029527463E+02  0.41875133040E+03  0.41932626427E+03  0.00000000000E+00 0. -1.
        -12    1    5    5    0    0  0.15026787277E+02 -0.23340171933E+02  0.37715874500E+02  0.46830066742E+02  0.00000000000E+00 0.  1.
          5    1    4    4  501    0 -0.12510455677E+02  0.36808166947E+02  0.10577685119E+02  0.40505709199E+02  0.41800000000E+01 0.  1.
         -5    1    4    4    0  501 -0.54466399289E+02 -0.75538641904E+02 -0.76816852733E+02  0.12079311378E+03  0.41800000000E+01 0.  1.
</event>
<event>
11    1  0.6625361E-009  0.1684346E+03  0.7561462E-02  0.1079402E+00
         22   -1    0    0    0    0  0.00000000000E+00  0.00000000000E+00  0.18814620163E+03  0.18814620163E+03  0.00000000000E+00 0. -1.
         22   -1    0    0    0    0 -0.00000000000E+00 -0.00000000000E+00 -0.28169802552E+04  0.28169802552E+04  0.00000000000E+00 0. -1.
         24    2    1    2    0    0  0.73670490505E+01  0.43790655175E+02 -0.14895079107E+04  0.14923798672E+04  0.81190868637E+02 0.  0.
         25    2    1    2    0    0 -0.11260581541E+03 -0.83106087316E+02 -0.12925310203E+04  0.13060899682E+04  0.12509146787E+03 0.  0.
        -24    2    1    2    0    0  0.10523876636E+03  0.39315432141E+02  0.15320487735E+03  0.20665662144E+03  0.81328491884E+02 0.  0.
        -13    1    3    3    0    0 -0.17047776608E+02  0.18512072344E+02 -0.12975822762E+03  0.13217609899E+03  0.00000000000E+00 0.  1.
         14    1    3    3    0    0  0.24414825658E+02  0.25278582831E+02 -0.13597496830E+04  0.13602037682E+04  0.00000000000E+00 0. -1.
         13    1    5    5    0    0  0.10468429454E+03  0.10714473968E+02  0.14002841235E+03  0.17516151901E+03  0.00000000000E+00 0. -1.
        -14    1    5    5    0    0  0.55447182110E+00  0.28600958173E+02  0.13176464999E+02  0.31495102433E+02  0.00000000000E+00 0.  1.
          5    1    4    4  501    0 -0.10958518487E+03 -0.86777423909E+02 -0.12922059709E+04  0.12997511215E+04  0.41800000000E+01 0. -1.
         -5    1    4    4    0  501 -0.30206305422E+01  0.36713365928E+01 -0.32504934233E+00  0.63388467662E+01  0.41800000000E+01 0. -1.
</event>
<event>
11    1  0.6625361E-009  0.1721768E+03  0.7561462E-02  0.1076153E+00
         22   -1    0    0    0    0  0.00000000000E+00  0.00000000000E+00  0.11014471166E+04  0.11014471166E+04  0.00000000000E+00 0. -1.
         22   -1    0    0    0    0 -0.00000000000E+00 -0.00000000000E+00 -0.63846041234E+03  0.63846041234E+03  0.00000000000E+00 0.  1.
        -24    2    1    2    0    0  0.21420131237E+02  0.10531628134E+03 -0.24844076347E+03  0.28222531622E+03  0.79862225302E+02 0.  0.
         25    2    1    2    0    0  0.16311729191E+02 -0.13581584751E+03 -0.34784667175E+03  0.39415345055E+03  0.12509044164E+03 0.  0.
         24    2    1    2    0    0 -0.37731860429E+02  0.30499566177E+02  0.10592741395E+04  0.10635287622E+04  0.81717859521E+02 0.  0.
        -11    1    5    5    0    0 -0.44103226135E+01 -0.26033075870E+02  0.19706812691E+03  0.19882911917E+03  0.00000000000E+00 0.  1.
         12    1    5    5    0    0 -0.33321537815E+02  0.56532642047E+02  0.86220601260E+03  0.86469964304E+03  0.00000000000E+00 0. -1.
         11    1    3    3    0    0 -0.30124792027E+02  0.30285029728E+02 -0.73225650590E+02  0.84774300496E+02  0.00000000000E+00 0. -1.
        -12    1    3    3    0    0  0.51544923265E+02  0.75031251608E+02 -0.17521511288E+03  0.19745101573E+03  0.00000000000E+00 0.  1.
          5    1    4    4  501    0  0.20534696539E+02  0.11269453198E+01 -0.16131352711E+03  0.16267289324E+03  0.41800000000E+01 0.  1.
         -5    1    4    4    0  501 -0.42229673474E+01 -0.13694279283E+03 -0.18653314464E+03  0.23148055731E+03  0.41800000000E+01 0.  1.
</event>
<event>
11    1  0.6625361E-009  0.1761312E+03  0.7561462E-02  0.1072816E+00
         22   -1    0    0    0    0  0.00000000000E+00  0.00000000000E+00  0.10128187044E+04  0.10128187044E+04  0.00000000000E+00 0.  1.
         22   -1    0    0    0    0 -0.00000000000E+00 -0.00000000000E+00 -0.27287038248E+03  0.27287038248E+03  0.00000000000E+00 0. -1.
         24    2    1    2    0    0 -0.11953443235E+03  0.29070908562E+02 -0.22015992472E+03  0.26472037458E+03  0.80454248015E+02 0.  0.
         25    2    1    2    0    0  0.14465588186E+03  0.94174757874E+01  0.31039818421E+03  0.36470292601E+03  0.12508868243E+03 0.  0.
        -24    2    1    2    0    0 -0.25121449506E+02 -0.38488384349E+02  0.64971006239E+03  0.65626578624E+03  0.80306749833E+02 0.  0.
        -13    1    3    3    0    0 -0.76000878195E+02  0.47998090019E+02 -0.94642886378E+02  0.13052672552E+03  0.00000000000E+00 0.  1.
         14    1    3    3    0    0 -0.43533554156E+02 -0.18927181457E+02 -0.12551703834E+03  0.13419364907E+03  0.00000000000E+00 0. -1.
         13    1    5    5    0    0 -0.48243328714E+01 -0.34223207962E+02  0.93730303546E+02  0.99899309075E+02  0.00000000000E+00 0. -1.
        -14    1    5    5    0    0 -0.20297116635E+02 -0.42651763878E+01  0.55597975884E+03  0.55636647717E+03  0.00000000000E+00 0.  1.
          5    1    4    4  501    0  0.37686251578E+02  0.15289781202E+01  0.18243225233E+01  0.37991997641E+02  0.41800000000E+01 0.  1.
         -5    1    4    4    0  501  0.10696963028E+03  0.78884976672E+01  0.30857386168E+03  0.32671092836E+03  0.41800000000E+01 0.  1.
</event>
<event>
11    1  0.6625361E-009  0.2952970E+03  0.7561462E-02  0.1002201E+00
         22   -1    0    0    0    0  0.00000000000E+00  0.00000000000E+00  0.11369962513E+04  0.11369962513E+04  0.00000000000E+00 0.  1.
         22   -1    0    0    0    0 -0.00000000000E+00 -0.00000000000E+00 -0.51019127235E+03  0.51019127235E+03  0.00000000000E+00 0. -1.
        -24    2    1    2    0    0 -0.11771619109E+03  0.22299448036E+03 -0.33903368112E+03  0.43012741780E+03  0.80511605935E+02 0.  0.
         25    2    1    2    0    0  0.19614353600E+03 -0.33264917587E+03  0.23415250505E+03  0.46861724132E+03  0.12508781842E+03 0.  0.
         24    2    1    2    0    0 -0.78427344906E+02  0.10965469552E+03  0.73168615500E+03  0.74844286451E+03  0.81406948943E+02 0.  0.
        -11    1    5    5    0    0 -0.90717256155E+02  0.10173394750E+03  0.70459092798E+03  0.71765436836E+03  0.00000000000E+00 0.  1.
         12    1    5    5    0    0  0.12289911249E+02  0.79207480176E+01  0.27095227025E+02  0.30788496150E+02  0.00000000000E+00 0. -1.
         13    1    3    3    0    0 -0.70212694747E+02  0.17768878895E+03 -0.29360877910E+03  0.35029879158E+03  0.00000000000E+00 0. -1.
        -14    1    3    3    0    0 -0.47503496347E+02  0.45305691410E+02 -0.45424902024E+02  0.79828626215E+02  0.00000000000E+00 0.  1.
          5    1    4    4  501    0  0.19931562527E+03 -0.25354567292E+03  0.21315403924E+03  0.38660605735E+03  0.41800000000E+01 0. -1.
         -5    1    4    4    0  501 -0.31720892719E+01 -0.79103502953E+02  0.20998465810E+02  0.82011183970E+02  0.41800000000E+01 0. -1.
</event>
<event>
11    1  0.6625361E-009  0.1640702E+03  0.7561462E-02  0.1083310E+00
         22   -1    0    0    0    0  0.00000000000E+00  0.00000000000E+00  0.21257280999E+03  0.21257280999E+03  0.00000000000E+00 0.  1.
         22   -1    0    0    0    0 -0.00000000000E+00 -0.00000000000E+00 -0.28863291459E+04  0.28863291459E+04  0.00000000000E+00 0. -1.
        -24    2    1    2    0    0 -0.40851415057E+02  0.17446074721E+02 -0.26092534704E+04  0.26109004976E+04  0.81391227396E+02 0.  0.
         25    2    1    2    0    0 -0.65211281521E+02 -0.43727462159E+02 -0.23026544596E+03  0.27355665279E+03  0.12508582852E+03 0.  0.
         24    2    1    2    0    0  0.10606269658E+03  0.26281387438E+02  0.16576258049E+03  0.21444480548E+03  0.81051431656E+02 0.  0.
        -11    1    5    5    0    0  0.38457359118E+02  0.41830426110E+02  0.11568831600E+03  0.12888964070E+03  0.00000000000E+00 0.  1.
         12    1    5    5    0    0  0.67605337459E+02 -0.15549038672E+02  0.50074264489E+02  0.85555164781E+02  0.00000000000E+00 0. -1.
         11    1    3    3    0    0 -0.63492608056E+02  0.21227244439E+02 -0.16233977541E+04  0.16247775771E+04  0.00000000000E+00 0. -1.
        -12    1    3    3    0    0  0.22641192999E+02 -0.37811697188E+01 -0.98585571634E+03  0.98612292048E+03  0.00000000000E+00 0.  1.
          5    1    4    4  501    0 -0.29478712854E+02  0.36898200866E+02 -0.33986858168E+02  0.58335672335E+02  0.41800000000E+01 0. -1.
         -5    1    4    4    0  501 -0.35732568667E+02 -0.80625663025E+02 -0.19627858779E+03  0.21522098045E+03  0.41800000000E+01 0. -1.
</event>
<event>
11    1  0.6625361E-009  0.1367031E+03  0.7561462E-02  0.1111297E+00
         22   -1    0    0    0    0  0.00000000000E+00  0.00000000000E+00  0.44902955806E+02  0.44902955806E+02  0.00000000000E+00 0.  1.
         22   -1    0    0    0    0 -0.00000000000E+00 -0.00000000000E+00 -0.21720083794E+04  0.21720083794E+04  0.00000000000E+00 0. -1.
         24    2    1    2    0    0 -0.55932158565E+02  0.20665227222E+02 -0.18005664628E+04  0.18034941544E+04  0.83642812649E+02 0.  0.
         25    2    1    2    0    0 -0.65921528494E+00 -0.30336707928E+02 -0.27225557947E+03  0.30115411820E+03  0.12509976796E+03 0.  0.
        -24    2    1    2    0    0  0.56591373850E+02  0.96714807051E+01 -0.54283381355E+02  0.11226306261E+03  0.79750790606E+02 0.  0.
        -11    1    3    3    0    0 -0.34458571695E+02 -0.18795687836E+02 -0.34351011665E+03  0.34574538505E+03  0.00000000000E+00 0.  1.
         12    1    3    3    0    0 -0.21473586870E+02  0.39460915059E+02 -0.14570563461E+04  0.14577487693E+04  0.00000000000E+00 0. -1.
         13    1    5    5    0    0  0.22897896431E+02 -0.24513075808E+02 -0.54812261369E+02  0.64261874723E+02  0.00000000000E+00 0. -1.
        -14    1    5    5    0    0  0.33693477419E+02  0.34184556513E+02  0.52888001370E+00  0.48001187888E+02  0.00000000000E+00 0.  1.
          5    1    4    4  501    0 -0.28453454864E+02 -0.54978441166E+02 -0.25014489222E+03  0.25772498441E+03  0.41800000000E+01 0. -1.
         -5    1    4    4    0  501  0.27794239579E+02  0.24641733238E+02 -0.22110687249E+02  0.43429133786E+02  0.41800000000E+01 0. -1.
</event>
<event>
11    1  0.6625361E-009  0.1402762E+03  0.7561462E-02  0.1107250E+00
         22   -1    0    0    0    0  0.00000000000E+00  0.00000000000E+00  0.49255453592E+03  0.49255453592E+03  0.00000000000E+00 0. -1.
         22   -1    0    0    0    0 -0.00000000000E+00 -0.00000000000E+00 -0.12914828294E+04  0.12914828294E+04  0.00000000000E+00 0.  1.
         24    2    1    2    0    0 -0.60082419440E+02 -0.12556286119E+02 -0.11464848843E+04  0.11526602354E+04  0.10212967619E+03 0.  0.
         25    2    1    2    0    0  0.91965346509E+02  0.17745986369E+02 -0.93129929826E+02  0.18191630076E+03  0.12509121336E+03 0.  0.
        -24    2    1    2    0    0 -0.31882927069E+02 -0.51897002501E+01  0.44068652067E+03  0.44946082920E+03  0.82261615953E+02 0.  0.
        -13    1    3    3    0    0 -0.80465452258E+02  0.17171589999E+02 -0.73138577703E+03  0.73599912184E+03  0.00000000000E+00 0.  1.
         14    1    3    3    0    0  0.20383032818E+02 -0.29727876117E+02 -0.41509910731E+03  0.41666111354E+03  0.00000000000E+00 0. -1.
         11    1    5    5    0    0 -0.35807880424E+02  0.40521392442E+01  0.43742026922E+03  0.43890217140E+03  0.00000000000E+00 0. -1.
        -12    1    5    5    0    0  0.39249533544E+01 -0.92418394943E+01  0.32662514486E+01  0.10558657803E+02  0.00000000000E+00 0.  1.
          5    1    4    4  501    0  0.49940872008E+02  0.14559794406E+02  0.23943279078E+02  0.57418040049E+02  0.41800000000E+01 0.  1.
         -5    1    4    4    0  501  0.42024474500E+02  0.31861919626E+01 -0.11707320890E+03  0.12449826071E+03  0.41800000000E+01 0.  1.
</event>
<event>
11    1  0.6625361E-009  0.1386593E+03  0.7561462E-02  0.1109065E+00
         22   -1    0    0    0    0  0.00000000000E+00  0.00000000000E+00  0.11375100515E+03  0.11375100515E+03  0.00000000000E+00 0.  1.
         22   -1    0    0    0    0 -0.00000000000E+00 -0.00000000000E+00 -0.14634292562E+04  0.14634292562E+04  0.00000000000E+00 0. -1.
        -24    2    1    2    0    0  0.42765107237E+02  0.46942915901E+01 -0.12582112815E+04  0.12621255762E+04  0.89523464060E+02 0.  0.
         25    2    1    2    0    0 -0.29973033273E+02 -0.63477691692E+02 -0.14242503612E+03  0.20213759877E+03  0.12508764071E+03 0.  0.
         24    2    1    2    0    0 -0.12792073964E+02  0.58783400102E+02  0.50958066538E+02  0.11291708634E+03  0.80835750490E+02 0.  0.
        -13    1    5    5    0    0 -0.28753042353E+02  0.99728085885E+01  0.53445470885E+02  0.61502948823E+02  0.00000000000E+00 0.  1.
         14    1    5    5    0    0  0.15960968390E+02  0.48810591513E+02 -0.24874043470E+01  0.51414137513E+02  0.00000000000E+00 0. -1.
         11    1    3    3    0    0  0.88302612099E+01 -0.30885601047E+02 -0.89796968170E+03  0.89854406855E+03  0.00000000000E+00 0. -1.
        -12    1    3    3    0    0  0.33934846027E+02  0.35579892637E+02 -0.36024159976E+03  0.36358150769E+03  0.00000000000E+00 0.  1.
          5    1    4    4  501    0 -0.77259875464E+02 -0.35165695644E+02 -0.10633300779E+03  0.13612455859E+03  0.41800000000E+01 0.  1.
         -5    1    4    4    0  501  0.47286842191E+02 -0.28311996048E+02 -0.36092028333E+02  0.66013040180E+02  0.41800000000E+01 0.  1.
</event>
<event>
11    1  0.6625361E-009  0.1264318E+03  0.7561462E-02  0.1123733E+00
         22   -1    0    0    0    0  0.00000000000E+00  0.00000000000E+00  0.34697756247E+03  0.34697756247E+03  0.00000000000E+00 0.  1.
         22   -1    0    0    0    0 -0.00000000000E+00 -0.00000000000E+00 -0.72268308528E+03  0.72268308528E+03  0.00000000000E+00 0. -1.
        -24    2    1    2    0    0 -0.18241725635E+00 -0.25222029683E+02 -0.64335607319E+03  0.64877336587E+03  0.79772547257E+02 0.  0.
         25    2    1    2    0    0  0.67434043743E+01  0.60527805535E+01 -0.14691482058E+02  0.12627587465E+03  0.12509055607E+03 0.  0.
         24    2    1    2    0    0 -0.65609871179E+01  0.19169249130E+02  0.28234203244E+03  0.29461140722E+03  0.81659973806E+02 0.  0.
        -13    1    5    5    0    0  0.13819217838E+01  0.21753116284E+02  0.28501058737E+03  0.28584286363E+03  0.00000000000E+00 0.  1.
         14    1    5    5    0    0 -0.79429089017E+01 -0.25838671539E+01 -0.26685549342E+01  0.87685435921E+01  0.00000000000E+00 0. -1.
         11    1    3    3    0    0 -0.16468131894E+02 -0.17959772694E+02 -0.61359883251E+03  0.61408247008E+03  0.00000000000E+00 0. -1.
        -12    1    3    3    0    0  0.16285714638E+02 -0.72622569893E+01 -0.29757240682E+02  0.34690895792E+02  0.00000000000E+00 0.  1.
          5    1    4    4  501    0 -0.51859225639E+02  0.68537208695E+01  0.22110838224E+02  0.56944835943E+02  0.41800000000E+01 0.  1.
         -5    1    4    4    0  501  0.58602630013E+02 -0.80094031599E+00 -0.36802320281E+02  0.69331038705E+02  0.41800000000E+01 0.  1.
</event>
<event>
11    1  0.6625361E-009  0.1692750E+03  0.7561462E-02  0.1078664E+00
         22   -1    0    0    0    0  0.00000000000E+00  0.00000000000E+00  0.13480051760E+03  0.13480051760E+03  0.00000000000E+00 0.  1.
         22   -1    0    0    0    0 -0.00000000000E+00 -0.00000000000E+00 -0.67394061682E+03  0.67394061682E+03  0.00000000000E+00 0.  1.
         24    2    1    2    0    0 -0.58883999391E+02  0.64944602491E+02 -0.32695433881E+03  0.34789759407E+03  0.80302363106E+02 0.  0.
         25    2    1    2    0    0  0.12213266278E+03 -0.14294650329E+03 -0.23926992172E+03  0.32900935930E+03  0.12508786091E+03 0.  0.
        -24    2    1    2    0    0 -0.63248663389E+02  0.78001900801E+02  0.27084161297E+02  0.13183418105E+03  0.81006231562E+02 0.  0.
        -11    1    3    3    0    0 -0.24826208271E+02  0.74697803013E+02 -0.26593073093E+03  0.27733599846E+03  0.00000000000E+00 0.  1.
         12    1    3    3    0    0 -0.34057791120E+02 -0.97532005220E+01 -0.61023607879E+02  0.70561595610E+02  0.00000000000E+00 0. -1.
         11    1    5    5    0    0 -0.26594101620E+02  0.38341987471E+02 -0.28223328767E+02  0.54533572512E+02  0.00000000000E+00 0. -1.
        -12    1    5    5    0    0 -0.36654561769E+02  0.39659913330E+02  0.55307490064E+02  0.77300608542E+02  0.00000000000E+00 0.  1.
          5    1    4    4  501    0  0.12425553927E+03 -0.52779972762E+02 -0.13289121469E+03  0.18948010953E+03  0.41800000000E+01 0.  1.
         -5    1    4    4    0  501 -0.21228764941E+01 -0.90166530530E+02 -0.10637870703E+03  0.13952924977E+03  0.41800000000E+01 0.  1.
</event>
<event>
11    1  0.6625361E-009  0.2243394E+03  0.7561462E-02  0.1038533E+00
         22   -1    0    0    0    0  0.00000000000E+00  0.00000000000E+00  0.11490790797E+03  0.11490790797E+03  0.00000000000E+00 0.  1.
         22   -1    0    0    0    0 -0.00000000000E+00 -0.00000000000E+00 -0.19772989033E+04  0.19772989033E+04  0.00000000000E+00 0. -1.
        -24    2    1    2    0    0 -0.16068463701E+02 -0.32777824313E+02 -0.13646444156E+04  0.13674809827E+04  0.80107900261E+02 0.  0.
         25    2    1    2    0    0  0.19395297928E+03 -0.17449484460E+02 -0.46662270769E+03  0.52087073140E+03  0.12508926740E+03 0.  0.
         24    2    1    2    0    0 -0.17788451558E+03  0.50227308774E+02 -0.31123872052E+02  0.20385509720E+03  0.80140637720E+02 0.  0.
        -11    1    5    5    0    0 -0.15072901484E+03  0.21265965767E+02 -0.49554109878E+02  0.16008462456E+03  0.00000000000E+00 0.  1.
         12    1    5    5    0    0 -0.27155500743E+02  0.28961343006E+02  0.18430237826E+02  0.43770472646E+02  0.00000000000E+00 0. -1.
         11    1    3    3    0    0 -0.18980297785E+02 -0.47255489651E+02 -0.13064476910E+04  0.13074398274E+04  0.00000000000E+00 0. -1.
        -12    1    3    3    0    0  0.29118340838E+01  0.14477665337E+02 -0.58196724609E+02  0.60041155274E+02  0.00000000000E+00 0.  1.
          5    1    4    4  501    0  0.15353207898E+03 -0.57837924133E+02 -0.40363023043E+03  0.43572027732E+03  0.41800000000E+01 0. -1.
         -5    1    4    4    0  501  0.40420900297E+02  0.40388439673E+02 -0.62992477261E+02  0.85150454088E+02  0.41800000000E+01 0. -1.
</event>
<event>
11    1  0.6625361E-009  0.1891052E+03  0.7561462E-02  0.1062507E+00
         22   -1    0    0    0    0  0.00000000000E+00  0.00000000000E+00  0.61913266450E+02  0.61913266450E+02  0.00000000000E+00 0.  1.
         22   -1    0    0    0    0 -0.00000000000E+00 -0.00000000000E+00 -0.16053679434E+04  0.16053679434E+04  0.00000000000E+00 0.  1.
        -24    2    1    2    0    0 -0.11319782509E+03 -0.71666781152E+02 -0.10566139149E+04  0.10674331587E+04  0.70927483958E+02 0.  0.
         25    2    1    2    0    0  0.17139099925E+03  0.65370551490E+02 -0.43480514769E+03  0.48821105304E+03  0.12508529981E+03 0.  0.
         24    2    1    2    0    0 -0.58193174154E+02  0.62962296625E+01 -0.52035614350E+02  0.11163699811E+03  0.79555176829E+02 0.  0.
        -13    1    5    5    0    0 -0.67841006205E+02  0.27972073177E+02 -0.47688915710E+02  0.87516122413E+02  0.00000000000E+00 0.  1.
         14    1    5    5    0    0  0.96478320508E+01 -0.21675843514E+02 -0.43466986395E+01  0.24120875697E+02  0.00000000000E+00 0. -1.
         11    1    3    3    0    0 -0.30864574942E+02 -0.61268885018E+02 -0.48112531240E+03  0.48599183582E+03  0.00000000000E+00 0. -1.
        -12    1    3    3    0    0 -0.82333250151E+02 -0.10397896135E+02 -0.57548860252E+03  0.58144132288E+03  0.00000000000E+00 0.  1.
          5    1    4    4  501    0  0.10995728484E+03 -0.24444474085E+02 -0.23594072041E+03  0.26148352290E+03  0.41800000000E+01 0.  1.
         -5    1    4    4    0  501  0.61433714405E+02  0.89815025575E+02 -0.19886442729E+03  0.22672753014E+03  0.41800000000E+01 0.  1.
</event>
<event>
11    1  0.6625361E-009  0.2316254E+03  0.7561462E-02  0.1034170E+00
         22   -1    0    0    0    0  0.00000000000E+00  0.00000000000E+00  0.10476650433E+04  0.10476650433E+04  0.00000000000E+00 0. -1.
         22   -1    0    0    0    0 -0.00000000000E+00 -0.00000000000E+00 -0.53377068789E+03  0.53377068789E+03  0.00000000000E+00 0.  1.
         24    2    1    2    0    0 -0.55718978737E+02 -0.70793213217E+02 -0.46479427413E+03  0.48029689383E+03  0.80839998342E+02 0.  0.
         25    2    1    2    0    0  0.23661125886E+03  0.52854698566E+02  0.36059062800E+03  0.45216349119E+03  0.12509082614E+03 0.  0.
        -24    2    1    2    0    0 -0.18089228012E+03  0.17938514650E+02  0.61809800149E+03  0.64897534613E+03  0.77974695427E+02 0.  0.
        -11    1    3    3    0    0 -0.57487799597E+02 -0.70389281358E+02 -0.46793011968E+03  0.47667399230E+03  0.00000000000E+00 0.  1.
         12    1    3    3    0    0  0.17688208599E+01 -0.40393185821E+00  0.31358455508E+01  0.36229015304E+01  0.00000000000E+00 0. -1.
         11    1    5    5    0    0 -0.17824598614E+03  0.15302199420E+02  0.61962879457E+03  0.64493847144E+03  0.00000000000E+00 0. -1.
        -12    1    5    5    0    0 -0.26462939833E+01  0.26363152297E+01 -0.15307930805E+01  0.40368746936E+01  0.00000000000E+00 0.  1.
          5    1    4    4  501    0  0.10127583006E+03  0.82037152895E+02  0.21309655888E+03  0.24982894951E+03  0.41800000000E+01 0.  1.
         -5    1    4    4    0  501  0.13533542880E+03 -0.29182454328E+02  0.14749406912E+03  0.20233454167E+03  0.41800000000E+01 0.  1.
</event>
<event>
11    1  0.6625361E-009  0.1735791E+03  0.7561462E-02  0.1074958E+00
         22   -1    0    0    0    0  0.00000000000E+00  0.00000000000E+00  0.92984681029E+03  0.92984681029E+03  0.00000000000E+00 0.  1.
         22   -1    0    0    0    0 -0.00000000000E+00 -0.00000000000E+00 -0.31862952431E+03  0.31862952431E+03  0.00000000000E+00 0. -1.
         24    2    1    2    0    0 -0.63241962988E+02  0.96911862388E+02 -0.13117432998E+03  0.19281647644E+03  0.81117407422E+02 0.  0.
         25    2    1    2    0    0  0.35663909400E+02 -0.12719300505E+03 -0.10045648592E+03  0.20781748612E+03  0.12508647811E+03 0.  0.
        -24    2    1    2    0    0  0.27578053588E+02  0.30281142662E+02  0.84284810188E+03  0.84784237204E+03  0.82257330026E+02 0.  0.
        -11    1    3    3    0    0 -0.75195897487E+02  0.91386145473E+02 -0.87446732931E+02  0.14714884194E+03  0.00000000000E+00 0.  1.
         12    1    3    3    0    0  0.11953934499E+02  0.55257169152E+01 -0.43727597047E+02  0.45667634501E+02  0.00000000000E+00 0. -1.
         11    1    5    5    0    0  0.27548927726E+01  0.21125764641E+02  0.47553525202E+02  0.52107822109E+02  0.00000000000E+00 0. -1.
        -12    1    5    5    0    0  0.24823160815E+02  0.91553780211E+01  0.79529457668E+03  0.79573454993E+03  0.00000000000E+00 0.  1.
          5    1    4    4  501    0  0.22039819794E+01 -0.14004290457E+03 -0.56848931598E+02  0.15121556164E+03  0.41800000000E+01 0.  1.
         -5    1    4    4    0  501  0.33459927421E+02  0.12849899522E+02 -0.43607554321E+02  0.56601924478E+02  0.41800000000E+01 0.  1.
</event>
<event>
11    1  0.6625361E-009  0.1441451E+03  0.7561462E-02  0.1103016E+00
         22   -1    0    0    0    0  0.00000000000E+00  0.00000000000E+00  0.35138274799E+03  0.35138274799E+03  0.00000000000E+00 0. -1.
         22   -1    0    0    0    0 -0.00000000000E+00 -0.00000000000E+00 -0.49351187029E+03  0.49351187029E+03  0.00000000000E+00 0. -1.
         24    2    1    2    0    0 -0.25732755703E+02 -0.69126973880E+02 -0.41200648715E+03  0.42619287092E+03  0.80313787960E+02 0.  0.
         25    2    1    2    0    0 -0.44390269003E+02  0.63225832298E+02  0.22041111730E+02  0.14866487344E+03  0.12508969637E+03 0.  0.
        -24    2    1    2    0    0  0.70123024707E+02  0.59011415824E+01  0.24783625313E+03  0.27003687392E+03  0.80901439084E+02 0.  0.
        -11    1    3    3    0    0 -0.12844667658E+02 -0.15690693939E+02 -0.14560768035E+02  0.24963960609E+02  0.00000000000E+00 0.  1.
         12    1    3    3    0    0 -0.12888088045E+02 -0.53436279941E+02 -0.39744571911E+03  0.40122891031E+03  0.00000000000E+00 0. -1.
         11    1    5    5    0    0  0.25347601299E+02 -0.23157412188E+02  0.18234052150E+03  0.18554469115E+03  0.00000000000E+00 0. -1.
        -12    1    5    5    0    0  0.44775423408E+02  0.29058553770E+02  0.65495731622E+02  0.84492182770E+02  0.00000000000E+00 0.  1.
          5    1    4    4  501    0 -0.27004762529E+02  0.10112144907E+03  0.10949252530E+02  0.10531933912E+03  0.41800000000E+01 0.  1.
         -5    1    4    4    0  501 -0.17385506474E+02 -0.37895616770E+02  0.11091859199E+02  0.43345534328E+02  0.41800000000E+01 0.  1.
</event>
<event>
11    1  0.6625361E-009  0.1645469E+03  0.7561462E-02  0.1082877E+00
         22   -1    0    0    0    0  0.00000000000E+00  0.00000000000E+00  0.45598367056E+03  0.45598367056E+03  0.00000000000E+00 0.  1.
         22   -1    0    0    0    0 -0.00000000000E+00 -0.00000000000E+00 -0.12330092193E+04  0.12330092193E+04  0.00000000000E+00 0.  1.
        -24    2    1    2    0    0 -0.43861936224E+02 -0.44956221700E+02 -0.11189415370E+04  0.11236310964E+04  0.81066308334E+02 0.  0.
         25    2    1    2    0    0 -0.16045568368E+02 -0.51558225299E+02 -0.52919238563E+02  0.14615329081E+03  0.12507848634E+03 0.  0.
         24    2    1    2    0    0  0.59907504592E+02  0.96514447000E+02  0.39483522682E+03  0.41920850262E+03  0.83288443034E+02 0.  0.
        -11    1    5    5    0    0  0.69159076516E+02  0.70863808818E+02  0.20768231709E+03  0.23007955602E+03  0.00000000000E+00 0.  1.
         12    1    5    5    0    0 -0.92515719240E+01  0.25650638182E+02  0.18715290973E+03  0.18912894660E+03  0.00000000000E+00 0. -1.
         11    1    3    3    0    0 -0.33166848114E+02 -0.14582109225E+02 -0.15603056925E+03  0.16018182251E+03  0.00000000000E+00 0. -1.
        -12    1    3    3    0    0 -0.10695088110E+02 -0.30374112475E+02 -0.96291096774E+03  0.96344927392E+03  0.00000000000E+00 0.  1.
          5    1    4    4  501    0 -0.50686657859E+02 -0.10689061180E+02  0.19902444126E+02  0.55650453691E+02  0.41800000000E+01 0. -1.
         -5    1    4    4    0  501  0.34641089491E+02 -0.40869164120E+02 -0.72821682689E+02  0.90502837119E+02  0.41800000000E+01 0. -1.
</event>
<event>
11    1  0.6625361E-009  0.1833267E+03  0.7561462E-02  0.1066983E+00
         22   -1    0    0    0    0  0.00000000000E+00  0.00000000000E+00  0.70753572976E+02  0.70753572976E+02  0.00000000000E+00 0.  1.
         22   -1    0    0    0    0 -0.00000000000E+00 -0.00000000000E+00 -0.37918255587E+04  0.37918255587E+04  0.00000000000E+00 0.  1.
         24    2    1    2    0    0 -0.28998892897E+02  0.13001784446E+03 -0.29457125156E+04  0.29498176746E+04  0.80352430359E+02 0.  0.
         25    2    1    2    0    0 -0.91208199365E+02 -0.15784127886E+03 -0.72431628929E+03  0.75730735440E+03  0.12509011608E+03 0.  0.
        -24    2    1    2    0    0  0.12020709226E+03  0.27823434408E+02 -0.51043180846E+02  0.15545410271E+03  0.79603286403E+02 0.  0.
        -11    1    3    3    0    0 -0.39587255222E+02  0.13712562172E+03 -0.27304899419E+04  0.27342176047E+04  0.00000000000E+00 0.  1.
         12    1    3    3    0    0  0.10588362325E+02 -0.71077772616E+01 -0.21522257370E+03  0.21560006991E+03  0.00000000000E+00 0. -1.
         13    1    5    5    0    0 -0.74201403114E+00  0.17029254440E+02 -0.26593413925E+02  0.31587272054E+02  0.00000000000E+00 0. -1.
        -14    1    5    5    0    0  0.12094910629E+03  0.10794179968E+02 -0.24449766920E+02  0.12386683066E+03  0.00000000000E+00 0.  1.
          5    1    4    4  501    0 -0.98771081498E+02 -0.58434539964E+02 -0.47681751743E+03  0.49045156675E+03  0.41800000000E+01 0. -1.
         -5    1    4    4    0  501  0.75628821324E+01 -0.99406738901E+02 -0.24749877186E+03  0.26685578764E+03  0.41800000000E+01 0. -1.
</event>
<event>
11    1  0.6625361E-009  0.1511259E+03  0.7561462E-02  0.1095734E+00
         22   -1    0    0    0    0  0.00000000000E+00  0.00000000000E+00  0.16020365441E+03  0.16020365441E+03  0.00000000000E+00 0.  1.
         22   -1    0    0    0    0 -0.00000000000E+00 -0.00000000000E+00 -0.11571259874E+04  0.11571259874E+04  0.00000000000E+00 0.  1.
        -24    2    1    2    0    0 -0.85240430852E+01  0.81415720449E+02 -0.95900543228E+03  0.96549913680E+03  0.76131367884E+02 0.  0.
         25    2    1    2    0    0  0.31481831888E+02 -0.12391681809E+03 -0.12709919767E+03  0.21942651016E+03  0.12508918326E+03 0.  0.
         24    2    1    2    0    0 -0.22957788803E+02  0.42501097639E+02  0.89182296922E+02  0.13240399490E+03  0.85111294277E+02 0.  0.
        -13    1    5    5    0    0 -0.12464551756E+02  0.28927241657E+02  0.10466012788E+03  0.10929726771E+03  0.00000000000E+00 0.  1.
         14    1    5    5    0    0 -0.10493237047E+02  0.13573855982E+02 -0.15477830963E+02  0.23106727187E+02  0.00000000000E+00 0. -1.
         11    1    3    3    0    0 -0.12039269670E+02 -0.11880011143E+02 -0.98248629942E+02  0.99693891309E+02  0.00000000000E+00 0. -1.
        -12    1    3    3    0    0  0.35152265847E+01  0.93295731591E+02 -0.86075680234E+03  0.86580524549E+03  0.00000000000E+00 0.  1.
          5    1    4    4  501    0  0.29551478303E+02 -0.13681200036E+03 -0.62416594627E+02  0.15331052474E+03  0.41800000000E+01 0.  1.
         -5    1    4    4    0  501  0.19303535849E+01  0.12895182271E+02 -0.64682603047E+02  0.66115985417E+02  0.41800000000E+01 0.  1.
</event>
<event>
11    1  0.7700792E-009  0.1550615E+03  0.7561462E-02  0.1091816E+00
         22   -1    0    0    0    0  0.00000000000E+00  0.00000000000E+00  0.47702631216E+03  0.47702631216E+03  0.00000000000E+00 0.  1.
         22   -1    0    0    0    0 -0.00000000000E+00 -0.00000000000E+00 -0.72436916908E+03  0.72436916908E+03  0.00000000000E+00 0.  1.
         24    2    1    2    0    0 -0.34802979238E+02 -0.50490475234E+02 -0.51314016998E+03  0.52273250182E+03  0.78586887966E+02 0.  0.
         25    2    1    2    0    0  0.12473044100E+03  0.55964015284E+02 -0.15471465294E+03  0.24139334891E+03  0.12507786033E+03 0.  0.
        -24    2    1    2    0    0 -0.89927461758E+02 -0.54735400498E+01  0.42051196600E+03  0.43726963051E+03  0.79104413310E+02 0.  0.
        -13    1    3    3    0    0 -0.48482414217E+02 -0.46835798792E+02 -0.49572645163E+03  0.50028876799E+03  0.00000000000E+00 0.  1.
         14    1    3    3    0    0  0.13679434979E+02 -0.36546764428E+01 -0.17413718346E+02  0.22443733822E+02  0.00000000000E+00 0. -1.
         13    1    5    5    0    0  0.14774098603E+02  0.17824639745E+01  0.56919683352E+02  0.58832826893E+02  0.00000000000E+00 0. -1.
        -14    1    5    5    0    0 -0.10470156036E+03 -0.72560040243E+01  0.36359228264E+03  0.37843680362E+03  0.00000000000E+00 0.  1.
          5    1    4    4  501    0  0.10797230449E+03 -0.11850112053E+02 -0.61690641510E+02  0.12498660465E+03  0.41800000000E+01 0. -1.
         -5    1    4    4    0  501  0.16758136505E+02  0.67814127338E+02 -0.93024011429E+02  0.11640674425E+03  0.41800000000E+01 0. -1.
</event>
<event>
11    1  0.6625361E-009  0.1559183E+03  0.7561462E-02  0.1090980E+00
         22   -1    0    0    0    0  0.00000000000E+00  0.00000000000E+00  0.84400358676E+03  0.84400358676E+03  0.00000000000E+00 0. -1.
         22   -1    0    0    0    0 -0.00000000000E+00 -0.00000000000E+00 -0.42154185105E+03  0.42154185105E+03  0.00000000000E+00 0. -1.
        -24    2    1    2    0    0 -0.18341641108E+02 -0.95324859481E+02 -0.37219258114E+03  0.39292461666E+03  0.80244577924E+02 0.  0.
         25    2    1    2    0    0  0.47330153177E+02  0.32115234839E+02  0.10032160199E+03  0.17023730989E+03  0.12507911954E+03 0.  0.
         24    2    1    2    0    0 -0.28988512068E+02  0.63209624642E+02  0.69433271487E+03  0.70238351126E+03  0.80055527406E+02 0.  0.
        -11    1    5    5    0    0 -0.44145766453E+02  0.12654038698E+02  0.19816994618E+03  0.20342148598E+03  0.00000000000E+00 0.  1.
         12    1    5    5    0    0  0.15157254384E+02  0.50555585944E+02  0.49616276869E+03  0.49896202527E+03  0.00000000000E+00 0. -1.
         13    1    3    3    0    0  0.11370604732E+01 -0.37414547320E+02 -0.27893060477E+03  0.28143102802E+03  0.00000000000E+00 0. -1.
        -14    1    3    3    0    0 -0.19478701582E+02 -0.57910312161E+02 -0.93261976373E+02  0.11149358864E+03  0.00000000000E+00 0.  1.
          5    1    4    4  501    0  0.81599320644E+02  0.26803025725E+02  0.28873953396E+02  0.90708483078E+02  0.41800000000E+01 0.  1.
         -5    1    4    4    0  501 -0.34269167468E+02  0.53122091142E+01  0.71447648597E+02  0.79528826815E+02  0.41800000000E+01 0.  1.
</event>
<event>
11    1  0.6625361E-009  0.1466203E+03  0.7561462E-02  0.1100383E+00
         22   -1    0    0    0    0  0.00000000000E+00  0.00000000000E+00  0.12595809638E+04  0.12595809638E+04  0.00000000000E+00 0. -1.
         22   -1    0    0    0    0 -0.00000000000E+00 -0.00000000000E+00 -0.52599627856E+02  0.52599627856E+02  0.00000000000E+00 0.  1.
         24    2    1    2    0    0  0.66130533222E+02  0.28712520610E+02  0.47668238603E+02  0.12016692317E+03  0.83487557085E+02 0.  0.
         25    2    1    2    0    0 -0.86273749154E+02 -0.56032712725E+02  0.46883782623E+03  0.49602326064E+03  0.12508934051E+03 0.  0.
        -24    2    1    2    0    0  0.20143215931E+02  0.27320192115E+02  0.69047527111E+03  0.69599040784E+03  0.80587875925E+02 0.  0.
        -11    1    3    3    0    0  0.78306999071E+02  0.34098121047E+02  0.58062331290E+02  0.10327585525E+03  0.00000000000E+00 0.  1.
         12    1    3    3    0    0 -0.12176465849E+02 -0.53856004370E+01 -0.10394092687E+02  0.16891067919E+02  0.00000000000E+00 0. -1.
         11    1    5    5    0    0  0.23296570350E+01  0.14339138580E+02  0.64776584348E+03  0.64792871998E+03  0.00000000000E+00 0. -1.
        -12    1    5    5    0    0  0.17813558896E+02  0.12981053535E+02  0.42709427634E+02  0.48061687863E+02  0.00000000000E+00 0.  1.
          5    1    4    4  501    0 -0.91007450027E+02 -0.83284335882E+02  0.29246598649E+03  0.31744678643E+03  0.41800000000E+01 0. -1.
         -5    1    4    4    0  501  0.47337008737E+01  0.27251623157E+02  0.17637183974E+03  0.17857647421E+03  0.41800000000E+01 0. -1.
</event>
<event>
11    1  0.6625361E-009  0.1359393E+03  0.7561462E-02  0.1112179E+00
         22   -1    0    0    0    0  0.00000000000E+00  0.00000000000E+00  0.29153277768E+03  0.29153277768E+03  0.00000000000E+00 0. -1.
         22   -1    0    0    0    0 -0.00000000000E+00 -0.00000000000E+00 -0.28128189581E+04  0.28128189581E+04  0.00000000000E+00 0.  1.
         24    2    1    2    0    0  0.33798863424E+02  0.43923508874E+02 -0.22016202546E+04  0.22037463726E+04  0.79339091756E+02 0.  0.
         25    2    1    2    0    0 -0.46572478209E+02 -0.10486275236E+02 -0.59646071424E+03  0.61130347827E+03  0.12509037222E+03 0.  0.
        -24    2    1    2    0    0  0.12773614785E+02 -0.33437233639E+02  0.27679478843E+03  0.28930188490E+03  0.76151243467E+02 0.  0.
        -13    1    3    3    0    0  0.27311296333E+02  0.14303698083E+01 -0.17184919903E+04  0.17187095955E+04  0.00000000000E+00 0.  1.
         14    1    3    3    0    0  0.64875670912E+01  0.42493139066E+02 -0.48312826432E+03  0.48503677714E+03  0.00000000000E+00 0. -1.
         13    1    5    5    0    0 -0.28200402002E+02  0.36703262201E+01  0.80692761818E+02  0.85557324511E+02  0.00000000000E+00 0. -1.
        -14    1    5    5    0    0  0.40974016787E+02 -0.37107559859E+02  0.19610202661E+03  0.20374456039E+03  0.00000000000E+00 0.  1.
          5    1    4    4  501    0 -0.23851884072E+02  0.48352358765E+02 -0.13333476140E+03  0.14388361258E+03  0.41800000000E+01 0.  1.
         -5    1    4    4    0  501 -0.22720594136E+02 -0.58838634001E+02 -0.46312595284E+03  0.46741986569E+03  0.41800000000E+01 0.  1.
</event>
<event>
11    1  0.6625361E-009  0.1420679E+03  0.7561462E-02  0.1105271E+00
         22   -1    0    0    0    0  0.00000000000E+00  0.00000000000E+00  0.14985503787E+03  0.14985503787E+03  0.00000000000E+00 0. -1.
         22   -1    0    0    0    0 -0.00000000000E+00 -0.00000000000E+00 -0.11675254516E+04  0.11675254516E+04  0.00000000000E+00 0. -1.
         24    2    1    2    0    0  0.54991779104E+02 -0.42937579899E+02 -0.73894847916E+03  0.74656663109E+03  0.80306589253E+02 0.  0.
         25    2    1    2    0    0 -0.62051070827E+02  0.15633385937E+02 -0.39992134930E+03  0.42388609175E+03  0.12509034736E+03 0.  0.
        -24    2    1    2    0    0  0.70592917234E+01  0.27304193962E+02  0.12119941471E+03  0.14692776665E+03  0.78122454387E+02 0.  0.
        -11    1    3    3    0    0  0.83386091989E+01  0.23515040841E+02 -0.15342526008E+03  0.15544066385E+03  0.00000000000E+00 0.  1.
         12    1    3    3    0    0  0.46653169905E+02 -0.66452620739E+02 -0.58552321908E+03  0.59112596724E+03  0.00000000000E+00 0. -1.
         11    1    5    5    0    0 -0.25987829781E+02 -0.63046306168E+01  0.79911155982E+02  0.84266888600E+02  0.00000000000E+00 0. -1.
        -12    1    5    5    0    0  0.33047121504E+02  0.33608824579E+02  0.41288258727E+02  0.62660878050E+02  0.00000000000E+00 0.  1.
          5    1    4    4  501    0  0.12622215097E+01 -0.62564041857E+01 -0.31750043079E+03  0.31759208389E+03  0.41800000000E+01 0. -1.
         -5    1    4    4    0  501 -0.63313292337E+02  0.21889790122E+02 -0.82420918508E+02  0.10629400785E+03  0.41800000000E+01 0. -1.
</event>
<event>
11    1  0.6625361E-009  0.2170231E+03  0.7561462E-02  0.1043098E+00
         22   -1    0    0    0    0  0.00000000000E+00  0.00000000000E+00  0.79271618894E+03  0.79271618894E+03  0.00000000000E+00 0. -1.
         22   -1    0    0    0    0 -0.00000000000E+00 -0.00000000000E+00 -0.36791693679E+03  0.36791693679E+03  0.00000000000E+00 0.  1.
        -24    2    1    2    0    0  0.37696073563E+02 -0.58595478904E+02 -0.22059544997E+03  0.24216598796E+03  0.71607185846E+02 0.  0.
         25    2    1    2    0    0  0.91698651884E+02 -0.72694960361E+02 -0.62660288969E+02  0.18239240946E+03  0.12508988446E+03 0.  0.
         24    2    1    2    0    0 -0.12939472545E+03  0.13129043926E+03  0.70805499109E+03  0.73607472832E+03  0.80523045430E+02 0.  0.
        -11    1    5    5    0    0 -0.38678511289E+02  0.20287365906E+01  0.21137720445E+03  0.21489640659E+03  0.00000000000E+00 0.  1.
         12    1    5    5    0    0 -0.90716214158E+02  0.12926170267E+03  0.49667778664E+03  0.52117832172E+03  0.00000000000E+00 0. -1.
         11    1    3    3    0    0 -0.45544063343E+01 -0.22457442325E+02 -0.11180988993E+02  0.25496938007E+02  0.00000000000E+00 0. -1.
        -12    1    3    3    0    0  0.42250479897E+02 -0.36138036579E+02 -0.20941446098E+03  0.21666904995E+03  0.00000000000E+00 0.  1.
          5    1    4    4  501    0  0.12075259159E+03 -0.63294792439E+02 -0.65743638669E+02  0.15141703190E+03  0.41800000000E+01 0. -1.
         -5    1    4    4    0  501 -0.29053939704E+02 -0.94001679216E+01  0.30833497002E+01  0.30975377555E+02  0.41800000000E+01 0. -1.
</event>
<event>
11    1  0.6625361E-009  0.1568228E+03  0.7561462E-02  0.1090104E+00
         22   -1    0    0    0    0  0.00000000000E+00  0.00000000000E+00  0.33641962059E+03  0.33641962059E+03  0.00000000000E+00 0. -1.
         22   -1    0    0    0    0 -0.00000000000E+00 -0.00000000000E+00 -0.53907058756E+03  0.53907058756E+03  0.00000000000E+00 0. -1.
         24    2    1    2    0    0 -0.68973350210E+02  0.63825120146E+02 -0.35549382978E+03  0.37633518720E+03  0.80133270955E+02 0.  0.
         25    2    1    2    0    0  0.10977386036E+03  0.23716758479E+02 -0.11489234955E+03  0.20363283807E+03  0.12511313162E+03 0.  0.
        -24    2    1    2    0    0 -0.40800510151E+02 -0.87541878625E+02  0.26773521235E+03  0.29552218288E+03  0.79517007591E+02 0.  0.
        -11    1    3    3    0    0 -0.41345533223E+02  0.56049719206E+02 -0.11730904058E+03  0.13642739879E+03  0.00000000000E+00 0.  1.
         12    1    3    3    0    0 -0.27627816987E+02  0.77754009401E+01 -0.23818478920E+03  0.23990778841E+03  0.00000000000E+00 0. -1.
         11    1    5    5    0    0 -0.14239969641E+02 -0.61491908105E+02  0.24247070767E+03  0.25055154275E+03  0.00000000000E+00 0. -1.
        -12    1    5    5    0    0 -0.26560540510E+02 -0.26049970520E+02  0.25264504686E+02  0.44970640126E+02  0.00000000000E+00 0.  1.
          5    1    4    4  501    0  0.11184451770E+03  0.40628387018E+02 -0.38329626314E+02  0.12508594895E+03  0.41800000000E+01 0. -1.
         -5    1    4    4    0  501 -0.20706573373E+01 -0.16911628539E+02 -0.76562723238E+02  0.78546889126E+02  0.41800000000E+01 0. -1.
</event>
<event>
11    1  0.6625361E-009  0.1439711E+03  0.7561462E-02  0.1103203E+00
         22   -1    0    0    0    0  0.00000000000E+00  0.00000000000E+00  0.20958886234E+03  0.20958886234E+03  0.00000000000E+00 0. -1.
         22   -1    0    0    0    0 -0.00000000000E+00 -0.00000000000E+00 -0.11040888152E+04  0.11040888152E+04  0.00000000000E+00 0.  1.
         24    2    1    2    0    0  0.16530426844E+02  0.35796129199E+02 -0.85729458042E+03  0.86203104609E+03  0.81172094487E+02 0.  0.
         25    2    1    2    0    0  0.22275895877E+02 -0.93911771212E+02 -0.20104803122E+03  0.25570412759E+03  0.12509457903E+03 0.  0.
        -24    2    1    2    0    0 -0.38806322721E+02  0.58115642012E+02  0.16384265874E+03  0.19594250390E+03  0.81643673856E+02 0.  0.
        -11    1    3    3    0    0  0.28256114078E+02 -0.15219183343E+02 -0.48681177258E+03  0.48786856165E+03  0.00000000000E+00 0.  1.
         12    1    3    3    0    0 -0.11725687235E+02  0.51015312542E+02 -0.37048280784E+03  0.37416248444E+03  0.00000000000E+00 0. -1.
         11    1    5    5    0    0 -0.10669350448E+02  0.33197602485E+02  0.15285914961E+03  0.15678595431E+03  0.00000000000E+00 0. -1.
        -12    1    5    5    0    0 -0.28136972273E+02  0.24918039527E+02  0.10983509128E+02  0.39156549584E+02  0.00000000000E+00 0.  1.
          5    1    4    4  501    0  0.28793597231E+02  0.42675474738E+01 -0.13247185848E+03  0.13569653235E+03  0.41800000000E+01 0.  1.
         -5    1    4    4    0  501 -0.65177013543E+01 -0.98179318685E+02 -0.68576172741E+02  0.12000759524E+03  0.41800000000E+01 0.  1.
</event>
<event>
11    1  0.6625361E-009  0.3087816E+03  0.7561462E-02  0.9965417E-01
         22   -1    0    0    0    0  0.00000000000E+00  0.00000000000E+00  0.49019677817E+03  0.49019677817E+03  0.00000000000E+00 0.  1.
         22   -1    0    0    0    0 -0.00000000000E+00 -0.00000000000E+00 -0.15063983207E+04  0.15063983207E+04  0.00000000000E+00 0. -1.
        -24    2    1    2    0    0  0.51942307572E+02 -0.16725621509E+02 -0.13141390181E+04  0.13177496180E+04  0.80777144626E+02 0.  0.
         25    2    1    2    0    0  0.14445360820E+03  0.23161208677E+03  0.94840737089E+02  0.31488695877E+03  0.12509207701E+03 0.  0.
         24    2    1    2    0    0 -0.19639591577E+03 -0.21488646526E+03  0.20309673847E+03  0.36395852211E+03  0.80436135907E+02 0.  0.
        -13    1    5    5    0    0 -0.19765509940E+03 -0.21523358672E+03  0.18509449760E+03  0.34590895943E+03  0.00000000000E+00 0.  1.
         14    1    5    5    0    0  0.12591836286E+01  0.34712146185E+00  0.18002240875E+02  0.18049562688E+02  0.00000000000E+00 0. -1.
         11    1    3    3    0    0  0.22350804702E+02 -0.45061748337E+02 -0.48559084615E+03  0.48818909195E+03  0.00000000000E+00 0. -1.
        -12    1    3    3    0    0  0.29591502869E+02  0.28336126828E+02 -0.82854817192E+03  0.82956052602E+03  0.00000000000E+00 0.  1.
          5    1    4    4  501    0  0.82395977231E+02  0.35620524825E+02  0.55240834117E+02  0.10548431640E+03  0.41800000000E+01 0. -1.
         -5    1    4    4    0  501  0.62057630967E+02  0.19599156194E+03  0.39599902972E+02  0.20940264237E+03  0.41800000000E+01 0. -1.
</event>
<event>
11    1  0.6625361E-009  0.1828772E+03  0.7561462E-02  0.1067339E+00
         22   -1    0    0    0    0  0.00000000000E+00  0.00000000000E+00  0.11995533463E+03  0.11995533463E+03  0.00000000000E+00 0.  1.
         22   -1    0    0    0    0 -0.00000000000E+00 -0.00000000000E+00 -0.92231268883E+03  0.92231268883E+03  0.00000000000E+00 0. -1.
         24    2    1    2    0    0 -0.32918040902E+01  0.49877529590E+02 -0.66686244551E+03  0.67354518522E+03  0.80367850361E+02 0.  0.
         25    2    1    2    0    0 -0.10864175719E+03 -0.10122405556E+03 -0.62041862241E+02  0.20382788895E+03  0.12508906753E+03 0.  0.
        -24    2    1    2    0    0  0.11193356128E+03  0.51346525970E+02 -0.73453046444E+02  0.16489494929E+03  0.81421166790E+02 0.  0.
        -11    1    3    3    0    0  0.17610195840E+02 -0.16502672745E+02 -0.21585321341E+03  0.21719822040E+03  0.00000000000E+00 0.  1.
         12    1    3    3    0    0 -0.20901999930E+02  0.66380202335E+02 -0.45100923210E+03  0.45634696482E+03  0.00000000000E+00 0. -1.
         11    1    5    5    0    0  0.33539963871E+02 -0.11983427687E+02 -0.50060183916E+02  0.61437396831E+02  0.00000000000E+00 0. -1.
        -12    1    5    5    0    0  0.78393597406E+02  0.63329953657E+02 -0.23392862528E+02  0.10345755246E+03  0.00000000000E+00 0.  1.
          5    1    4    4  501    0 -0.12943190503E+03 -0.51153823292E+02 -0.37685493909E+02  0.14424631894E+03  0.41800000000E+01 0.  1.
         -5    1    4    4    0  501  0.20790147840E+02 -0.50070232267E+02 -0.24356368332E+02  0.59581570010E+02  0.41800000000E+01 0.  1.
</event>
<event>
11    1  0.6625361E-009  0.2632287E+03  0.7561462E-02  0.1017079E+00
         22   -1    0    0    0    0  0.00000000000E+00  0.00000000000E+00  0.24009153843E+04  0.24009153843E+04  0.00000000000E+00 0.  1.
         22   -1    0    0    0    0 -0.00000000000E+00 -0.00000000000E+00 -0.21293839908E+03  0.21293839908E+03  0.00000000000E+00 0.  1.
        -24    2    1    2    0    0  0.56130425469E+01  0.11480196727E+02 -0.11193607607E+03  0.15636785974E+03  0.10843394889E+03 0.  0.
         25    2    1    2    0    0  0.19953916960E+03  0.97892497087E+02  0.15341481919E+03  0.29762645857E+03  0.12508629382E+03 0.  0.
         24    2    1    2    0    0 -0.20515221215E+03 -0.10937269381E+03  0.21464982421E+04  0.21598594650E+04  0.59062587256E+02 0.  0.
        -13    1    5    5    0    0 -0.16126743834E+03 -0.60747858436E+02  0.16730519255E+04  0.16819037530E+04  0.00000000000E+00 0.  1.
         14    1    5    5    0    0 -0.43884773812E+02 -0.48624835378E+02  0.47344631657E+03  0.47795571203E+03  0.00000000000E+00 0. -1.
         11    1    3    3    0    0 -0.49337233401E+02 -0.92021792440E+01 -0.57213728509E+02  0.76106855357E+02  0.00000000000E+00 0. -1.
        -12    1    3    3    0    0  0.54950275948E+02  0.20682375971E+02 -0.54722347562E+02  0.80261004387E+02  0.00000000000E+00 0.  1.
          5    1    4    4  501    0  0.17263827085E+03  0.99066101801E+02  0.17325623600E+03  0.26391904214E+03  0.41800000000E+01 0. -1.
         -5    1    4    4    0  501  0.26900898748E+02 -0.11736047139E+01 -0.19841416809E+02  0.33707416431E+02  0.41800000000E+01 0. -1.
</event>
<event>
11    1  0.6625361E-009  0.1496191E+03  0.7561462E-02  0.1097269E+00
         22   -1    0    0    0    0  0.00000000000E+00  0.00000000000E+00  0.97688540657E+02  0.97688540657E+02  0.00000000000E+00 0.  1.
         22   -1    0    0    0    0 -0.00000000000E+00 -0.00000000000E+00 -0.13661078212E+04  0.13661078212E+04  0.00000000000E+00 0. -1.
        -24    2    1    2    0    0 -0.18357828553E+02 -0.71112457886E+00 -0.11173300276E+04  0.11202073700E+04  0.78106630177E+02 0.  0.
         25    2    1    2    0    0  0.19215687317E+02  0.82526340540E+02 -0.16766712951E+03  0.22569684891E+03  0.12508781623E+03 0.  0.
         24    2    1    2    0    0 -0.85785876419E+00 -0.81815215961E+02  0.16577876553E+02  0.11789214295E+03  0.83242212212E+02 0.  0.
        -13    1    5    5    0    0 -0.28072633513E+02 -0.68900511166E+02  0.35378325315E+02  0.82383123838E+02  0.00000000000E+00 0.  1.
         14    1    5    5    0    0  0.27214774749E+02 -0.12914704796E+02 -0.18800448763E+02  0.35509019112E+02  0.00000000000E+00 0. -1.
         13    1    3    3    0    0  0.11605297613E+02 -0.12758493405E+02 -0.92675289282E+03  0.92691336512E+03  0.00000000000E+00 0. -1.
        -14    1    3    3    0    0 -0.29963126166E+02  0.12047368826E+02 -0.19057713481E+03  0.19329400492E+03  0.00000000000E+00 0.  1.
          5    1    4    4  501    0 -0.16981346343E+02  0.40295538640E+02  0.50316038894E+01  0.44214092726E+02  0.41800000000E+01 0.  1.
         -5    1    4    4    0  501  0.36197033660E+02  0.42230801900E+02 -0.17269873340E+03  0.18148275619E+03  0.41800000000E+01 0.  1.
</event>
<event>
11    1  0.6625361E-009  0.1705748E+03  0.7561462E-02  0.1077533E+00
         22   -1    0    0    0    0  0.00000000000E+00  0.00000000000E+00  0.11094220192E+04  0.11094220192E+04  0.00000000000E+00 0.  1.
         22   -1    0    0    0    0 -0.00000000000E+00 -0.00000000000E+00 -0.74547632856E+03  0.74547632856E+03  0.00000000000E+00 0.  1.
        -24    2    1    2    0    0 -0.10805790264E+03  0.82635045735E+02 -0.54576685435E+03  0.56833503721E+03  0.81475113447E+02 0.  0.
         25    2    1    2    0    0  0.37514423197E+02 -0.59470133713E+02 -0.15798269714E+03  0.21342434066E+03  0.12508951930E+03 0.  0.
         24    2    1    2    0    0  0.70543479440E+02 -0.23164912022E+02  0.10676952421E+04  0.10731389699E+04  0.78365317454E+02 0.  0.
        -11    1    5    5    0    0 -0.76192295848E+01  0.86516738320E+01  0.39537850819E+03  0.39554654449E+03  0.00000000000E+00 0.  1.
         12    1    5    5    0    0  0.78162709025E+02 -0.31816585854E+02  0.67231673391E+03  0.67759242537E+03  0.00000000000E+00 0. -1.
         11    1    3    3    0    0 -0.14405529845E+02 -0.15590073268E+02 -0.49810726581E+02  0.54144973517E+02  0.00000000000E+00 0. -1.
        -12    1    3    3    0    0 -0.93652372792E+02  0.98225119002E+02 -0.49595612777E+03  0.51419006370E+03  0.00000000000E+00 0.  1.
          5    1    4    4  501    0  0.56762672764E+02  0.32818341128E+01 -0.12999400654E+03  0.14194606579E+03  0.41800000000E+01 0.  1.
         -5    1    4    4    0  501 -0.19248249568E+02 -0.62751967826E+02 -0.27988690597E+02  0.71478274873E+02  0.41800000000E+01 0.  1.
</event>
<event>
11    1  0.6625361E-009  0.1282600E+03  0.7561462E-02  0.1121426E+00
         22   -1    0    0    0    0  0.00000000000E+00  0.00000000000E+00  0.16287699518E+03  0.16287699518E+03  0.00000000000E+00 0.  1.
         22   -1    0    0    0    0 -0.00000000000E+00 -0.00000000000E+00 -0.57647790991E+03  0.57647790991E+03  0.00000000000E+00 0. -1.
         24    2    1    2    0    0  0.28409358939E+02 -0.13173217962E+02 -0.40945382577E+03  0.41848132734E+03  0.80582631810E+02 0.  0.
         25    2    1    2    0    0 -0.17689519236E+02 -0.15335053423E+02 -0.12234872954E+03  0.17652943330E+03  0.12508135851E+03 0.  0.
        -24    2    1    2    0    0 -0.10719839702E+02  0.28508271385E+02  0.11820164059E+03  0.14434414445E+03  0.77045231517E+02 0.  0.
        -11    1    3    3    0    0  0.26736880343E+02 -0.34720077614E+02 -0.11236978930E+03  0.12061224692E+03  0.00000000000E+00 0.  1.
         12    1    3    3    0    0  0.16724785952E+01  0.21546859652E+02 -0.29708403647E+03  0.29786908042E+03  0.00000000000E+00 0. -1.
         13    1    5    5    0    0 -0.10660782301E+02  0.16444404381E+02 -0.52625131349E+01  0.20291987562E+02  0.00000000000E+00 0. -1.
        -14    1    5    5    0    0 -0.59057401006E-01  0.12063867004E+02  0.12346415372E+03  0.12405215689E+03  0.00000000000E+00 0.  1.
          5    1    4    4  501    0  0.12753855442E+02 -0.90765888737E+00 -0.13834824804E+03  0.13900070075E+03  0.41800000000E+01 0. -1.
         -5    1    4    4    0  501 -0.30443374678E+02 -0.14427394536E+02  0.15999518497E+02  0.37528732553E+02  0.41800000000E+01 0. -1.
</event>
<event>
11    1  0.6625361E-009  0.1607304E+03  0.7561462E-02  0.1086392E+00
         22   -1    0    0    0    0  0.00000000000E+00  0.00000000000E+00  0.25764461417E+04  0.25764461417E+04  0.00000000000E+00 0.  1.
         22   -1    0    0    0    0 -0.00000000000E+00 -0.00000000000E+00 -0.79063410885E+03  0.79063410885E+03  0.00000000000E+00 0.  1.
         24    2    1    2    0    0  0.93406377663E+02 -0.38317495430E+02 -0.77823471120E+03  0.78888698917E+03  0.80625269659E+02 0.  0.
         25    2    1    2    0    0 -0.87327908672E+02  0.37168985667E+02  0.10126667012E+04  0.10247678778E+04  0.12509060099E+03 0.  0.
        -24    2    1    2    0    0 -0.60784689905E+01  0.11485097625E+01  0.15513800428E+04  0.15534253835E+04  0.79448840514E+02 0.  0.
        -11    1    3    3    0    0  0.81762888313E+02 -0.49770342527E+02 -0.75140522782E+03  0.75747744079E+03  0.00000000000E+00 0.  1.
         12    1    3    3    0    0  0.11643489350E+02  0.11452847097E+02 -0.26829483379E+02  0.31409548377E+02  0.00000000000E+00 0. -1.
         13    1    5    5    0    0  0.19365316871E+01 -0.37701145434E+02  0.57352402775E+03  0.57476511457E+03  0.00000000000E+00 0. -1.
        -14    1    5    5    0    0 -0.80150006775E+01  0.38849655197E+02  0.97785601502E+03  0.97866026897E+03  0.00000000000E+00 0.  1.
          5    1    4    4  501    0 -0.55483456819E+02 -0.31026871120E+02  0.23585861890E+03  0.24431095191E+03  0.41800000000E+01 0. -1.
         -5    1    4    4    0  501 -0.31844451853E+02  0.68195856787E+02  0.77680808233E+03  0.78045692589E+03  0.41800000000E+01 0. -1.
</event>
<event>
11    1  0.6625361E-009  0.1313811E+03  0.7561462E-02  0.1117584E+00
         22   -1    0    0    0    0  0.00000000000E+00  0.00000000000E+00  0.26637608397E+03  0.26637608397E+03  0.00000000000E+00 0. -1.
         22   -1    0    0    0    0 -0.00000000000E+00 -0.00000000000E+00 -0.54570507064E+03  0.54570507064E+03  0.00000000000E+00 0. -1.
        -24    2    1    2    0    0 -0.30820706212E+02 -0.26769846615E+02 -0.49237693677E+03  0.50050536825E+03  0.80025215844E+02 0.  0.
         25    2    1    2    0    0  0.18464205569E+02  0.13914002497E+02  0.68320974743E+02  0.14439413400E+03  0.12508950393E+03 0.  0.
         24    2    1    2    0    0  0.12356500643E+02  0.12855844118E+02  0.14472697535E+03  0.16718165235E+03  0.81767057249E+02 0.  0.
        -11    1    5    5    0    0  0.37232197348E+01 -0.27716243720E+02  0.16630727942E+02  0.32536650765E+02  0.00000000000E+00 0.  1.
         12    1    5    5    0    0  0.86332809086E+01  0.40572087838E+02  0.12809624741E+03  0.13464500158E+03  0.00000000000E+00 0. -1.
         13    1    3    3    0    0  0.41821225128E+01 -0.11368046341E+02 -0.40434048092E+03  0.40452187473E+03  0.00000000000E+00 0. -1.
        -14    1    3    3    0    0 -0.35002828725E+02 -0.15401800273E+02 -0.88036455850E+02  0.95983493524E+02  0.00000000000E+00 0.  1.
          5    1    4    4  501    0  0.25976803334E+02 -0.39736845353E+02  0.75809404168E+02  0.89545236336E+02  0.41800000000E+01 0. -1.
         -5    1    4    4    0  501 -0.75125977658E+01  0.53650847850E+02 -0.74884294258E+01  0.54848897669E+02  0.41800000000E+01 0. -1.
</event>
<event>
11    1  0.6625361E-009  0.1637252E+03  0.7561462E-02  0.1083625E+00
         22   -1    0    0    0    0  0.00000000000E+00  0.00000000000E+00  0.11948279955E+03  0.11948279955E+03  0.00000000000E+00 0. -1.
         22   -1    0    0    0    0 -0.00000000000E+00 -0.00000000000E+00 -0.94644204761E+03  0.94644204761E+03  0.00000000000E+00 0. -1.
         24    2    1    2    0    0 -0.67285921693E+02 -0.74307224345E+02 -0.65034542425E+03  0.66293639181E+03  0.80538996140E+02 0.  0.
         25    2    1    2    0    0  0.12295797633E+03  0.68803352359E+02 -0.22444734946E+03  0.29304587529E+03  0.12508679828E+03 0.  0.
        -24    2    1    2    0    0 -0.55672054633E+02  0.55038719858E+01  0.47833525650E+02  0.10994258006E+03  0.81667952472E+02 0.  0.
        -11    1    3    3    0    0 -0.60032211929E+02 -0.82370199725E+01 -0.36140171065E+03  0.36644632817E+03  0.00000000000E+00 0.  1.
         12    1    3    3    0    0 -0.72537097636E+01 -0.66070204372E+02 -0.28894371360E+03  0.29649006364E+03  0.00000000000E+00 0. -1.
         13    1    5    5    0    0 -0.48992106141E+02  0.30657992100E+02  0.58114125844E+02  0.81959688667E+02  0.00000000000E+00 0. -1.
        -14    1    5    5    0    0 -0.66799484921E+01 -0.25154120114E+02 -0.10280600194E+02  0.27982891397E+02  0.00000000000E+00 0.  1.
          5    1    4    4  501    0  0.73819619529E+02 -0.98633256410E+01 -0.16942870842E+03  0.18512207069E+03  0.41800000000E+01 0. -1.
         -5    1    4    4    0  501  0.49138356798E+02  0.78666678000E+02 -0.55018641045E+02  0.10792380460E+03  0.41800000000E+01 0. -1.
</event>
<event>
11    1  0.6625361E-009  0.1327132E+03  0.7561462E-02  0.1115980E+00
         22   -1    0    0    0    0  0.00000000000E+00  0.00000000000E+00  0.15909254692E+04  0.15909254692E+04  0.00000000000E+00 0.  1.
         22   -1    0    0    0    0 -0.00000000000E+00 -0.00000000000E+00 -0.62967814793E+02  0.62967814793E+02  0.00000000000E+00 0.  1.
        -24    2    1    2    0    0  0.26511919096E+01  0.38625203203E+01  0.25945514389E+02  0.85232825107E+02  0.81052556264E+02 0.  0.
         25    2    1    2    0    0 -0.82806359288E+01 -0.47710436445E+02  0.10950040542E+03  0.17313855948E+03  0.12506705127E+03 0.  0.
         24    2    1    2    0    0  0.56294440192E+01  0.43847916125E+02  0.13925117346E+04  0.13955218994E+04  0.80237836124E+02 0.  0.
        -13    1    5    5    0    0 -0.84575271538E+01  0.27925069908E+02  0.13096927342E+04  0.13100177088E+04  0.00000000000E+00 0.  1.
         14    1    5    5    0    0  0.14086971173E+02  0.15922846217E+02  0.82819000409E+02  0.85504190641E+02  0.00000000000E+00 0. -1.
         11    1    3    3    0    0 -0.22677374776E+02  0.67056263250E+01  0.46711633735E+02  0.52356522778E+02  0.00000000000E+00 0. -1.
        -12    1    3    3    0    0  0.25328566686E+02 -0.28431060046E+01 -0.20766119346E+02  0.32876302329E+02  0.00000000000E+00 0.  1.
          5    1    4    4  501    0 -0.22141443656E+02  0.35343095546E+02  0.66224128874E+02  0.78374010840E+02  0.41800000000E+01 0. -1.
         -5    1    4    4    0  501  0.13860807727E+02 -0.83053531992E+02  0.43276276547E+02  0.94764548640E+02  0.41800000000E+01 0. -1.
</event>
<event>
11    1  0.6625361E-009  0.1297077E+03  0.7561462E-02  0.1119629E+00
         22   -1    0    0    0    0  0.00000000000E+00  0.00000000000E+00  0.29258771813E+03  0.29258771813E+03  0.00000000000E+00 0.  1.
         22   -1    0    0    0    0 -0.00000000000E+00 -0.00000000000E+00 -0.37571820743E+03  0.37571820743E+03  0.00000000000E+00 0.  1.
         24    2    1    2    0    0 -0.16563764493E+02 -0.32978504302E+02 -0.22203200038E+03  0.23982852343E+03  0.82810454739E+02 0.  0.
         25    2    1    2    0    0  0.10203789075E+02  0.23726204273E+02 -0.10841584173E+03  0.16753032601E+03  0.12508143473E+03 0.  0.
        -24    2    1    2    0    0  0.63599754185E+01  0.92523000292E+01  0.24731735282E+03  0.26094707613E+03  0.82470899065E+02 0.  0.
        -13    1    3    3    0    0 -0.48172414147E+02 -0.27100085336E+02 -0.10760166786E+03  0.12096741312E+03  0.00000000000E+00 0.  1.
         14    1    3    3    0    0  0.31608649653E+02 -0.58784189664E+01 -0.11443033253E+03  0.11886111031E+03  0.00000000000E+00 0. -1.
         13    1    5    5    0    0  0.57451551446E+01 -0.16807616584E+01 -0.53585278042E+01  0.80340268618E+01  0.00000000000E+00 0. -1.
        -14    1    5    5    0    0  0.61482027393E+00  0.10933061688E+02  0.25267588062E+03  0.25291304927E+03  0.00000000000E+00 0.  1.
          5    1    4    4  501    0  0.13176656240E+02  0.24711790615E+01 -0.13351008314E+03  0.13424658541E+03  0.41800000000E+01 0.  1.
         -5    1    4    4    0  501 -0.29728671652E+01  0.21255025212E+02  0.25094241412E+02  0.33283740594E+02  0.41800000000E+01 0.  1.
</event>
<event>
11    1  0.6625361E-009  0.1496563E+03  0.7561462E-02  0.1097230E+00
         22   -1    0    0    0    0  0.00000000000E+00  0.00000000000E+00  0.10255948191E+04  0.10255948191E+04  0.00000000000E+00 0.  1.
         22   -1    0    0    0    0 -0.00000000000E+00 -0.00000000000E+00 -0.25645933190E+03  0.25645933190E+03  0.00000000000E+00 0. -1.
         24    2    1    2    0    0  0.17092835255E+02  0.63401831016E+02 -0.22417503833E+03  0.24704132326E+03  0.80392850398E+02 0.  0.
         25    2    1    2    0    0  0.61989828013E+02 -0.81049874106E+02  0.41141348081E+03  0.44195014169E+03  0.12508818763E+03 0.  0.
        -24    2    1    2    0    0 -0.79082663268E+02  0.17648043090E+02  0.58189704471E+03  0.59306268604E+03  0.80954665534E+02 0.  0.
        -13    1    3    3    0    0  0.26143626599E+02  0.25698719886E+02 -0.25592943030E+02  0.44709195346E+02  0.00000000000E+00 0.  1.
         14    1    3    3    0    0 -0.90507913439E+01  0.37703111130E+02 -0.19858209530E+03  0.20233212792E+03  0.00000000000E+00 0. -1.
         11    1    5    5    0    0  0.74101492197E+01 -0.19066661860E+02  0.94003017701E+02  0.96202989782E+02  0.00000000000E+00 0. -1.
        -12    1    5    5    0    0 -0.86492812488E+02  0.36714704949E+02  0.48789402701E+03  0.49685969626E+03  0.00000000000E+00 0.  1.
          5    1    4    4  501    0  0.43739173010E+02 -0.90884523412E+02  0.15696470704E+03  0.18662396284E+03  0.41800000000E+01 0.  1.
         -5    1    4    4    0  501  0.18250655002E+02  0.98346493064E+01  0.25444877377E+03  0.25532617885E+03  0.41800000000E+01 0.  1.
</event>
<event>
11    1  0.6625361E-009  0.1773603E+03  0.7561462E-02  0.1071798E+00
         22   -1    0    0    0    0  0.00000000000E+00  0.00000000000E+00  0.27828048822E+03  0.27828048822E+03  0.00000000000E+00 0. -1.
         22   -1    0    0    0    0 -0.00000000000E+00 -0.00000000000E+00 -0.32028113477E+03  0.32028113477E+03  0.00000000000E+00 0. -1.
         24    2    1    2    0    0 -0.61001501639E+00  0.26237380866E+02 -0.15021194943E+03  0.17236703959E+03  0.80361647009E+02 0.  0.
         25    2    1    2    0    0 -0.12465362041E+03 -0.33677294701E+02 -0.69423525916E+02  0.19271659140E+03  0.12508946154E+03 0.  0.
        -24    2    1    2    0    0  0.12526363543E+03  0.74399138351E+01  0.17763482880E+03  0.23347799201E+03  0.84920608047E+02 0.  0.
        -11    1    3    3    0    0 -0.26873220651E+02  0.40590608210E+02 -0.59679734605E+02  0.77015830747E+02  0.00000000000E+00 0.  1.
         12    1    3    3    0    0  0.26263205635E+02 -0.14353227344E+02 -0.90532214829E+02  0.95351208841E+02  0.00000000000E+00 0. -1.
         11    1    5    5    0    0  0.44235893721E+02  0.21321124533E+01  0.13434816789E+03  0.14145950096E+03  0.00000000000E+00 0. -1.
        -12    1    5    5    0    0  0.81027741710E+02  0.53078013818E+01  0.43286660911E+02  0.92018491048E+02  0.00000000000E+00 0.  1.
          5    1    4    4  501    0 -0.82235984471E+02  0.41053051696E+02 -0.49213913825E+02  0.10434362419E+03  0.41800000000E+01 0.  1.
         -5    1    4    4    0  501 -0.42417635944E+02 -0.74730346397E+02 -0.20209612091E+02  0.88372967205E+02  0.41800000000E+01 0.  1.
</event>
<event>
11    1  0.6625361E-009  0.1342601E+03  0.7561462E-02  0.1114143E+00
         22   -1    0    0    0    0  0.00000000000E+00  0.00000000000E+00  0.62779885739E+03  0.62779885739E+03  0.00000000000E+00 0.  1.
         22   -1    0    0    0    0 -0.00000000000E+00 -0.00000000000E+00 -0.17453433979E+03  0.17453433979E+03  0.00000000000E+00 0. -1.
         24    2    1    2    0    0  0.46371190828E+02  0.12887955353E+02 -0.13816017867E+03  0.16699541081E+03  0.80516119680E+02 0.  0.
         25    2    1    2    0    0 -0.54653312195E+02 -0.35994378028E+02  0.29270183328E+03  0.32496815416E+03  0.12508940093E+03 0.  0.
        -24    2    1    2    0    0  0.82821213671E+01  0.23106422675E+02  0.29872286298E+03  0.31036963221E+03  0.80569593705E+02 0.  0.
        -13    1    3    3    0    0 -0.22795214719E+01 -0.17395374155E+02 -0.13273963151E+00  0.17544596888E+02  0.00000000000E+00 0.  1.
         14    1    3    3    0    0  0.48650712300E+02  0.30283329509E+02 -0.13802743904E+03  0.14945081392E+03  0.00000000000E+00 0. -1.
         11    1    5    5    0    0 -0.29800606241E+02  0.32518777832E+02  0.13547812244E+03  0.14247760773E+03  0.00000000000E+00 0. -1.
        -12    1    5    5    0    0  0.38082727608E+02 -0.94123551571E+01  0.16324474054E+03  0.16789202448E+03  0.00000000000E+00 0.  1.
          5    1    4    4  501    0 -0.10933139920E+02  0.18309036717E+02  0.23026180333E+03  0.23128494298E+03  0.41800000000E+01 0.  1.
         -5    1    4    4    0  501 -0.43720172276E+02 -0.54303414745E+02  0.62440029952E+02  0.93683211181E+02  0.41800000000E+01 0.  1.
</event>
<event>
11    1  0.6625361E-009  0.2626063E+03  0.7561462E-02  0.1017390E+00
         22   -1    0    0    0    0  0.00000000000E+00  0.00000000000E+00  0.11789093215E+04  0.11789093215E+04  0.00000000000E+00 0.  1.
         22   -1    0    0    0    0 -0.00000000000E+00 -0.00000000000E+00 -0.81657689583E+03  0.81657689583E+03  0.00000000000E+00 0. -1.
        -24    2    1    2    0    0  0.21949971665E+03 -0.35188391307E+02 -0.59473488602E+03  0.64016359525E+03  0.81740415556E+02 0.  0.
         25    2    1    2    0    0 -0.27229315886E+03  0.36896511823E+02 -0.81176860984E+02  0.31263557304E+03  0.12508557802E+03 0.  0.
         24    2    1    2    0    0  0.52793442213E+02 -0.17081205159E+01  0.10382441727E+04  0.10426870491E+04  0.80344601123E+02 0.  0.
        -13    1    5    5    0    0  0.76874100544E+01  0.33111671519E+02  0.23780331275E+03  0.24022051248E+03  0.00000000000E+00 0.  1.
         14    1    5    5    0    0  0.45106032158E+02 -0.34819792035E+02  0.80044085997E+03  0.80246653660E+03  0.00000000000E+00 0. -1.
         13    1    3    3    0    0  0.18697812700E+03 -0.58986576641E+02 -0.50807247674E+03  0.54458964168E+03  0.00000000000E+00 0. -1.
        -14    1    3    3    0    0  0.32521589645E+02  0.23798185334E+02 -0.86662409282E+02  0.95573953569E+02  0.00000000000E+00 0.  1.
          5    1    4    4  501    0 -0.47312165283E+02  0.55770040367E+02 -0.17868588142E+01  0.73276214768E+02  0.41800000000E+01 0.  1.
         -5    1    4    4    0  501 -0.22498099358E+03 -0.18873528544E+02 -0.79390002169E+02  0.23935935828E+03  0.41800000000E+01 0.  1.
</event>
<event>
11    1  0.6625361E-009  0.1266372E+03  0.7561462E-02  0.1123471E+00
         22   -1    0    0    0    0  0.00000000000E+00  0.00000000000E+00  0.60932288854E+03  0.60932288854E+03  0.00000000000E+00 0.  1.
         22   -1    0    0    0    0 -0.00000000000E+00 -0.00000000000E+00 -0.15698314319E+04  0.15698314319E+04  0.00000000000E+00 0. -1.
        -24    2    1    2    0    0 -0.10671320018E+02  0.38697558174E+01 -0.15368889426E+04  0.15390446799E+04  0.80635307695E+02 0.  0.
         25    2    1    2    0    0  0.95190970617E+01  0.16329132221E+02  0.11366051236E+03  0.17006676056E+03  0.12508691861E+03 0.  0.
         24    2    1    2    0    0  0.11522229558E+01 -0.20198888038E+02  0.46271988691E+03  0.47004287993E+03  0.80132967806E+02 0.  0.
        -11    1    5    5    0    0 -0.13881989891E+02  0.15405293983E+02  0.35490276021E+03  0.35550808982E+03  0.00000000000E+00 0.  1.
         12    1    5    5    0    0  0.15034212846E+02 -0.35604182021E+02  0.10781712671E+03  0.11453479010E+03  0.00000000000E+00 0. -1.
         11    1    3    3    0    0 -0.27999331698E+02 -0.31378696950E+02 -0.75681811263E+03  0.75798564683E+03  0.00000000000E+00 0. -1.
        -12    1    3    3    0    0  0.17328011681E+02  0.35248452767E+02 -0.78007082996E+03  0.78105903308E+03  0.00000000000E+00 0.  1.
          5    1    4    4  501    0  0.52657469312E+02 -0.21652898363E+02  0.92455899712E+02  0.10866104580E+03  0.41800000000E+01 0. -1.
         -5    1    4    4    0  501 -0.43138372250E+02  0.37982030584E+02  0.21204612651E+02  0.61405714761E+02  0.41800000000E+01 0. -1.
</event>
<event>
11    1  0.6625361E-009  0.2969937E+03  0.7561462E-02  0.1001472E+00
         22   -1    0    0    0    0  0.00000000000E+00  0.00000000000E+00  0.19716880345E+04  0.19716880345E+04  0.00000000000E+00 0.  1.
         22   -1    0    0    0    0 -0.00000000000E+00 -0.00000000000E+00 -0.89017491945E+02  0.89017491945E+02  0.00000000000E+00 0.  1.
        -24    2    1    2    0    0 -0.49050159168E+02 -0.18818087930E+02  0.38012060491E+02  0.98821997851E+02  0.74570986106E+02 0.  0.
         25    2    1    2    0    0  0.10867085970E+03 -0.24544234038E+03  0.44928683693E+03  0.53810568794E+03  0.12509105227E+03 0.  0.
         24    2    1    2    0    0 -0.59620700528E+02  0.26426042831E+03  0.13953716451E+04  0.14237778407E+04  0.81811427006E+02 0.  0.
        -13    1    5    5    0    0 -0.52993989088E+02  0.26721908710E+03  0.13059052146E+04  0.13340175534E+04  0.00000000000E+00 0.  1.
         14    1    5    5    0    0 -0.66267114401E+01 -0.29586587920E+01  0.89466430561E+02  0.89760287230E+02  0.00000000000E+00 0. -1.
         11    1    3    3    0    0 -0.67655729973E+02 -0.62566478999E+01  0.34147786835E+02  0.76042848361E+02  0.00000000000E+00 0. -1.
        -12    1    3    3    0    0  0.18605570805E+02 -0.12561440030E+02  0.38642736554E+01  0.22779149490E+02  0.00000000000E+00 0.  1.
          5    1    4    4  501    0  0.15841134439E+02 -0.12835889001E+03  0.11999080245E+03  0.17647155934E+03  0.41800000000E+01 0.  1.
         -5    1    4    4    0  501  0.92829725257E+02 -0.11708345037E+03  0.32929603448E+03  0.36163412860E+03  0.41800000000E+01 0.  1.
</event>
<event>
11    1  0.6625361E-009  0.1623311E+03  0.7561462E-02  0.1084905E+00
         22   -1    0    0    0    0  0.00000000000E+00  0.00000000000E+00  0.76046781552E+03  0.76046781552E+03  0.00000000000E+00 0.  1.
         22   -1    0    0    0    0 -0.00000000000E+00 -0.00000000000E+00 -0.10404067974E+03  0.10404067974E+03  0.00000000000E+00 0.  1.
        -24    2    1    2    0    0 -0.48688916774E+02 -0.49968547654E+02 -0.13278650614E+02  0.10750453637E+03  0.80705863517E+02 0.  0.
         25    2    1    2    0    0  0.13843072305E+03  0.11733789823E+02  0.21534611896E+03  0.28518881152E+03  0.12513177197E+03 0.  0.
         24    2    1    2    0    0 -0.89741806278E+02  0.38234757831E+02  0.45435966744E+03  0.47181514737E+03  0.81555731829E+02 0.  0.
        -13    1    5    5    0    0 -0.20300240184E+02 -0.60974461678E+01  0.25804312827E+03  0.25891221418E+03  0.00000000000E+00 0.  1.
         14    1    5    5    0    0 -0.69441566094E+02  0.44332203999E+02  0.19631653917E+03  0.21290293320E+03  0.00000000000E+00 0. -1.
         13    1    3    3    0    0 -0.57603494751E+02 -0.12584841526E+02  0.13719623863E+02  0.60537334949E+02  0.00000000000E+00 0. -1.
        -14    1    3    3    0    0  0.89145779763E+01 -0.37383706128E+02 -0.26998274477E+02  0.46967201418E+02  0.00000000000E+00 0.  1.
          5    1    4    4  501    0  0.82841429049E+02 -0.19309232494E+02  0.31866879704E+02  0.90931398584E+02  0.41800000000E+01 0.  1.
         -5    1    4    4    0  501  0.55589294004E+02  0.31043022317E+02  0.18347923925E+03  0.19425741293E+03  0.41800000000E+01 0.  1.
</event>
<event>
11    1  0.6625361E-009  0.3304768E+03  0.7561462E-02  0.9880587E-01
         22   -1    0    0    0    0  0.00000000000E+00  0.00000000000E+00  0.39438852794E+03  0.39438852794E+03  0.00000000000E+00 0.  1.
         22   -1    0    0    0    0 -0.00000000000E+00 -0.00000000000E+00 -0.25832646605E+04  0.25832646605E+04  0.00000000000E+00 0.  1.
        -24    2    1    2    0    0  0.11506570019E+03 -0.18841206401E+03 -0.13545590042E+04  0.13747877410E+04  0.80448838522E+02 0.  0.
         25    2    1    2    0    0 -0.37384047308E+03  0.25485597080E+02 -0.11137317681E+04  0.11817158981E+04  0.12509115674E+03 0.  0.
         24    2    1    2    0    0  0.25877477289E+03  0.16292646693E+03  0.27941463979E+03  0.42114954936E+03  0.76059090765E+02 0.  0.
        -11    1    5    5    0    0  0.66263495343E+02  0.62387633089E+02  0.12519808672E+03  0.15478252000E+03  0.00000000000E+00 0.  1.
         12    1    5    5    0    0  0.19251127754E+03  0.10053883384E+03  0.15421655307E+03  0.26636702936E+03  0.00000000000E+00 0. -1.
         11    1    3    3    0    0  0.18831555739E+02 -0.70326694641E+01 -0.45762355498E+02  0.49982788158E+02  0.00000000000E+00 0. -1.
        -12    1    3    3    0    0  0.96234144454E+02 -0.18137939455E+03 -0.13087966487E+04  0.13248049528E+04  0.00000000000E+00 0.  1.
          5    1    4    4  501    0 -0.13425902211E+03  0.36500850544E+02 -0.25987092575E+03  0.29480191240E+03  0.41800000000E+01 0.  1.
         -5    1    4    4    0  501 -0.23958145097E+03 -0.11015253464E+02 -0.85386084238E+03  0.88691398569E+03  0.41800000000E+01 0.  1.
</event>
<event>
11    1  0.6625361E-009  0.1329503E+03  0.7561462E-02  0.1115696E+00
         22   -1    0    0    0    0  0.00000000000E+00  0.00000000000E+00  0.69198395919E+03  0.69198395919E+03  0.00000000000E+00 0.  1.
         22   -1    0    0    0    0 -0.00000000000E+00 -0.00000000000E+00 -0.50434652471E+03  0.50434652471E+03  0.00000000000E+00 0. -1.
        -24    2    1    2    0    0  0.27296019125E+02 -0.28283772172E+02 -0.42399786223E+03  0.43292087662E+03  0.78110523051E+02 0.  0.
         25    2    1    2    0    0 -0.65779174960E+02  0.56856985469E+01 -0.39181255890E+01  0.14149753376E+03  0.12508786242E+03 0.  0.
         24    2    1    2    0    0  0.38483155835E+02  0.22598073625E+02  0.61555342230E+03  0.62191207353E+03  0.76661498057E+02 0.  0.
        -11    1    5    5    0    0  0.41752021270E+02 -0.19176310820E+02  0.36476698660E+03  0.36764917610E+03  0.00000000000E+00 0.  1.
         12    1    5    5    0    0 -0.32688654353E+01  0.41774384445E+02  0.25078643570E+03  0.25426289743E+03  0.00000000000E+00 0. -1.
         11    1    3    3    0    0  0.38152121227E+02 -0.10505663891E+02 -0.39626600593E+03  0.39823699073E+03  0.00000000000E+00 0. -1.
        -12    1    3    3    0    0 -0.10856102102E+02 -0.17778108281E+02 -0.27731856298E+02  0.34683885892E+02  0.00000000000E+00 0.  1.
          5    1    4    4  501    0  0.34894925397E+02 -0.52088904800E+01 -0.16861122546E+02  0.39326304327E+02  0.41800000000E+01 0.  1.
         -5    1    4    4    0  501 -0.10067410036E+03  0.10894589027E+02  0.12942996958E+02  0.10217122943E+03  0.41800000000E+01 0.  1.
</event>
<event>
11    1  0.6625361E-009  0.1479193E+03  0.7561462E-02  0.1099024E+00
         22   -1    0    0    0    0  0.00000000000E+00  0.00000000000E+00  0.12953043257E+04  0.12953043257E+04  0.00000000000E+00 0.  1.
         22   -1    0    0    0    0 -0.00000000000E+00 -0.00000000000E+00 -0.65040907725E+02  0.65040907725E+02  0.00000000000E+00 0. -1.
         24    2    1    2    0    0 -0.61383610745E+02 -0.54154466239E+02  0.20899869773E+02  0.11679733284E+03  0.80648363403E+02 0.  0.
         25    2    1    2    0    0  0.86014632690E+02 -0.11790386284E+02  0.42473766919E+03  0.45120628603E+03  0.12508994632E+03 0.  0.
        -24    2    1    2    0    0 -0.24631021945E+02  0.65944852523E+02  0.78462587903E+03  0.79234161458E+03  0.84923809052E+02 0.  0.
        -11    1    3    3    0    0 -0.69500756042E+01  0.52345991408E+01  0.34073060343E+02  0.35166433146E+02  0.00000000000E+00 0.  1.
         12    1    3    3    0    0 -0.54433535141E+02 -0.59389065380E+02 -0.13173190570E+02  0.81630899691E+02  0.00000000000E+00 0. -1.
         13    1    5    5    0    0  0.18881277966E+02  0.46577958016E+02  0.21804559306E+03  0.22376302082E+03  0.00000000000E+00 0. -1.
        -14    1    5    5    0    0 -0.43512299911E+02  0.19366894507E+02  0.56658028596E+03  0.56857859376E+03  0.00000000000E+00 0.  1.
          5    1    4    4  501    0  0.22425954144E+02 -0.31014059327E+02  0.34586163868E+03  0.34799790345E+03  0.41800000000E+01 0. -1.
         -5    1    4    4    0  501  0.63588678545E+02  0.19223673043E+02  0.78876030520E+02  0.10320838258E+03  0.41800000000E+01 0. -1.
</event>
<event>
11    1  0.6625361E-009  0.1473508E+03  0.7561462E-02  0.1099617E+00
         22   -1    0    0    0    0  0.00000000000E+00  0.00000000000E+00  0.59847112884E+03  0.59847112884E+03  0.00000000000E+00 0.  1.
         22   -1    0    0    0    0 -0.00000000000E+00 -0.00000000000E+00 -0.15595237173E+04  0.15595237173E+04  0.00000000000E+00 0. -1.
        -24    2    1    2    0    0  0.70985612139E+02  0.12988435606E+02 -0.14848306326E+04  0.14887835128E+04  0.80911582169E+02 0.  0.
         25    2    1    2    0    0 -0.12386379504E+03 -0.62341070971E+02  0.65596832496E+02  0.19793554717E+03  0.12508751956E+03 0.  0.
         24    2    1    2    0    0  0.52878182902E+02  0.49352635365E+02  0.45818121163E+03  0.47127578609E+03  0.83301014469E+02 0.  0.
        -13    1    5    5    0    0  0.17945314150E+02  0.37602343077E+02  0.40156106974E+03  0.40371681069E+03  0.00000000000E+00 0.  1.
         14    1    5    5    0    0  0.34932868752E+02  0.11750292288E+02  0.56620141895E+02  0.67558975395E+02  0.00000000000E+00 0. -1.
         13    1    3    3    0    0  0.66093296363E+02  0.31953193242E+02 -0.13907310102E+04  0.13926672513E+04  0.00000000000E+00 0. -1.
        -14    1    3    3    0    0  0.48923157763E+01 -0.18964757636E+02 -0.94099622401E+02  0.96116261485E+02  0.00000000000E+00 0.  1.
          5    1    4    4  501    0 -0.80384539735E+02 -0.95528771803E+02  0.19809401981E+02  0.12648045413E+03  0.41800000000E+01 0. -1.
         -5    1    4    4    0  501 -0.43479255307E+02  0.33187700831E+02  0.45787430515E+02  0.71455093042E+02  0.41800000000E+01 0. -1.
</event>
<event>
11    1  0.6625361E-009  0.1431505E+03  0.7561462E-02  0.1104090E+00
         22   -1    0    0    0    0  0.00000000000E+00  0.00000000000E+00  0.71047038595E+03  0.71047038595E+03  0.00000000000E+00 0. -1.
         22   -1    0    0    0    0 -0.00000000000E+00 -0.00000000000E+00 -0.29749141282E+03  0.29749141282E+03  0.00000000000E+00 0. -1.
         24    2    1    2    0    0 -0.25369983946E+02  0.57485329167E+02 -0.25625251263E+03  0.27573214145E+03  0.80091600344E+02 0.  0.
         25    2    1    2    0    0  0.72888822709E+02 -0.90631415842E+02  0.26861380511E+03  0.31831890311E+03  0.12508682492E+03 0.  0.
        -24    2    1    2    0    0 -0.47518838764E+02  0.33146086675E+02  0.40061768065E+03  0.41391075422E+03  0.86434271589E+02 0.  0.
        -11    1    3    3    0    0  0.10993207014E+02 -0.16875436467E+01 -0.96284539303E+00  0.11163578067E+02  0.00000000000E+00 0.  1.
         12    1    3    3    0    0 -0.36363190959E+02  0.59172872814E+02 -0.25528966724E+03  0.26456856339E+03  0.00000000000E+00 0. -1.
         11    1    5    5    0    0  0.10818866098E+02 -0.94313357951E+01  0.20303962805E+03  0.20354628102E+03  0.00000000000E+00 0. -1.
        -12    1    5    5    0    0 -0.58337704862E+02  0.42577422470E+02  0.19757805260E+03  0.21036447320E+03  0.00000000000E+00 0.  1.
          5    1    4    4  501    0 -0.16252574769E+01 -0.76720604508E+02  0.20614606484E+03  0.22000537508E+03  0.41800000000E+01 0. -1.
         -5    1    4    4    0  501  0.74514080186E+02 -0.13910811334E+02  0.62467740271E+02  0.98313528024E+02  0.41800000000E+01 0. -1.
</event>
<event>
11    1  0.6625361E-009  0.1387739E+03  0.7561462E-02  0.1108935E+00
         22   -1    0    0    0    0  0.00000000000E+00  0.00000000000E+00  0.74464497512E+03  0.74464497512E+03  0.00000000000E+00 0.  1.
         22   -1    0    0    0    0 -0.00000000000E+00 -0.00000000000E+00 -0.32935028390E+03  0.32935028390E+03  0.00000000000E+00 0. -1.
        -24    2    1    2    0    0  0.23073561096E+02 -0.54881794399E+02 -0.25307873990E+03  0.27317013033E+03  0.83837169181E+02 0.  0.
         25    2    1    2    0    0 -0.64260903191E+01  0.66922516000E+02  0.16191455386E+02  0.14292838811E+03  0.12508574305E+03 0.  0.
         24    2    1    2    0    0 -0.16647470777E+02 -0.12040721601E+02  0.65218197572E+03  0.65789674059E+03  0.84051618408E+02 0.  0.
        -11    1    5    5    0    0 -0.11536177852E+02 -0.10013935073E+02  0.65221926939E+03  0.65239814351E+03  0.00000000000E+00 0.  1.
         12    1    5    5    0    0 -0.51112929253E+01 -0.20267865277E+01 -0.37293664399E-01  0.54985970769E+01  0.00000000000E+00 0. -1.
         11    1    3    3    0    0  0.41297347095E+02 -0.17325828494E+02 -0.20344511999E+03  0.20831603889E+03  0.00000000000E+00 0. -1.
        -12    1    3    3    0    0 -0.18223785999E+02 -0.37555965905E+02 -0.49633619908E+02  0.64854091439E+02  0.00000000000E+00 0.  1.
          5    1    4    4  501    0  0.51847996247E+02  0.27337241627E+02 -0.21927186239E+02  0.62720119507E+02  0.41800000000E+01 0.  1.
         -5    1    4    4    0  501 -0.58274086566E+02  0.39585274373E+02  0.38118641625E+02  0.80208268598E+02  0.41800000000E+01 0.  1.
</event>
<event>
11    1  0.6625361E-009  0.2269612E+03  0.7561462E-02  0.1036942E+00
         22   -1    0    0    0    0  0.00000000000E+00  0.00000000000E+00  0.22416070890E+04  0.22416070890E+04  0.00000000000E+00 0. -1.
         22   -1    0    0    0    0 -0.00000000000E+00 -0.00000000000E+00 -0.15581411204E+04  0.15581411204E+04  0.00000000000E+00 0. -1.
        -24    2    1    2    0    0 -0.15898067730E+03 -0.10873095985E+03 -0.13578898287E+04  0.13738220671E+04  0.80156147013E+02 0.  0.
         25    2    1    2    0    0  0.17018566280E+03  0.41029855079E+02 -0.13035520089E+03  0.25156722887E+03  0.12508790273E+03 0.  0.
         24    2    1    2    0    0 -0.11204985501E+02  0.67701104770E+02  0.21717109981E+04  0.21743589134E+04  0.82456253482E+02 0.  0.
        -11    1    5    5    0    0 -0.99332453552E+01  0.24502671058E+02  0.15894702787E+03  0.16113102719E+03  0.00000000000E+00 0.  1.
         12    1    5    5    0    0 -0.12717401458E+01  0.43198433712E+02  0.20127639702E+04  0.20132278862E+04  0.00000000000E+00 0. -1.
         11    1    3    3    0    0 -0.14554692220E+03 -0.12081017279E+03 -0.11865298887E+04  0.12015124557E+04  0.00000000000E+00 0. -1.
        -12    1    3    3    0    0 -0.13433755100E+02  0.12079212943E+02 -0.17135993996E+03  0.17230961141E+03  0.00000000000E+00 0.  1.
          5    1    4    4  501    0  0.62482799054E+02 -0.44998266978E+02 -0.42423259098E+02  0.88012212341E+02  0.41800000000E+01 0.  1.
         -5    1    4    4    0  501  0.10770286375E+03  0.86028122057E+02 -0.87931941788E+02  0.16355501653E+03  0.41800000000E+01 0.  1.
</event>
<event>
11    1  0.6625361E-009  0.2085591E+03  0.7561462E-02  0.1048631E+00
         22   -1    0    0    0    0  0.00000000000E+00  0.00000000000E+00  0.25993551001E+03  0.25993551001E+03  0.00000000000E+00 0. -1.
         22   -1    0    0    0    0 -0.00000000000E+00 -0.00000000000E+00 -0.80185980496E+03  0.80185980496E+03  0.00000000000E+00 0. -1.
        -24    2    1    2    0    0  0.11320395740E+03 -0.62434989681E+02 -0.57578370426E+03  0.59543216890E+03  0.79368317132E+02 0.  0.
         25    2    1    2    0    0 -0.64229412092E+02 -0.11783297949E+03 -0.11375577666E+03  0.21586728372E+03  0.12509308143E+03 0.  0.
         24    2    1    2    0    0 -0.48974545312E+02  0.18026796917E+03  0.14761518597E+03  0.25049586236E+03  0.77864543474E+02 0.  0.
        -13    1    5    5    0    0 -0.38374251050E+02  0.38206839095E+02  0.69248089337E+02  0.87907016637E+02  0.00000000000E+00 0.  1.
         14    1    5    5    0    0 -0.10600294262E+02  0.14206113008E+03  0.78367096631E+02  0.16258884572E+03  0.00000000000E+00 0. -1.
         11    1    3    3    0    0  0.12125997708E+03 -0.64698435668E+02 -0.56649875831E+03  0.58293285444E+03  0.00000000000E+00 0. -1.
        -12    1    3    3    0    0 -0.80560196736E+01  0.22634459869E+01 -0.92849459456E+01  0.12499314458E+02  0.00000000000E+00 0.  1.
          5    1    4    4  501    0 -0.23850872881E+02 -0.12240562592E+03 -0.39090981084E+02  0.13075770951E+03  0.41800000000E+01 0.  1.
         -5    1    4    4    0  501 -0.40378539211E+02  0.45726464261E+01 -0.74664795571E+02  0.85109574208E+02  0.41800000000E+01 0.  1.
</event>
<event>
11    1  0.6625361E-009  0.1323860E+03  0.7561462E-02  0.1116372E+00
         22   -1    0    0    0    0  0.00000000000E+00  0.00000000000E+00  0.11604155862E+04  0.11604155862E+04  0.00000000000E+00 0.  1.
         22   -1    0    0    0    0 -0.00000000000E+00 -0.00000000000E+00 -0.20410036110E+03  0.20410036110E+03  0.00000000000E+00 0.  1.
         24    2    1    2    0    0  0.18496598595E+02 -0.25054158302E+02 -0.17914021955E+03  0.19806237934E+03  0.78534405454E+02 0.  0.
         25    2    1    2    0    0  0.27951841228E+02  0.18808682749E+02  0.31229363958E+03  0.33809093794E+03  0.12507235116E+03 0.  0.
        -24    2    1    2    0    0 -0.46448439822E+02  0.62454755530E+01  0.82316180509E+03  0.82836263003E+03  0.79955149556E+02 0.  0.
        -13    1    3    3    0    0 -0.28693493415E+02  0.37826033635E+01 -0.54635086313E+02  0.61827318469E+02  0.00000000000E+00 0.  1.
         14    1    3    3    0    0  0.47190092010E+02 -0.28836761665E+02 -0.12450513324E+03  0.13623506087E+03  0.00000000000E+00 0. -1.
         11    1    5    5    0    0 -0.23786866980E+02  0.41683960796E+02  0.33957355378E+03  0.34294834313E+03  0.00000000000E+00 0. -1.
        -12    1    5    5    0    0 -0.22661572842E+02 -0.35438485243E+02  0.48358825131E+03  0.48541428690E+03  0.00000000000E+00 0.  1.
          5    1    4    4  501    0  0.98272650841E+01  0.27328670557E+02  0.45782651956E+01  0.29696199852E+02  0.41800000000E+01 0. -1.
         -5    1    4    4    0  501  0.18124576144E+02 -0.85199878078E+01  0.30771537438E+03  0.30839473809E+03  0.41800000000E+01 0. -1.
</event>
<event>
11    1  0.6625361E-009  0.1743028E+03  0.7561462E-02  0.1074347E+00
         22   -1    0    0    0    0  0.00000000000E+00  0.00000000000E+00  0.83795129639E+03  0.83795129639E+03  0.00000000000E+00 0. -1.
         22   -1    0    0    0    0 -0.00000000000E+00 -0.00000000000E+00 -0.91620318423E+02  0.91620318423E+02  0.00000000000E+00 0.  1.
        -24    2    1    2    0    0 -0.72266213680E+02  0.83851920137E+01  0.10044033446E+03  0.14764698484E+03  0.80116504308E+02 0.  0.
         25    2    1    2    0    0  0.14018992411E+03 -0.10044162871E+03  0.13441038291E+03  0.25190150133E+03  0.12508588944E+03 0.  0.
         24    2    1    2    0    0 -0.67923710432E+02  0.92056436696E+02  0.51148026060E+03  0.53002312865E+03  0.78895132537E+02 0.  0.
        -11    1    5    5    0    0 -0.33377141876E+01  0.10049150765E+02  0.22276517659E+03  0.22301670266E+03  0.00000000000E+00 0.  1.
         12    1    5    5    0    0 -0.64585996244E+02  0.82007285931E+02  0.28871508402E+03  0.30700642598E+03  0.00000000000E+00 0. -1.
         11    1    3    3    0    0 -0.24553308459E+02 -0.18924870719E+02  0.85100417494E+02  0.90570948684E+02  0.00000000000E+00 0. -1.
        -12    1    3    3    0    0 -0.47712905221E+02  0.27310062733E+02  0.15339916964E+02  0.57076036159E+02  0.00000000000E+00 0.  1.
          5    1    4    4  501    0  0.60687504271E+02 -0.50240031404E+02 -0.10001154649E+02  0.79526910065E+02  0.41800000000E+01 0.  1.
         -5    1    4    4    0  501  0.79502419840E+02 -0.50201597306E+02  0.14441153756E+03  0.17237459126E+03  0.41800000000E+01 0.  1.
</event>
<event>
11    1  0.6625361E-009  0.2893814E+03  0.7561462E-02  0.1004788E+00
         22   -1    0    0    0    0  0.00000000000E+00  0.00000000000E+00  0.42119556306E+03  0.42119556306E+03  0.00000000000E+00 0.  1.
         22   -1    0    0    0    0 -0.00000000000E+00 -0.00000000000E+00 -0.32106728478E+03  0.32106728478E+03  0.00000000000E+00 0. -1.
        -24    2    1    2    0    0 -0.29983896993E+03 -0.29278080653E+02 -0.52408116190E+02  0.31747456249E+03  0.85339752091E+02 0.  0.
         25    2    1    2    0    0  0.21187907501E+03 -0.49561825275E+02  0.72313207475E+02  0.26120027652E+03  0.12508903841E+03 0.  0.
         24    2    1    2    0    0  0.87959894929E+02  0.78839905928E+02  0.80223186997E+02  0.16358800882E+03  0.79828585208E+02 0.  0.
        -13    1    5    5    0    0  0.67794413085E+02  0.88031314037E+02  0.86208568659E+02  0.14063254249E+03  0.00000000000E+00 0.  1.
         14    1    5    5    0    0  0.20165481844E+02 -0.91914081090E+01 -0.59853816620E+01  0.22955466335E+02  0.00000000000E+00 0. -1.
         11    1    3    3    0    0 -0.21351438031E+03 -0.53365345253E+02 -0.58255259484E+02  0.22766186754E+03  0.00000000000E+00 0. -1.
        -12    1    3    3    0    0 -0.86324589625E+02  0.24087264600E+02  0.58471432940E+01  0.89812694952E+02  0.00000000000E+00 0.  1.
          5    1    4    4  501    0  0.31669278661E+02  0.35419466398E+02 -0.38604743888E+01  0.47852455249E+02  0.41800000000E+01 0.  1.
         -5    1    4    4    0  501  0.18020979634E+03 -0.84981291673E+02  0.76173681864E+02  0.21334782127E+03  0.41800000000E+01 0.  1.
</event>
<event>
11    1  0.6625361E-009  0.2185828E+03  0.7561462E-02  0.1042109E+00
         22   -1    0    0    0    0  0.00000000000E+00  0.00000000000E+00  0.75840150869E+03  0.75840150869E+03  0.00000000000E+00 0. -1.
         22   -1    0    0    0    0 -0.00000000000E+00 -0.00000000000E+00 -0.23196658796E+04  0.23196658796E+04  0.00000000000E+00 0.  1.
         24    2    1    2    0    0 -0.27345058584E+02 -0.18995309418E+03 -0.13986679200E+04  0.14140596969E+04  0.80392449082E+02 0.  0.
         25    2    1    2    0    0  0.95171029698E+01  0.16058209904E+03 -0.89921899971E+03  0.92201879485E+03  0.12508662128E+03 0.  0.
        -24    2    1    2    0    0  0.17827955614E+02  0.29370995142E+02  0.73662254878E+03  0.74198889652E+03  0.82184255378E+02 0.  0.
        -11    1    3    3    0    0 -0.37796383140E+02 -0.32433006511E+02 -0.29944102827E+03  0.30355460119E+03  0.00000000000E+00 0.  1.
         12    1    3    3    0    0  0.10451324555E+02 -0.15752008767E+03 -0.10992268917E+04  0.11105050957E+04  0.00000000000E+00 0. -1.
         11    1    5    5    0    0  0.43191306445E+02  0.38047524974E+02  0.60047718051E+03  0.60322959760E+03  0.00000000000E+00 0. -1.
        -12    1    5    5    0    0 -0.25363350830E+02 -0.86765298317E+01  0.13614536827E+03  0.13875929892E+03  0.00000000000E+00 0.  1.
          5    1    4    4  501    0  0.96317078085E+01  0.55908922285E+02 -0.92971955047E+02  0.10899465222E+03  0.41800000000E+01 0.  1.
         -5    1    4    4    0  501 -0.11460483864E+00  0.10467317676E+03 -0.80624704467E+03  0.81302414263E+03  0.41800000000E+01 0.  1.
</event>
<event>
11    1  0.6625361E-009  0.1456008E+03  0.7561462E-02  0.1101461E+00
         22   -1    0    0    0    0  0.00000000000E+00  0.00000000000E+00  0.44411558720E+03  0.44411558720E+03  0.00000000000E+00 0.  1.
         22   -1    0    0    0    0 -0.00000000000E+00 -0.00000000000E+00 -0.21254379978E+03  0.21254379978E+03  0.00000000000E+00 0. -1.
        -24    2    1    2    0    0 -0.77452988214E+02 -0.22411539636E+02 -0.98035777331E+02  0.14616187533E+03  0.72464043995E+02 0.  0.
         25    2    1    2    0    0  0.51825919042E+02  0.34561217635E+02 -0.29489377830E+02  0.14282107505E+03  0.12509129636E+03 0.  0.
         24    2    1    2    0    0  0.25627069172E+02 -0.12149678000E+02  0.35909694258E+03  0.36767643659E+03  0.73695227161E+02 0.  0.
        -13    1    5    5    0    0 -0.21657298774E+02 -0.13289607378E+02  0.20262856296E+03  0.20421554001E+03  0.00000000000E+00 0.  1.
         14    1    5    5    0    0  0.47284367946E+02  0.11399293786E+01  0.15646837962E+03  0.16346089659E+03  0.00000000000E+00 0. -1.
         13    1    3    3    0    0 -0.69549281070E+02  0.44885198072E+01 -0.95196324157E+02  0.11798130971E+03  0.00000000000E+00 0. -1.
        -14    1    3    3    0    0 -0.79037071440E+01 -0.26900059443E+02 -0.28394531736E+01  0.28180565626E+02  0.00000000000E+00 0.  1.
          5    1    4    4  501    0  0.48590888315E+02 -0.40839483499E+02 -0.19771302170E+02  0.66613171590E+02  0.41800000000E+01 0. -1.
         -5    1    4    4    0  501  0.32350307265E+01  0.75400701134E+02 -0.97180756594E+01  0.76207903461E+02  0.41800000000E+01 0. -1.
</event>
<event>
11    1  0.6625361E-009  0.1331611E+03  0.7561462E-02  0.1115445E+00
         22   -1    0    0    0    0  0.00000000000E+00  0.00000000000E+00  0.74344425238E+03  0.74344425238E+03  0.00000000000E+00 0.  1.
         22   -1    0    0    0    0 -0.00000000000E+00 -0.00000000000E+00 -0.20329770783E+03  0.20329770783E+03  0.00000000000E+00 0. -1.
        -24    2    1    2    0    0 -0.13995952857E+02 -0.21221232538E+02 -0.14144686605E+03  0.16462117187E+03  0.80291262944E+02 0.  0.
         25    2    1    2    0    0  0.57688662474E+02  0.29737846538E+02  0.58786989592E+02  0.15267985923E+03  0.12507161139E+03 0.  0.
         24    2    1    2    0    0 -0.43692709617E+02 -0.85166139997E+01  0.62280642101E+03  0.62944092911E+03  0.79539044476E+02 0.  0.
        -13    1    5    5    0    0 -0.25155304712E+02  0.32678039280E+02  0.39869658049E+03  0.40082366061E+03  0.00000000000E+00 0.  1.
         14    1    5    5    0    0 -0.18537404905E+02 -0.41194653280E+02  0.22410984052E+03  0.22861726850E+03  0.00000000000E+00 0. -1.
         13    1    3    3    0    0  0.14999809506E+02 -0.15641517511E+02 -0.13178185669E+03  0.13355189668E+03  0.00000000000E+00 0. -1.
        -14    1    3    3    0    0 -0.28995762363E+02 -0.55797150276E+01 -0.96650093668E+01  0.31069275191E+02  0.00000000000E+00 0.  1.
          5    1    4    4  501    0  0.73062338702E+01 -0.47576410852E+02  0.16192773134E+02  0.50956591572E+02  0.41800000000E+01 0. -1.
         -5    1    4    4    0  501  0.50382428604E+02  0.77314257390E+02  0.42594216458E+02  0.10172326766E+03  0.41800000000E+01 0. -1.
</event>
<event>
11    1  0.6625361E-009  0.2495116E+03  0.7561462E-02  0.1024160E+00
         22   -1    0    0    0    0  0.00000000000E+00  0.00000000000E+00  0.14908902101E+04  0.14908902101E+04  0.00000000000E+00 0. -1.
         22   -1    0    0    0    0 -0.00000000000E+00 -0.00000000000E+00 -0.58342528007E+03  0.58342528007E+03  0.00000000000E+00 0.  1.
        -24    2    1    2    0    0  0.53805752410E+01 -0.33671150826E+02 -0.45641676944E+03  0.46488158947E+03  0.81461204333E+02 0.  0.
         25    2    1    2    0    0 -0.21951396700E+03  0.70950223759E+01  0.28533723492E+02  0.25435937806E+03  0.12509116188E+03 0.  0.
         24    2    1    2    0    0  0.21413339176E+03  0.26576128450E+02  0.13353479760E+04  0.13550745227E+04  0.80705296607E+02 0.  0.
        -13    1    5    5    0    0  0.67315498242E+02 -0.69257854443E+01  0.23771625976E+03  0.24716060156E+03  0.00000000000E+00 0.  1.
         14    1    5    5    0    0  0.14681789352E+03  0.33501913894E+02  0.10976317162E+04  0.11079139211E+04  0.00000000000E+00 0. -1.
         11    1    3    3    0    0 -0.33085986562E+02 -0.21448633456E+02 -0.12643820752E+03  0.13244374921E+03  0.00000000000E+00 0. -1.
        -12    1    3    3    0    0  0.38466561803E+02 -0.12222517370E+02 -0.32997856192E+03  0.33243784026E+03  0.00000000000E+00 0.  1.
          5    1    4    4  501    0  0.15599711979E+02 -0.59271272421E+01  0.81421772733E+00  0.17222578253E+02  0.41800000000E+01 0. -1.
         -5    1    4    4    0  501 -0.23511367898E+03  0.13022149618E+02  0.27719505765E+02  0.23713679981E+03  0.41800000000E+01 0. -1.
</event>
<event>
11    1  0.6625361E-009  0.1915221E+03  0.7561462E-02  0.1060686E+00
         22   -1    0    0    0    0  0.00000000000E+00  0.00000000000E+00  0.43243133752E+03  0.43243133752E+03  0.00000000000E+00 0. -1.
         22   -1    0    0    0    0 -0.00000000000E+00 -0.00000000000E+00 -0.72431589881E+03  0.72431589881E+03  0.00000000000E+00 0. -1.
         24    2    1    2    0    0 -0.10450092150E+02 -0.14547672989E+03 -0.47891640303E+03  0.50704164110E+03  0.80359326541E+02 0.  0.
         25    2    1    2    0    0  0.11565742583E+03  0.12566405419E+03 -0.16578905557E+03  0.26888635818E+03  0.12508304442E+03 0.  0.
        -24    2    1    2    0    0 -0.10520733368E+03  0.19812675696E+02  0.35282089731E+03  0.38081923705E+03  0.95286833022E+02 0.  0.
        -13    1    3    3    0    0 -0.67313450039E+01 -0.86741199061E+02 -0.39548252960E+03  0.40493922734E+03  0.00000000000E+00 0.  1.
         14    1    3    3    0    0 -0.37187471462E+01 -0.58735530824E+02 -0.83433873426E+02  0.10210241376E+03  0.00000000000E+00 0. -1.
         11    1    5    5    0    0 -0.11167881211E+03 -0.68421941392E+01  0.31356922294E+03  0.33293337212E+03  0.00000000000E+00 0. -1.
        -12    1    5    5    0    0  0.64714784300E+01  0.26654869836E+02  0.39251674373E+02  0.47885864930E+02  0.00000000000E+00 0.  1.
          5    1    4    4  501    0  0.46174089022E+02  0.10557665549E+03 -0.36966563463E+02  0.12108871086E+03  0.41800000000E+01 0.  1.
         -5    1    4    4    0  501  0.69483336811E+02  0.20087398694E+02 -0.12882249211E+03  0.14779764732E+03  0.41800000000E+01 0.  1.
</event>
<event>
11    1  0.6625361E-009  0.2522825E+03  0.7561462E-02  0.1022690E+00
         22   -1    0    0    0    0  0.00000000000E+00  0.00000000000E+00  0.53165866351E+03  0.53165866351E+03  0.00000000000E+00 0.  1.
         22   -1    0    0    0    0 -0.00000000000E+00 -0.00000000000E+00 -0.13424266876E+04  0.13424266876E+04  0.00000000000E+00 0. -1.
        -24    2    1    2    0    0 -0.44255475092E+02  0.32594554398E+02 -0.63606021978E+03  0.64343397034E+03  0.80085697537E+02 0.  0.
         25    2    1    2    0    0 -0.17533891822E+03 -0.85826428537E+01 -0.65859954778E+03  0.69297782875E+03  0.12509000278E+03 0.  0.
         24    2    1    2    0    0  0.21959439331E+03 -0.24011911544E+02  0.48389174345E+03  0.53767355204E+03  0.78379587306E+02 0.  0.
        -11    1    5    5    0    0  0.19863419208E+03  0.40538050709E+01  0.42514338515E+03  0.46927483796E+03  0.00000000000E+00 0.  1.
         12    1    5    5    0    0  0.20960201230E+02 -0.28065716615E+02  0.58748358303E+02  0.68398714081E+02  0.00000000000E+00 0. -1.
         13    1    3    3    0    0 -0.21809963905E+02  0.38243006847E+02 -0.59226367754E+03  0.59389768970E+03  0.00000000000E+00 0. -1.
        -14    1    3    3    0    0 -0.22445511187E+02 -0.56484524488E+01 -0.43796542242E+02  0.49536280642E+02  0.00000000000E+00 0.  1.
          5    1    4    4  501    0 -0.12109769447E+03  0.36487422921E+02 -0.27225128995E+03  0.30022361819E+03  0.41800000000E+01 0.  1.
         -5    1    4    4    0  501 -0.54241223751E+02 -0.45070065775E+02 -0.38634825783E+03  0.39275421056E+03  0.41800000000E+01 0.  1.
</event>
<event>
11    1  0.6625361E-009  0.1493312E+03  0.7561462E-02  0.1097564E+00
         22   -1    0    0    0    0  0.00000000000E+00  0.00000000000E+00  0.77568047398E+03  0.77568047398E+03  0.00000000000E+00 0.  1.
         22   -1    0    0    0    0 -0.00000000000E+00 -0.00000000000E+00 -0.86111442866E+03  0.86111442866E+03  0.00000000000E+00 0.  1.
         24    2    1    2    0    0 -0.38927103808E+02 -0.78880563910E+01 -0.70922853365E+03  0.71612372823E+03  0.90832485071E+02 0.  0.
         25    2    1    2    0    0 -0.16082592872E+02  0.68937577265E+02 -0.10797056019E+03  0.17976674470E+03  0.12508957303E+03 0.  0.
        -24    2    1    2    0    0  0.55009696680E+02 -0.61049520874E+02  0.73176513916E+03  0.74090442971E+03  0.81890441145E+02 0.  0.
        -13    1    3    3    0    0 -0.59586757311E+02 -0.29408166073E+02 -0.56111608418E+03  0.56503688534E+03  0.00000000000E+00 0.  1.
         14    1    3    3    0    0  0.20659653503E+02  0.21520109682E+02 -0.14811244947E+03  0.15108684288E+03  0.00000000000E+00 0. -1.
         13    1    5    5    0    0 -0.19092006522E+02  0.71286439719E+00  0.98746234437E+02  0.10057749104E+03  0.00000000000E+00 0. -1.
        -14    1    5    5    0    0  0.74101703202E+02 -0.61762385271E+02  0.63301890472E+03  0.64032693867E+03  0.00000000000E+00 0.  1.
          5    1    4    4  501    0 -0.57168224641E+02  0.65145933563E+02 -0.30652112959E+02  0.92028381477E+02  0.41800000000E+01 0.  1.
         -5    1    4    4    0  501  0.41085631769E+02  0.37916437021E+01 -0.77318447228E+02  0.87738363226E+02  0.41800000000E+01 0.  1.
</event>
<event>
11    1  0.6625361E-009  0.1259935E+03  0.7561462E-02  0.1124292E+00
         22   -1    0    0    0    0  0.00000000000E+00  0.00000000000E+00  0.97103925534E+02  0.97103925534E+02  0.00000000000E+00 0.  1.
         22   -1    0    0    0    0 -0.00000000000E+00 -0.00000000000E+00 -0.24594654551E+04  0.24594654551E+04  0.00000000000E+00 0. -1.
        -24    2    1    2    0    0  0.28531604182E+02 -0.83990155624E+01 -0.20960542102E+04  0.20975219892E+04  0.72599223499E+02 0.  0.
         25    2    1    2    0    0 -0.14277744507E+02 -0.65210018623E-01 -0.33151502633E+03  0.35461910018E+03  0.12509450542E+03 0.  0.
         24    2    1    2    0    0 -0.14253859675E+02  0.84642255810E+01  0.65207706961E+02  0.10442829124E+03  0.79864931818E+02 0.  0.
        -11    1    5    5    0    0  0.12253422699E+02  0.11009529815E+02  0.74442463543E+02  0.76243271788E+02  0.00000000000E+00 0.  1.
         12    1    5    5    0    0 -0.26507282374E+02 -0.25453042338E+01 -0.92347565818E+01  0.28185019454E+02  0.00000000000E+00 0. -1.
         11    1    3    3    0    0 -0.17431241943E+02  0.18191976298E+02 -0.73852492753E+03  0.73895457559E+03  0.00000000000E+00 0. -1.
        -12    1    3    3    0    0  0.45962846125E+02 -0.26590991861E+02 -0.13575292826E+04  0.13585674136E+04  0.00000000000E+00 0.  1.
          5    1    4    4  501    0 -0.48325935078E+02 -0.43586661011E+02 -0.12746561695E+03  0.14317873069E+03  0.41800000000E+01 0.  1.
         -5    1    4    4    0  501  0.34048190571E+02  0.43521450993E+02 -0.20404940938E+03  0.21144036948E+03  0.41800000000E+01 0.  1.
</event>
<event>
11    1  0.6625361E-009  0.1562077E+03  0.7561462E-02  0.1090699E+00
         22   -1    0    0    0    0  0.00000000000E+00  0.00000000000E+00  0.18262701910E+04  0.18262701910E+04  0.00000000000E+00 0. -1.
         22   -1    0    0    0    0 -0.00000000000E+00 -0.00000000000E+00 -0.80311896407E+03  0.80311896407E+03  0.00000000000E+00 0.  1.
        -24    2    1    2    0    0  0.59663524386E+02  0.72861888060E+02 -0.67336351630E+03  0.68466798664E+03  0.80518544333E+02 0.  0.
         25    2    1    2    0    0 -0.93916576678E+02 -0.34953350019E+02 -0.70510461538E+02  0.17510380322E+03  0.12509019411E+03 0.  0.
         24    2    1    2    0    0  0.34253052292E+02 -0.37908538041E+02  0.17670252048E+04  0.17696173652E+04  0.80976639430E+02 0.  0.
        -13    1    5    5    0    0 -0.22726699740E+02 -0.26203249811E+02  0.46413946690E+03  0.46543373096E+03  0.00000000000E+00 0.  1.
         14    1    5    5    0    0  0.56979752032E+02 -0.11705288230E+02  0.13028857379E+04  0.13041836343E+04  0.00000000000E+00 0. -1.
         13    1    3    3    0    0  0.68426368989E+02  0.61676092469E+02 -0.38171278665E+03  0.39267131273E+03  0.00000000000E+00 0. -1.
        -14    1    3    3    0    0 -0.87628446027E+01  0.11185795591E+02 -0.29165072965E+03  0.29199667391E+03  0.00000000000E+00 0.  1.
          5    1    4    4  501    0 -0.12472263909E+03 -0.32342082236E+02 -0.59888676296E+02  0.14214736344E+03  0.41800000000E+01 0.  1.
         -5    1    4    4    0  501  0.30806062413E+02 -0.26112677831E+01 -0.10621785243E+02  0.32956439774E+02  0.41800000000E+01 0.  1.
</event>
<event>
11    1  0.6625361E-009  0.1755636E+03  0.7561462E-02  0.1073289E+00
         22   -1    0    0    0    0  0.00000000000E+00  0.00000000000E+00  0.18274879829E+04  0.18274879829E+04  0.00000000000E+00 0. -1.
         22   -1    0    0    0    0 -0.00000000000E+00 -0.00000000000E+00 -0.20277863236E+04  0.20277863236E+04  0.00000000000E+00 0.  1.
         24    2    1    2    0    0 -0.11016085161E+01 -0.30495133315E+02 -0.17549499727E+04  0.17570485292E+04  0.80243132847E+02 0.  0.
         25    2    1    2    0    0  0.11834362814E+03  0.67918838463E+02 -0.23675664791E+03  0.30053074082E+03  0.12508730114E+03 0.  0.
        -24    2    1    2    0    0 -0.11724201962E+03 -0.37423705147E+02  0.17914082799E+04  0.17976950366E+04  0.86125456424E+02 0.  0.
        -13    1    3    3    0    0 -0.31535053453E+02  0.14327897197E+01 -0.11748527081E+04  0.11752767326E+04  0.00000000000E+00 0.  1.
         14    1    3    3    0    0  0.30433444937E+02 -0.31927923035E+02 -0.58009726465E+03  0.58177179658E+03  0.00000000000E+00 0. -1.
         11    1    5    5    0    0 -0.64767570995E+02  0.22033591291E+02  0.66903776226E+03  0.67252646396E+03  0.00000000000E+00 0. -1.
        -12    1    5    5    0    0 -0.52474448624E+02 -0.59457296438E+02  0.11223705177E+04  0.11251685726E+04  0.00000000000E+00 0.  1.
          5    1    4    4  501    0 -0.19735444048E+02 -0.11897361632E+02 -0.47792611539E+02  0.53222561788E+02  0.41800000000E+01 0.  1.
         -5    1    4    4    0  501  0.13807907218E+03  0.79816200094E+02 -0.18896403637E+03  0.24730817903E+03  0.41800000000E+01 0.  1.
</event>
<event>
11    1  0.6625361E-009  0.1330602E+03  0.7561462E-02  0.1115565E+00
         22   -1    0    0    0    0  0.00000000000E+00  0.00000000000E+00  0.58780819759E+03  0.58780819759E+03  0.00000000000E+00 0. -1.
         22   -1    0    0    0    0 -0.00000000000E+00 -0.00000000000E+00 -0.43630727477E+03  0.43630727477E+03  0.00000000000E+00 0. -1.
         24    2    1    2    0    0 -0.19180436802E-01 -0.15347737201E+02 -0.38598966747E+03  0.39450069758E+03  0.80045134728E+02 0.  0.
         25    2    1    2    0    0  0.37185925922E+02 -0.12201173715E+02  0.62231219399E+02  0.14509169379E+03  0.12508882129E+03 0.  0.
        -24    2    1    2    0    0 -0.37166745485E+02  0.27548910916E+02  0.47525937089E+03  0.48452308099E+03  0.82163476862E+02 0.  0.
        -13    1    3    3    0    0 -0.19456430346E+02 -0.37168935953E+02 -0.12440012582E+03  0.13128394337E+03  0.00000000000E+00 0.  1.
         14    1    3    3    0    0  0.19437249909E+02  0.21821198752E+02 -0.26158954165E+03  0.26321675421E+03  0.00000000000E+00 0. -1.
         11    1    5    5    0    0  0.18735145169E+01 -0.55700747850E+01  0.33761382118E+03  0.33766496419E+03  0.00000000000E+00 0. -1.
        -12    1    5    5    0    0 -0.39040260002E+02  0.33118985701E+02  0.13764554971E+03  0.14685811680E+03  0.00000000000E+00 0.  1.
          5    1    4    4  501    0  0.17394453091E+02  0.34943565765E+02 -0.23083614093E+02  0.45540590975E+02  0.41800000000E+01 0.  1.
         -5    1    4    4    0  501  0.19791472831E+02 -0.47144739481E+02  0.85314833492E+02  0.99551102813E+02  0.41800000000E+01 0.  1.
</event>
<event>
11    1  0.6625361E-009  0.1279714E+03  0.7561462E-02  0.1121787E+00
         22   -1    0    0    0    0  0.00000000000E+00  0.00000000000E+00  0.88116977526E+02  0.88116977526E+02  0.00000000000E+00 0.  1.
         22   -1    0    0    0    0 -0.00000000000E+00 -0.00000000000E+00 -0.10816604900E+04  0.10816604900E+04  0.00000000000E+00 0. -1.
         24    2    1    2    0    0  0.28315176440E+02  0.21837733395E+02 -0.77270961915E+03  0.77961028540E+03  0.97125721398E+02 0.  0.
         25    2    1    2    0    0 -0.22865344228E+01  0.21323721660E+02 -0.26046791918E+03  0.28974101880E+03  0.12508553758E+03 0.  0.
        -24    2    1    2    0    0 -0.26028642017E+02 -0.43161455055E+02  0.39634025851E+02  0.10042616332E+03  0.77292670202E+02 0.  0.
        -11    1    3    3    0    0  0.43558403884E+02  0.44246840503E+02 -0.31279621298E+03  0.31889902524E+03  0.00000000000E+00 0.  1.
         12    1    3    3    0    0 -0.15243227445E+02 -0.22409107108E+02 -0.45991340617E+03  0.46071126016E+03  0.00000000000E+00 0. -1.
         13    1    5    5    0    0 -0.19970201262E+02  0.84039208477E+01 -0.13985955693E+02  0.25788403997E+02  0.00000000000E+00 0. -1.
        -14    1    5    5    0    0 -0.60584407544E+01 -0.51565375903E+02  0.53619981544E+02  0.74637759326E+02  0.00000000000E+00 0.  1.
          5    1    4    4  501    0 -0.37438213520E+01 -0.42234781284E+02 -0.19009629447E+03  0.19481238801E+03  0.41800000000E+01 0. -1.
         -5    1    4    4    0  501  0.14572869292E+01  0.63558502944E+02 -0.70371624704E+02  0.94928630798E+02  0.41800000000E+01 0. -1.
</event>
<event>
11    1  0.6625361E-009  0.1398796E+03  0.7561462E-02  0.1107693E+00
         22   -1    0    0    0    0  0.00000000000E+00  0.00000000000E+00  0.21129370061E+04  0.21129370061E+04  0.00000000000E+00 0. -1.
         22   -1    0    0    0    0 -0.00000000000E+00 -0.00000000000E+00 -0.44579124108E+03  0.44579124108E+03  0.00000000000E+00 0.  1.
        -24    2    1    2    0    0 -0.73978855513E+01 -0.21659914473E+02 -0.42331074933E+03  0.43147573056E+03  0.80345721462E+02 0.  0.
         25    2    1    2    0    0 -0.52066097750E+02 -0.88499098824E+00  0.25122447272E+03  0.28543853168E+03  0.12509899252E+03 0.  0.
         24    2    1    2    0    0  0.59463983301E+02  0.22544905461E+02  0.18392320416E+04  0.18418139850E+04  0.73891908025E+02 0.  0.
        -11    1    5    5    0    0  0.45761877140E+02  0.21731803548E+02  0.50976242484E+03  0.51227351138E+03  0.00000000000E+00 0.  1.
         12    1    5    5    0    0  0.13702106162E+02  0.81310191292E+00  0.13294696168E+04  0.13295404736E+04  0.00000000000E+00 0. -1.
         11    1    3    3    0    0 -0.28799025237E+02  0.20016485972E+02 -0.14053395126E+03  0.14484417496E+03  0.00000000000E+00 0. -1.
        -12    1    3    3    0    0  0.21401139685E+02 -0.41676400445E+02 -0.28277679808E+03  0.28663155560E+03  0.00000000000E+00 0.  1.
          5    1    4    4  501    0 -0.57918374178E+02  0.51739949266E+02  0.18400671026E+03  0.19976862176E+03  0.41800000000E+01 0.  1.
         -5    1    4    4    0  501  0.58522764276E+01 -0.52624940254E+02  0.67217762454E+02  0.85669909919E+02  0.41800000000E+01 0.  1.
</event>
<event>
11    1  0.6625361E-009  0.1456627E+03  0.7561462E-02  0.1101395E+00
         22   -1    0    0    0    0  0.00000000000E+00  0.00000000000E+00  0.79884876981E+03  0.79884876981E+03  0.00000000000E+00 0.  1.
         22   -1    0    0    0    0 -0.00000000000E+00 -0.00000000000E+00 -0.24035779405E+03  0.24035779405E+03  0.00000000000E+00 0. -1.
         24    2    1    2    0    0 -0.58258743802E+02 -0.59130880883E+01 -0.18845624445E+03  0.21294335578E+03  0.80000442859E+02 0.  0.
         25    2    1    2    0    0  0.11509120136E+03 -0.32800864413E+02  0.18193850514E+03  0.25113828543E+03  0.12508771891E+03 0.  0.
        -24    2    1    2    0    0 -0.56832457558E+02  0.38713952501E+02  0.56500871507E+03  0.57512492264E+03  0.82493212977E+02 0.  0.
        -13    1    3    3    0    0 -0.63787377194E+02  0.15059803218E+02 -0.85517671536E+02  0.10774460222E+03  0.00000000000E+00 0.  1.
         14    1    3    3    0    0  0.55286333917E+01 -0.20972891307E+02 -0.10293857291E+03  0.10519875356E+03  0.00000000000E+00 0. -1.
         13    1    5    5    0    0 -0.52950357102E+02  0.17908026969E+02  0.15853437807E+03  0.16809993092E+03  0.00000000000E+00 0. -1.
        -14    1    5    5    0    0 -0.38821004559E+01  0.20805925533E+02  0.40647433700E+03  0.40702499172E+03  0.00000000000E+00 0.  1.
          5    1    4    4  501    0  0.11851121770E+03  0.15639621698E+02  0.15387414734E+03  0.19489543891E+03  0.41800000000E+01 0.  1.
         -5    1    4    4    0  501 -0.34200163422E+01 -0.48440486111E+02  0.28064357798E+02  0.56242846524E+02  0.41800000000E+01 0.  1.
</event>
<event>
11    1  0.6625361E-009  0.2151479E+03  0.7561462E-02  0.1044300E+00
         22   -1    0    0    0    0  0.00000000000E+00  0.00000000000E+00  0.47062918924E+03  0.47062918924E+03  0.00000000000E+00 0.  1.
         22   -1    0    0    0    0 -0.00000000000E+00 -0.00000000000E+00 -0.46460847321E+03  0.46460847321E+03  0.00000000000E+00 0. -1.
         24    2    1    2    0    0 -0.45470936526E+02  0.22519049224E+02 -0.35298269183E+03  0.36570670193E+03  0.81054903970E+02 0.  0.
         25    2    1    2    0    0 -0.11115512946E+03 -0.11640261082E+03  0.64842202849E+02  0.21390836263E+03  0.12508895123E+03 0.  0.
        -24    2    1    2    0    0  0.15662606599E+03  0.93883561595E+02  0.29416120501E+03  0.35562259788E+03  0.81183556865E+02 0.  0.
        -11    1    3    3    0    0 -0.86801964407E+01  0.30928816177E+00  0.13390553510E+01  0.87883183061E+01  0.00000000000E+00 0.  1.
         12    1    3    3    0    0 -0.36790740085E+02  0.22209761063E+02 -0.35432174718E+03  0.35691838362E+03  0.00000000000E+00 0. -1.
         11    1    5    5    0    0 -0.26474424822E+01  0.26325521723E+02  0.32029708853E+02  0.41544485734E+02  0.00000000000E+00 0. -1.
        -12    1    5    5    0    0  0.15927350847E+03  0.67558039872E+02  0.26213149616E+03  0.31407811215E+03  0.00000000000E+00 0.  1.
          5    1    4    4  501    0 -0.98608084537E+02 -0.18604987321E+02  0.98081734058E+01  0.10091269769E+03  0.41800000000E+01 0.  1.
         -5    1    4    4    0  501 -0.12547044925E+02 -0.97797623499E+02  0.55034029444E+02  0.11299566494E+03  0.41800000000E+01 0.  1.
</event>
<event>
11    1  0.6625361E-009  0.1444614E+03  0.7561462E-02  0.1102676E+00
         22   -1    0    0    0    0  0.00000000000E+00  0.00000000000E+00  0.22709845979E+04  0.22709845979E+04  0.00000000000E+00 0. -1.
         22   -1    0    0    0    0 -0.00000000000E+00 -0.00000000000E+00 -0.28221302588E+04  0.28221302588E+04  0.00000000000E+00 0.  1.
         24    2    1    2    0    0  0.34089421255E+02 -0.35352887952E+01 -0.22191268385E+04  0.22206873077E+04  0.75852531718E+02 0.  0.
         25    2    1    2    0    0 -0.53545926648E+01  0.69864051988E+02 -0.59238903397E+03  0.60949281958E+03  0.12508825735E+03 0.  0.
        -24    2    1    2    0    0 -0.28734828590E+02 -0.66328763193E+02  0.22603702115E+04  0.22629347294E+04  0.79842979080E+02 0.  0.
        -11    1    3    3    0    0 -0.59520365359E+01  0.52639277945E+01 -0.16747749326E+04  0.16747937815E+04  0.00000000000E+00 0.  1.
         12    1    3    3    0    0  0.40041457791E+02 -0.87992165897E+01 -0.54435190593E+03  0.54589352629E+03  0.00000000000E+00 0. -1.
         13    1    5    5    0    0 -0.17638509913E+02 -0.45391702713E+02  0.21213954163E+04  0.21219542964E+04  0.00000000000E+00 0. -1.
        -14    1    5    5    0    0 -0.11096318678E+02 -0.20937060479E+02  0.13897479522E+03  0.14098043303E+03  0.00000000000E+00 0.  1.
          5    1    4    4  501    0 -0.45751985109E+02  0.45164765668E+02 -0.51248813259E+03  0.51652169233E+03  0.41800000000E+01 0.  1.
         -5    1    4    4    0  501  0.40397392444E+02  0.24699286319E+02 -0.79900901381E+02  0.92971127252E+02  0.41800000000E+01 0.  1.
</event>
<event>
11    1  0.6625361E-009  0.2065895E+03  0.7561462E-02  0.1049959E+00
         22   -1    0    0    0    0  0.00000000000E+00  0.00000000000E+00  0.17631823966E+04  0.17631823966E+04  0.00000000000E+00 0. -1.
         22   -1    0    0    0    0 -0.00000000000E+00 -0.00000000000E+00 -0.19579715127E+03  0.19579715127E+03  0.00000000000E+00 0. -1.
        -24    2    1    2    0    0  0.12106153089E+03 -0.10627965598E+03 -0.10986244544E+03  0.21082221159E+03  0.80156025645E+02 0.  0.
         25    2    1    2    0    0 -0.14541883983E+03  0.12108467077E+03  0.34234584152E+03  0.41067768719E+03  0.12508937236E+03 0.  0.
         24    2    1    2    0    0  0.24357308946E+02 -0.14805014795E+02  0.13349018492E+04  0.13374796491E+04  0.77951251508E+02 0.  0.
        -11    1    5    5    0    0 -0.22173489015E+02  0.94682226806E+01  0.69904084454E+03  0.69945651272E+03  0.00000000000E+00 0.  1.
         12    1    5    5    0    0  0.46530797962E+02 -0.24273237476E+02  0.63586100471E+03  0.63802313635E+03  0.00000000000E+00 0. -1.
         11    1    3    3    0    0  0.85991432873E+02 -0.53627943547E+02 -0.10717568362E+03  0.14750291528E+03  0.00000000000E+00 0. -1.
        -12    1    3    3    0    0  0.35070098015E+02 -0.52651712428E+02 -0.26867618204E+01  0.63319296312E+02  0.00000000000E+00 0.  1.
          5    1    4    4  501    0 -0.88664049191E+02  0.94272478704E+02  0.10979293011E+03  0.16976623269E+03  0.41800000000E+01 0. -1.
         -5    1    4    4    0  501 -0.56754790643E+02  0.26812192066E+02  0.23255291141E+03  0.24091145450E+03  0.41800000000E+01 0. -1.
</event>
<event>
11    1  0.6625361E-009  0.1509089E+03  0.7561462E-02  0.1095954E+00
         22   -1    0    0    0    0  0.00000000000E+00  0.00000000000E+00  0.68937403130E+03  0.68937403130E+03  0.00000000000E+00 0. -1.
         22   -1    0    0    0    0 -0.00000000000E+00 -0.00000000000E+00 -0.62665272940E+03  0.62665272940E+03  0.00000000000E+00 0. -1.
         24    2    1    2    0    0 -0.30465176383E+02  0.18527520054E+02 -0.16146149111E+03  0.18341733121E+03  0.79377001117E+02 0.  0.
         25    2    1    2    0    0  0.19491213658E+02  0.65419810254E+02 -0.43782609940E+03  0.46043393583E+03  0.12509219389E+03 0.  0.
        -24    2    1    2    0    0  0.10973962725E+02 -0.83947330308E+02  0.66200889240E+03  0.67217549365E+03  0.79978362892E+02 0.  0.
        -11    1    3    3    0    0 -0.18490570236E+02  0.49682167425E+02 -0.10954358766E+03  0.12169641139E+03  0.00000000000E+00 0.  1.
         12    1    3    3    0    0 -0.11974606147E+02 -0.31154647371E+02 -0.51917903447E+02  0.61720919821E+02  0.00000000000E+00 0. -1.
         13    1    5    5    0    0 -0.15315807262E+02 -0.12977485721E+02  0.36914927484E+03  0.36969470675E+03  0.00000000000E+00 0. -1.
        -14    1    5    5    0    0  0.26289769987E+02 -0.70969844588E+02  0.29285961756E+03  0.30248078690E+03  0.00000000000E+00 0.  1.
          5    1    4    4  501    0  0.63089487232E+02  0.68198495333E+02 -0.35147645062E+03  0.36357184421E+03  0.41800000000E+01 0.  1.
         -5    1    4    4    0  501 -0.43598273574E+02 -0.27786850789E+01 -0.86349648778E+02  0.96862091623E+02  0.41800000000E+01 0.  1.
</event>
<event>
11    1  0.6625361E-009  0.1518954E+03  0.7561462E-02  0.1094958E+00
         22   -1    0    0    0    0  0.00000000000E+00  0.00000000000E+00  0.44604226701E+03  0.44604226701E+03  0.00000000000E+00 0.  1.
         22   -1    0    0    0    0 -0.00000000000E+00 -0.00000000000E+00 -0.21971270174E+03  0.21971270174E+03  0.00000000000E+00 0.  1.
         24    2    1    2    0    0 -0.55231164913E+01  0.65056493127E+01 -0.11740137126E+03  0.14224408796E+03  0.79859065216E+02 0.  0.
         25    2    1    2    0    0  0.91091438890E+02 -0.44300848964E+01 -0.57991979824E+01  0.15491506019E+03  0.12509104398E+03 0.  0.
        -24    2    1    2    0    0 -0.85568322399E+02 -0.20755644162E+01  0.34953013451E+03  0.36859582061E+03  0.79782944757E+02 0.  0.
        -11    1    3    3    0    0 -0.31533191847E+02  0.88778559988E+01 -0.11046580436E+03  0.11522088547E+03  0.00000000000E+00 0.  1.
         12    1    3    3    0    0  0.26010075356E+02 -0.23722066862E+01 -0.69355668963E+01  0.27023202489E+02  0.00000000000E+00 0. -1.
         13    1    5    5    0    0 -0.54570956721E+02 -0.35606240554E+02  0.14403242624E+03  0.15808584217E+03  0.00000000000E+00 0. -1.
        -14    1    5    5    0    0 -0.30997365678E+02  0.33530676137E+02  0.20549770827E+03  0.21050997845E+03  0.00000000000E+00 0.  1.
          5    1    4    4  501    0  0.78747614404E+02  0.48767784016E+02 -0.26388848232E+02  0.96401904769E+02  0.41800000000E+01 0. -1.
         -5    1    4    4    0  501  0.12343824486E+02 -0.53197868912E+02  0.20589650250E+02  0.58513155419E+02  0.41800000000E+01 0. -1.
</event>
<event>
11    1  0.6625361E-009  0.1434765E+03  0.7561462E-02  0.1103737E+00
         22   -1    0    0    0    0  0.00000000000E+00  0.00000000000E+00  0.19010456963E+02  0.19010456963E+02  0.00000000000E+00 0.  1.
         22   -1    0    0    0    0 -0.00000000000E+00 -0.00000000000E+00 -0.29825121885E+04  0.29825121885E+04  0.00000000000E+00 0.  1.
         24    2    1    2    0    0  0.61936038128E+02  0.34686104584E+02 -0.17542706227E+04  0.17569250469E+04  0.65429383716E+02 0.  0.
         25    2    1    2    0    0 -0.11825464078E+03 -0.14212328023E+02 -0.96842582935E+03  0.98370863717E+03  0.12509174861E+03 0.  0.
        -24    2    1    2    0    0  0.56318602649E+02 -0.20473776561E+02 -0.24080527949E+03  0.26088896134E+03  0.80528920200E+02 0.  0.
        -13    1    3    3    0    0  0.21094993484E+01  0.31919005269E+02 -0.89405211773E+03  0.89462420161E+03  0.00000000000E+00 0.  1.
         14    1    3    3    0    0  0.59826538780E+02  0.27670993151E+01 -0.86021850497E+03  0.86230084534E+03  0.00000000000E+00 0. -1.
         11    1    5    5    0    0  0.11702911526E+02  0.80138085337E+01 -0.17879837366E+03  0.17936007830E+03  0.00000000000E+00 0. -1.
        -12    1    5    5    0    0  0.44615691123E+02 -0.28487585094E+02 -0.62006905829E+02  0.81528883038E+02  0.00000000000E+00 0.  1.
          5    1    4    4  501    0 -0.12888794246E+03 -0.47376467156E+02 -0.74861382465E+03  0.76111547232E+03  0.41800000000E+01 0. -1.
         -5    1    4    4    0  501  0.10633301687E+02  0.33164139133E+02 -0.21981200470E+03  0.22259316485E+03  0.41800000000E+01 0. -1.
</event>
<event>
11    1  0.6625361E-009  0.1417443E+03  0.7561462E-02  0.1105626E+00
         22   -1    0    0    0    0  0.00000000000E+00  0.00000000000E+00  0.10468810725E+04  0.10468810725E+04  0.00000000000E+00 0.  1.
         22   -1    0    0    0    0 -0.00000000000E+00 -0.00000000000E+00 -0.77725361232E+03  0.77725361232E+03  0.00000000000E+00 0.  1.
        -24    2    1    2    0    0  0.46988795716E+02 -0.57776144031E+02 -0.68128817660E+03  0.68997967652E+03  0.79826967179E+02 0.  0.
         25    2    1    2    0    0 -0.11194588595E+03  0.56112958700E+02  0.48668359005E+00  0.17698916225E+03  0.12507750068E+03 0.  0.
         24    2    1    2    0    0  0.64957090231E+02  0.16631853310E+01  0.95042895316E+03  0.95716584604E+03  0.92892798743E+02 0.  0.
        -11    1    5    5    0    0  0.71329677624E+02  0.29945210365E+02  0.81529819814E+03  0.81896018855E+03  0.00000000000E+00 0.  1.
         12    1    5    5    0    0 -0.63725873926E+01 -0.28282025034E+02  0.13513075502E+03  0.13820565749E+03  0.00000000000E+00 0. -1.
         13    1    3    3    0    0  0.13160669829E+02 -0.10659476798E+02 -0.20237017700E+02  0.26388720343E+02  0.00000000000E+00 0. -1.
        -14    1    3    3    0    0  0.33828125887E+02 -0.47116667232E+02 -0.66105115890E+03  0.66359095617E+03  0.00000000000E+00 0.  1.
          5    1    4    4  501    0 -0.64942183280E+01 -0.73935138780E+01 -0.44572482210E+02  0.45836857326E+02  0.41800000000E+01 0. -1.
         -5    1    4    4    0  501 -0.10545166762E+03  0.63506472578E+02  0.45059165800E+02  0.13115230492E+03  0.41800000000E+01 0. -1.
</event>
<event>
11    1  0.6625361E-009  0.1257167E+03  0.7561462E-02  0.1124647E+00
         22   -1    0    0    0    0  0.00000000000E+00  0.00000000000E+00  0.50204947987E+03  0.50204947987E+03  0.00000000000E+00 0.  1.
         22   -1    0    0    0    0 -0.00000000000E+00 -0.00000000000E+00 -0.27849743873E+03  0.27849743873E+03  0.00000000000E+00 0.  1.
         24    2    1    2    0    0 -0.32201731604E+01  0.38325533139E+01 -0.22598991191E+03  0.23979469354E+03  0.80031223822E+02 0.  0.
         25    2    1    2    0    0 -0.79069737249E+01  0.29400535077E+01  0.53623938804E+02  0.13635602706E+03  0.12508507167E+03 0.  0.
        -24    2    1    2    0    0  0.11127146885E+02 -0.67726068216E+01  0.39591801424E+03  0.40439619800E+03  0.81335904467E+02 0.  0.
        -13    1    3    3    0    0  0.92913206308E+01  0.42729806613E+01 -0.22700418394E+03  0.22723443077E+03  0.00000000000E+00 0.  1.
         14    1    3    3    0    0 -0.12511493791E+02 -0.44042734738E+00  0.10142720285E+01  0.12560262771E+02  0.00000000000E+00 0. -1.
         11    1    5    5    0    0  0.18241748044E+02  0.37344371773E+01  0.16839304108E+02  0.25105169897E+02  0.00000000000E+00 0. -1.
        -12    1    5    5    0    0 -0.71146011585E+01 -0.10507043999E+02  0.37907871013E+03  0.37929102810E+03  0.00000000000E+00 0.  1.
          5    1    4    4  501    0 -0.18674912071E+02  0.50485711295E+02 -0.11198848204E+02  0.55140239271E+02  0.41800000000E+01 0. -1.
         -5    1    4    4    0  501  0.10767938346E+02 -0.47545657787E+02  0.64822787008E+02  0.81215787788E+02  0.41800000000E+01 0. -1.
</event>
<event>
11    1  0.6625361E-009  0.1460409E+03  0.7561462E-02  0.1100994E+00
         22   -1    0    0    0    0  0.00000000000E+00  0.00000000000E+00  0.42003467195E+04  0.42003467195E+04  0.00000000000E+00 0. -1.
         22   -1    0    0    0    0 -0.00000000000E+00 -0.00000000000E+00 -0.29887663488E+03  0.29887663488E+03  0.00000000000E+00 0.  1.
        -24    2    1    2    0    0 -0.30906718275E+02 -0.68999099593E+02 -0.28417543662E+03  0.30488677354E+03  0.80524312633E+02 0.  0.
         25    2    1    2    0    0 -0.17557368923E+02  0.57299183791E+02  0.13547670789E+04  0.13618487016E+04  0.12508633088E+03 0.  0.
         24    2    1    2    0    0  0.48464087198E+02  0.11699915802E+02  0.28308784423E+04  0.28324878793E+04  0.81419747213E+02 0.  0.
        -13    1    5    5    0    0  0.55701251431E+02  0.35552340245E+02  0.16108007007E+04  0.16121555432E+04  0.00000000000E+00 0.  1.
         14    1    5    5    0    0 -0.72371642329E+01 -0.23852424443E+02  0.12200777416E+04  0.12203323360E+04  0.00000000000E+00 0. -1.
         11    1    3    3    0    0 -0.23659326904E+01 -0.12117222549E+02  0.12901916183E+01  0.12413271697E+02  0.00000000000E+00 0. -1.
        -12    1    3    3    0    0 -0.28540785585E+02 -0.56881877044E+02 -0.28546562824E+03  0.29247350185E+03  0.00000000000E+00 0.  1.
          5    1    4    4  501    0  0.14857620542E+02 -0.36092897075E+02  0.43910671973E+03  0.44085783402E+03  0.41800000000E+01 0.  1.
         -5    1    4    4    0  501 -0.32414989466E+02  0.93392080866E+02  0.91566035920E+03  0.92099086756E+03  0.41800000000E+01 0.  1.
</event>
<event>
11    1  0.6625361E-009  0.1572264E+03  0.7561462E-02  0.1089715E+00
         22   -1    0    0    0    0  0.00000000000E+00  0.00000000000E+00  0.46677786463E+03  0.46677786463E+03  0.00000000000E+00 0.  1.
         22   -1    0    0    0    0 -0.00000000000E+00 -0.00000000000E+00 -0.96696749073E+03  0.96696749073E+03  0.00000000000E+00 0.  1.
         24    2    1    2    0    0  0.18718356967E+02  0.15289808944E+02 -0.83255831697E+03  0.83674977295E+03  0.80079187253E+02 0.  0.
         25    2    1    2    0    0 -0.98148138955E+02  0.36309392611E+02 -0.68974062317E+02  0.17707789916E+03  0.12509089466E+03 0.  0.
        -24    2    1    2    0    0  0.79429781988E+02 -0.51599201555E+02  0.40134275319E+03  0.41991768325E+03  0.79267189274E+02 0.  0.
        -13    1    3    3    0    0  0.28130729586E+02  0.42174409875E+01 -0.80578296475E+03  0.80628488206E+03  0.00000000000E+00 0.  1.
         14    1    3    3    0    0 -0.94123726185E+01  0.11072367957E+02 -0.26775352217E+02  0.30464890888E+02  0.00000000000E+00 0. -1.
         13    1    5    5    0    0  0.87940138149E+02 -0.20549807980E+02  0.31792839860E+03  0.33050601983E+03  0.00000000000E+00 0. -1.
        -14    1    5    5    0    0 -0.85103561611E+01 -0.31049393575E+02  0.83414354593E+02  0.89411663420E+02  0.00000000000E+00 0.  1.
          5    1    4    4  501    0 -0.91631458895E+02 -0.35159656433E+01 -0.92386672956E+02  0.13023615479E+03  0.41800000000E+01 0.  1.
         -5    1    4    4    0  501 -0.65166800605E+01  0.39825358254E+02  0.23412610639E+02  0.46841744374E+02  0.41800000000E+01 0.  1.
</event>
<event>
11    1  0.6625361E-009  0.1695252E+03  0.7561462E-02  0.1078446E+00
         22   -1    0    0    0    0  0.00000000000E+00  0.00000000000E+00  0.17196588652E+03  0.17196588652E+03  0.00000000000E+00 0.  1.
         22   -1    0    0    0    0 -0.00000000000E+00 -0.00000000000E+00 -0.11108471818E+04  0.11108471818E+04  0.00000000000E+00 0.  1.
        -24    2    1    2    0    0  0.83384614897E+01  0.94518678875E+02 -0.93498954010E+03  0.94317929997E+03  0.79865143845E+02 0.  0.
         25    2    1    2    0    0 -0.12024545523E+03 -0.67661552945E+02 -0.47875756205E+02  0.19228734842E+03  0.12508109802E+03 0.  0.
         24    2    1    2    0    0  0.11190699374E+03 -0.26857125930E+02  0.43984000992E+02  0.14734641997E+03  0.80820137789E+02 0.  0.
        -13    1    5    5    0    0  0.74444464068E+02  0.79579334281E+01  0.57554607966E+02  0.94434314912E+02  0.00000000000E+00 0.  1.
         14    1    5    5    0    0  0.37462529674E+02 -0.34815059358E+02 -0.13570606974E+02  0.52912105055E+02  0.00000000000E+00 0. -1.
         13    1    3    3    0    0  0.99568094435E+01  0.81713537605E+02 -0.41798819635E+03  0.42601686888E+03  0.00000000000E+00 0. -1.
        -14    1    3    3    0    0 -0.16183479538E+01  0.12805141270E+02 -0.51700134375E+03  0.51716243109E+03  0.00000000000E+00 0.  1.
          5    1    4    4  501    0 -0.54690592455E+02 -0.90058798383E+02  0.41842964701E+01  0.10553022698E+03  0.41800000000E+01 0. -1.
         -5    1    4    4    0  501 -0.65554862776E+02  0.22397245438E+02 -0.52060052675E+02  0.86757121445E+02  0.41800000000E+01 0. -1.
</event>
<event>
11    1  0.6625361E-009  0.1334748E+03  0.7561462E-02  0.1115072E+00
         22   -1    0    0    0    0  0.00000000000E+00  0.00000000000E+00  0.35624019063E+03  0.35624019063E+03  0.00000000000E+00 0.  1.
         22   -1    0    0    0    0 -0.00000000000E+00 -0.00000000000E+00 -0.23591983750E+03  0.23591983750E+03  0.00000000000E+00 0. -1.
        -24    2    1    2    0    0  0.20733170863E+01 -0.46683577542E+02 -0.18892632376E+03  0.21301274233E+03  0.86588784078E+02 0.  0.
         25    2    1    2    0    0  0.10557296621E+02  0.44342546304E+02  0.16203636306E+03  0.20971707332E+03  0.12509096676E+03 0.  0.
         24    2    1    2    0    0 -0.12630613708E+02  0.23410312380E+01  0.14721031384E+03  0.16943021248E+03  0.82889731406E+02 0.  0.
        -11    1    5    5    0    0 -0.21617973671E+02 -0.22819585607E+02  0.13742967511E+03  0.14097867170E+03  0.00000000000E+00 0.  1.
         12    1    5    5    0    0  0.89873599635E+01  0.25160616845E+02  0.97806387257E+01  0.28451540785E+02  0.00000000000E+00 0. -1.
         11    1    3    3    0    0  0.13159114276E+02 -0.55156395022E+02 -0.19069594427E+03  0.19894806700E+03  0.00000000000E+00 0. -1.
        -12    1    3    3    0    0 -0.11085797189E+02  0.84728174795E+01  0.17696205114E+01  0.14064675329E+02  0.00000000000E+00 0.  1.
          5    1    4    4  501    0  0.59925975524E+02  0.45214136842E+02  0.13159939138E+03  0.15156290089E+03  0.41800000000E+01 0. -1.
         -5    1    4    4    0  501 -0.49368678903E+02 -0.87159053759E+00  0.30436971673E+02  0.58154172432E+02  0.41800000000E+01 0. -1.
</event>
<event>
11    1  0.6625361E-009  0.2318316E+03  0.7561462E-02  0.1034049E+00
         22   -1    0    0    0    0  0.00000000000E+00  0.00000000000E+00  0.84994934642E+03  0.84994934642E+03  0.00000000000E+00 0. -1.
         22   -1    0    0    0    0 -0.00000000000E+00 -0.00000000000E+00 -0.30991268511E+04  0.30991268511E+04  0.00000000000E+00 0.  1.
         24    2    1    2    0    0 -0.19170772072E+01  0.18450895408E+02 -0.25618489821E+04  0.25632131659E+04  0.81531689746E+02 0.  0.
         25    2    1    2    0    0  0.36981670915E+02 -0.20998052672E+03 -0.49378910383E+03  0.55221118575E+03  0.12510015594E+03 0.  0.
        -24    2    1    2    0    0 -0.35064593707E+02  0.19152963132E+03  0.80646058117E+03  0.83365184588E+03  0.81753322538E+02 0.  0.
        -13    1    3    3    0    0 -0.31323409448E+02  0.33182974077E+02 -0.18995457403E+04  0.19000937570E+04  0.00000000000E+00 0.  1.
         14    1    3    3    0    0  0.29406332241E+02 -0.14732078669E+02 -0.66230324171E+03  0.66311940893E+03  0.00000000000E+00 0. -1.
         13    1    5    5    0    0 -0.51563637725E+02  0.18663028321E+03  0.75262898070E+03  0.77713580148E+03  0.00000000000E+00 0. -1.
        -14    1    5    5    0    0  0.16499044017E+02  0.48993481066E+01  0.53831600471E+02  0.56516044401E+02  0.00000000000E+00 0.  1.
          5    1    4    4  501    0  0.48085288991E+02 -0.12611533082E+03 -0.16774132796E+03  0.21534135040E+03  0.41800000000E+01 0. -1.
         -5    1    4    4    0  501 -0.11103618077E+02 -0.83865195901E+02 -0.32604777587E+03  0.33686983535E+03  0.41800000000E+01 0. -1.
</event>
<event>
11    1  0.6647531E-009  0.1586239E+03  0.7561462E-02  0.1088379E+00
         22   -1    0    0    0    0  0.00000000000E+00  0.00000000000E+00  0.90926125355E+03  0.90926125355E+03  0.00000000000E+00 0.  1.
         22   -1    0    0    0    0 -0.00000000000E+00 -0.00000000000E+00 -0.25395082784E+03  0.25395082784E+03  0.00000000000E+00 0. -1.
         24    2    1    2    0    0 -0.13178185294E+02 -0.29144156134E+02 -0.15660329473E+03  0.17892003760E+03  0.80403616396E+02 0.  0.
         25    2    1    2    0    0 -0.34446931429E+02  0.11303523819E+03  0.96973869802E+01  0.17235126464E+03  0.12508941983E+03 0.  0.
        -24    2    1    2    0    0  0.47625116723E+02 -0.83891082053E+02  0.80221633346E+03  0.81194077915E+03  0.79943215984E+02 0.  0.
        -13    1    3    3    0    0  0.13776486288E+02 -0.96725360725E+01  0.19242615252E+01  0.16942618184E+02  0.00000000000E+00 0.  1.
         14    1    3    3    0    0 -0.26954671582E+02 -0.19471620061E+02 -0.15852755626E+03  0.16197741941E+03  0.00000000000E+00 0. -1.
         13    1    5    5    0    0  0.44883471523E+02 -0.17475656129E+02  0.18545024622E+03  0.19160302293E+03  0.00000000000E+00 0. -1.
        -14    1    5    5    0    0  0.27416452003E+01 -0.66415425924E+02  0.61676608724E+03  0.62033775621E+03  0.00000000000E+00 0.  1.
          5    1    4    4  501    0 -0.61856814670E+02  0.10559194689E+03  0.41705204166E+02  0.12935502009E+03  0.41800000000E+01 0.  1.
         -5    1    4    4    0  501  0.27409883241E+02  0.74432913005E+01 -0.32007817186E+02  0.42996244553E+02  0.41800000000E+01 0.  1.
</event>
<event>
11    1  0.6625361E-009  0.1348447E+03  0.7561462E-02  0.1113456E+00
         22   -1    0    0    0    0  0.00000000000E+00  0.00000000000E+00  0.85507136435E+03  0.85507136435E+03  0.00000000000E+00 0. -1.
         22   -1    0    0    0    0 -0.00000000000E+00 -0.00000000000E+00 -0.10673908847E+03  0.10673908847E+03  0.00000000000E+00 0. -1.
         24    2    1    2    0    0  0.18131038983E+02 -0.50383096300E+02 -0.60867437036E+02  0.11447094708E+03  0.80818078833E+02 0.  0.
         25    2    1    2    0    0  0.13144318417E+02 -0.32724604680E+01  0.25255728440E+03  0.28216120103E+03  0.12508508848E+03 0.  0.
        -24    2    1    2    0    0 -0.31275357399E+02  0.53655556768E+02  0.55664242851E+03  0.56517830472E+03  0.75621796795E+02 0.  0.
        -13    1    3    3    0    0  0.40365410734E+02 -0.77452441196E+01 -0.60393679750E+01  0.41543099977E+02  0.00000000000E+00 0.  1.
         14    1    3    3    0    0 -0.22234371752E+02 -0.42637852181E+02 -0.54828069061E+02  0.72927847100E+02  0.00000000000E+00 0. -1.
         11    1    5    5    0    0  0.45282704591E+01  0.30928517523E+02  0.43925050751E+03  0.44036131390E+03  0.00000000000E+00 0. -1.
        -12    1    5    5    0    0 -0.35803627858E+02  0.22727039245E+02  0.11739192100E+03  0.12481699081E+03  0.00000000000E+00 0.  1.
          5    1    4    4  501    0  0.58301085934E+02  0.30180896745E+02  0.10168931523E+03  0.12111190024E+03  0.41800000000E+01 0.  1.
         -5    1    4    4    0  501 -0.45156767517E+02 -0.33453357213E+02  0.15086796917E+03  0.16104930079E+03  0.41800000000E+01 0.  1.
</event>
<event>
11    1  0.6625361E-009  0.1408372E+03  0.7561462E-02  0.1106627E+00
         22   -1    0    0    0    0  0.00000000000E+00  0.00000000000E+00  0.25368176597E+02  0.25368176597E+02  0.00000000000E+00 0. -1.
         22   -1    0    0    0    0 -0.00000000000E+00 -0.00000000000E+00 -0.25104805436E+04  0.25104805436E+04  0.00000000000E+00 0.  1.
         24    2    1    2    0    0 -0.58821448563E+02 -0.38024856918E+02 -0.13785997927E+04  0.13827444975E+04  0.80864729767E+02 0.  0.
         25    2    1    2    0    0  0.55577793086E+02  0.94704121029E+01 -0.10290083072E+04  0.10381154485E+04  0.12508800254E+03 0.  0.
        -24    2    1    2    0    0  0.32436554772E+01  0.28554444815E+02 -0.77504267082E+02  0.11498877411E+03  0.79935155814E+02 0.  0.
        -11    1    3    3    0    0 -0.25394890864E+02  0.37994425421E+00 -0.10425783546E+04  0.10428876595E+04  0.00000000000E+00 0.  1.
         12    1    3    3    0    0 -0.33426557699E+02 -0.38404801172E+02 -0.33602143807E+03  0.33985683803E+03  0.00000000000E+00 0. -1.
         11    1    5    5    0    0 -0.50562045690E+00  0.80725782297E+01  0.16676073075E+02  0.18534119470E+02  0.00000000000E+00 0. -1.
        -12    1    5    5    0    0  0.37492759341E+01  0.20481866585E+02 -0.94180340157E+02  0.96454654636E+02  0.00000000000E+00 0.  1.
          5    1    4    4  501    0  0.44719067753E+02 -0.52421525659E+02 -0.67774368644E+03  0.68125016571E+03  0.41800000000E+01 0. -1.
         -5    1    4    4    0  501  0.10858725333E+02  0.61891937762E+02 -0.35126462078E+03  0.35686528283E+03  0.41800000000E+01 0. -1.
</event>
<event>
11    1  0.6625361E-009  0.1896141E+03  0.7561462E-02  0.1062121E+00
         22   -1    0    0    0    0  0.00000000000E+00  0.00000000000E+00  0.59782347472E+03  0.59782347472E+03  0.00000000000E+00 0. -1.
         22   -1    0    0    0    0 -0.00000000000E+00 -0.00000000000E+00 -0.24627361722E+03  0.24627361722E+03  0.00000000000E+00 0. -1.
        -24    2    1    2    0    0  0.97295414502E+02 -0.11229814348E+03 -0.13582799534E+03  0.21684367963E+03  0.80589492901E+02 0.  0.
         25    2    1    2    0    0 -0.11020386058E+03 -0.78283539768E+02  0.27253875334E+03  0.32893636382E+03  0.12509418807E+03 0.  0.
         24    2    1    2    0    0  0.12908446083E+02  0.19058168325E+03  0.21483909950E+03  0.29831704848E+03  0.79681972675E+02 0.  0.
        -11    1    5    5    0    0  0.26938359542E+02  0.11247812961E+03  0.75980793382E+02  0.13838383510E+03  0.00000000000E+00 0.  1.
         12    1    5    5    0    0 -0.14029913460E+02  0.78103553643E+02  0.13885830612E+03  0.15993321338E+03  0.00000000000E+00 0. -1.
         11    1    3    3    0    0  0.10296804588E+03 -0.11394521771E+03 -0.14137463342E+03  0.20874079162E+03  0.00000000000E+00 0. -1.
        -12    1    3    3    0    0 -0.56726313745E+01  0.16470742263E+01  0.55466380795E+01  0.81028880162E+01  0.00000000000E+00 0.  1.
          5    1    4    4  501    0 -0.13222816618E+03 -0.37285106959E+02  0.20429021253E+03  0.24622434987E+03  0.41800000000E+01 0. -1.
         -5    1    4    4    0  501  0.22024305598E+02 -0.40998432809E+02  0.68248540808E+02  0.82712013954E+02  0.41800000000E+01 0. -1.
</event>
<event>
11    1  0.6625361E-009  0.1508687E+03  0.7561462E-02  0.1095994E+00
         22   -1    0    0    0    0  0.00000000000E+00  0.00000000000E+00  0.15395549439E+04  0.15395549439E+04  0.00000000000E+00 0.  1.
         22   -1    0    0    0    0 -0.00000000000E+00 -0.00000000000E+00 -0.24094907904E+04  0.24094907904E+04  0.00000000000E+00 0. -1.
        -24    2    1    2    0    0 -0.99042222625E+01 -0.34548562451E+02 -0.23661641102E+04  0.23678069111E+04  0.80531203913E+02 0.  0.
         25    2    1    2    0    0 -0.19337751490E+02  0.11192824626E+03  0.13776039002E+03  0.21800748812E+03  0.12508980323E+03 0.  0.
         24    2    1    2    0    0  0.29241973752E+02 -0.77379683812E+02  0.13584678737E+04  0.13632313351E+04  0.78243214092E+02 0.  0.
        -11    1    5    5    0    0 -0.22970274604E+02 -0.45640836755E+02  0.73611228458E+03  0.73788346980E+03  0.00000000000E+00 0.  1.
         12    1    5    5    0    0  0.52212248356E+02 -0.31738847057E+02  0.62235558914E+03  0.62534786529E+03  0.00000000000E+00 0. -1.
         11    1    3    3    0    0 -0.27006315160E+02 -0.18304026923E+02 -0.21677786168E+04  0.21680241027E+04  0.00000000000E+00 0. -1.
        -12    1    3    3    0    0  0.17102092897E+02 -0.16244535528E+02 -0.19838549348E+03  0.19978280842E+03  0.00000000000E+00 0.  1.
          5    1    4    4  501    0  0.33173730940E+02  0.89794952978E+02  0.38071438721E+02  0.10310449482E+03  0.41800000000E+01 0. -1.
         -5    1    4    4    0  501 -0.52511482430E+02  0.22133293285E+02  0.99688951301E+02  0.11490299330E+03  0.41800000000E+01 0. -1.
</event>
<event>
11    1  0.6625361E-009  0.1576712E+03  0.7561462E-02  0.1089288E+00
         22   -1    0    0    0    0  0.00000000000E+00  0.00000000000E+00  0.43056877787E+03  0.43056877787E+03  0.00000000000E+00 0. -1.
         22   -1    0    0    0    0 -0.00000000000E+00 -0.00000000000E+00 -0.20447905068E+04  0.20447905068E+04  0.00000000000E+00 0.  1.
         24    2    1    2    0    0 -0.25854602810E+02 -0.19619283745E+02 -0.17157319994E+04  0.17180460270E+04  0.83020963241E+02 0.  0.
         25    2    1    2    0    0  0.84226597071E+02  0.94697448161E+02 -0.29368235859E+03  0.34344806210E+03  0.12508204217E+03 0.  0.
        -24    2    1    2    0    0 -0.58371994260E+02 -0.75078164416E+02  0.39519262899E+03  0.41386519563E+03  0.77866332011E+02 0.  0.
        -13    1    3    3    0    0  0.84704299018E+01 -0.34759669760E+02 -0.13329368076E+04  0.13334168575E+04  0.00000000000E+00 0.  1.
         14    1    3    3    0    0 -0.34325032712E+02  0.15140386015E+02 -0.38279519178E+03  0.38462916947E+03  0.00000000000E+00 0. -1.
         11    1    5    5    0    0 -0.24345503079E+02 -0.70468215716E+02  0.34556801588E+03  0.35351906108E+03  0.00000000000E+00 0. -1.
        -12    1    5    5    0    0 -0.34026491182E+02 -0.46099487002E+01  0.49624613109E+02  0.60346134552E+02  0.00000000000E+00 0.  1.
          5    1    4    4  501    0  0.33781889907E+02 -0.14889031885E+02 -0.15590448326E+03  0.16027033306E+03  0.41800000000E+01 0. -1.
         -5    1    4    4    0  501  0.50444707164E+02  0.10958648005E+03 -0.13777787532E+03  0.18317772905E+03  0.41800000000E+01 0. -1.
</event>
<event>
11    1  0.6625361E-009  0.1332404E+03  0.7561462E-02  0.1115350E+00
         22   -1    0    0    0    0  0.00000000000E+00  0.00000000000E+00  0.26502874298E+04  0.26502874298E+04  0.00000000000E+00 0.  1.
         22   -1    0    0    0    0 -0.00000000000E+00 -0.00000000000E+00 -0.10083506473E+03  0.10083506473E+03  0.00000000000E+00 0.  1.
        -24    2    1    2    0    0 -0.39120322722E+02 -0.17581100706E+02 -0.50071151085E+02  0.10374954850E+03  0.80108388387E+02 0.  0.
         25    2    1    2    0    0  0.56097683782E+02  0.48060910096E+02  0.20474582310E+03  0.25104735955E+03  0.12508846253E+03 0.  0.
         24    2    1    2    0    0 -0.16977361060E+02 -0.30479809391E+02  0.23947776930E+04  0.23963255864E+04  0.78732888508E+02 0.  0.
        -11    1    5    5    0    0 -0.41065500769E+02  0.51582074243E+01  0.14129992308E+04  0.14136052521E+04  0.00000000000E+00 0.  1.
         12    1    5    5    0    0  0.24088139710E+02 -0.35638016815E+02  0.98177846222E+03  0.98272033437E+03  0.00000000000E+00 0. -1.
         11    1    3    3    0    0 -0.41531346989E+02  0.10676074609E+02  0.36144055137E+01  0.43033652866E+02  0.00000000000E+00 0. -1.
        -12    1    3    3    0    0  0.24110242663E+01 -0.28257175314E+02 -0.53685556599E+02  0.60715895629E+02  0.00000000000E+00 0.  1.
          5    1    4    4  501    0 -0.18262317930E+02 -0.44011033153E+01 -0.70459487043E+01  0.20493895670E+02  0.41800000000E+01 0.  1.
         -5    1    4    4    0  501  0.74360001713E+02  0.52462013412E+02  0.21179177180E+03  0.23055346388E+03  0.41800000000E+01 0.  1.
</event>
<event>
11    1  0.6625361E-009  0.1486752E+03  0.7561462E-02  0.1098240E+00
         22   -1    0    0    0    0  0.00000000000E+00  0.00000000000E+00  0.30313872653E+03  0.30313872653E+03  0.00000000000E+00 0. -1.
         22   -1    0    0    0    0 -0.00000000000E+00 -0.00000000000E+00 -0.26936388188E+03  0.26936388188E+03  0.00000000000E+00 0. -1.
         24    2    1    2    0    0 -0.70799703599E+02  0.42557375079E+02 -0.19924354285E+03  0.23013398424E+03  0.80249193960E+02 0.  0.
         25    2    1    2    0    0  0.26166545350E+02 -0.71584820134E+02  0.95000570055E+02  0.17458674666E+03  0.12508536776E+03 0.  0.
        -24    2    1    2    0    0  0.44633158249E+02  0.29027445054E+02  0.13801781745E+03  0.16778187750E+03  0.79165201349E+02 0.  0.
        -11    1    3    3    0    0 -0.10910363845E+02  0.52886222110E+02 -0.10328298407E+03  0.11654768692E+03  0.00000000000E+00 0.  1.
         12    1    3    3    0    0 -0.59889339754E+02 -0.10328847031E+02 -0.95960558785E+02  0.11358629732E+03  0.00000000000E+00 0. -1.
         11    1    5    5    0    0  0.33969569214E+02  0.56014465887E+02  0.84681957109E+02  0.10706346660E+03  0.00000000000E+00 0. -1.
        -12    1    5    5    0    0  0.10663589035E+02 -0.26987020833E+02  0.53335860338E+02  0.60718410902E+02  0.00000000000E+00 0.  1.
          5    1    4    4  501    0 -0.35858022187E+02  0.15601025864E+02  0.23144677253E+02  0.45632644547E+02  0.41800000000E+01 0.  1.
         -5    1    4    4    0  501  0.62024567538E+02 -0.87185845998E+02  0.71855892801E+02  0.12895410211E+03  0.41800000000E+01 0.  1.
</event>
<event>
11    1  0.6625361E-009  0.1603596E+03  0.7561462E-02  0.1086740E+00
         22   -1    0    0    0    0  0.00000000000E+00  0.00000000000E+00  0.18940355579E+03  0.18940355579E+03  0.00000000000E+00 0. -1.
         22   -1    0    0    0    0 -0.00000000000E+00 -0.00000000000E+00 -0.20555718185E+04  0.20555718185E+04  0.00000000000E+00 0.  1.
        -24    2    1    2    0    0 -0.96939094280E+02 -0.17479163970E+02 -0.16087067242E+04  0.16142781859E+04  0.90851680807E+02 0.  0.
         25    2    1    2    0    0  0.11242560963E+03  0.93761571205E+00 -0.41740603693E+03  0.45001780764E+03  0.12509128947E+03 0.  0.
         24    2    1    2    0    0 -0.15486515350E+02  0.16541548258E+02  0.15994449842E+03  0.18067938071E+03  0.80927999253E+02 0.  0.
        -11    1    5    5    0    0 -0.16358303477E+02  0.62655751901E+01 -0.26862732028E+01  0.17721952173E+02  0.00000000000E+00 0.  1.
         12    1    5    5    0    0  0.87178812713E+00  0.10275973068E+02  0.16263077163E+03  0.16295742854E+03  0.00000000000E+00 0. -1.
         11    1    3    3    0    0 -0.84590892317E+01 -0.92680436712E+01 -0.24002424157E+02  0.27084482449E+02  0.00000000000E+00 0. -1.
        -12    1    3    3    0    0 -0.88480005049E+02 -0.82111202991E+01 -0.15847043000E+04  0.15871937035E+04  0.00000000000E+00 0.  1.
          5    1    4    4  501    0 -0.16718794226E+02 -0.20992046980E+02 -0.14743931884E+03  0.14992000953E+03  0.41800000000E+01 0. -1.
         -5    1    4    4    0  501  0.12914440386E+03  0.21929662692E+02 -0.26996671809E+03  0.30009779811E+03  0.41800000000E+01 0. -1.
</event>
<event>
11    1  0.6625361E-009  0.1335674E+03  0.7561462E-02  0.1114962E+00
         22   -1    0    0    0    0  0.00000000000E+00  0.00000000000E+00  0.28787483123E+03  0.28787483123E+03  0.00000000000E+00 0.  1.
         22   -1    0    0    0    0 -0.00000000000E+00 -0.00000000000E+00 -0.58648263565E+03  0.58648263565E+03  0.00000000000E+00 0.  1.
         24    2    1    2    0    0 -0.30507683251E+02  0.31544587540E+02 -0.38078408046E+03  0.39143047031E+03  0.79344296710E+02 0.  0.
         25    2    1    2    0    0  0.57948172961E+02 -0.66985834567E+02 -0.16041496009E+03  0.22186698134E+03  0.12508759015E+03 0.  0.
        -24    2    1    2    0    0 -0.27440489710E+02  0.35441247027E+02  0.24259123613E+03  0.26106001523E+03  0.85397665298E+02 0.  0.
        -13    1    3    3    0    0  0.10293919677E+02  0.41701403681E+02 -0.12404742944E+03  0.13127351828E+03  0.00000000000E+00 0.  1.
         14    1    3    3    0    0 -0.40801602928E+02 -0.10156816141E+02 -0.25673665101E+03  0.26015695203E+03  0.00000000000E+00 0. -1.
         11    1    5    5    0    0 -0.45876817067E+02 -0.84772196856E+01  0.92616297219E+02  0.10370305737E+03  0.00000000000E+00 0. -1.
        -12    1    5    5    0    0  0.18436327357E+02  0.43918466713E+02  0.14997493891E+03  0.15735695785E+03  0.00000000000E+00 0.  1.
          5    1    4    4  501    0 -0.13132807345E+02  0.15080821648E+02  0.75870157215E+01  0.21793049761E+02  0.41800000000E+01 0. -1.
         -5    1    4    4    0  501  0.71080980307E+02 -0.82066656215E+02 -0.16800197581E+03  0.20007393158E+03  0.41800000000E+01 0. -1.
</event>
<event>
11    1  0.6625361E-009  0.1382520E+03  0.7561462E-02  0.1109526E+00
         22   -1    0    0    0    0  0.00000000000E+00  0.00000000000E+00  0.72070067571E+03  0.72070067571E+03  0.00000000000E+00 0. -1.
         22   -1    0    0    0    0 -0.00000000000E+00 -0.00000000000E+00 -0.12458041624E+03  0.12458041624E+03  0.00000000000E+00 0.  1.
         24    2    1    2    0    0 -0.37059574543E+02  0.72799885217E+01 -0.85102278456E+02  0.12259808815E+03  0.79758906222E+02 0.  0.
         25    2    1    2    0    0  0.80227214831E+02  0.10590946626E+02  0.41188601887E+03  0.43800263300E+03  0.12509052653E+03 0.  0.
        -24    2    1    2    0    0 -0.43167640289E+02 -0.17870935148E+02  0.26933651905E+03  0.28468037079E+03  0.79485454816E+02 0.  0.
        -11    1    3    3    0    0 -0.97887122395E+01 -0.51455222607E+01 -0.91323764135E+02  0.91990897280E+02  0.00000000000E+00 0.  1.
         12    1    3    3    0    0 -0.27270862303E+02  0.12425510782E+02  0.62214856786E+01  0.30607190871E+02  0.00000000000E+00 0. -1.
         13    1    5    5    0    0 -0.45717344517E+02  0.11123293309E+02  0.23501613549E+03  0.23967975965E+03  0.00000000000E+00 0. -1.
        -14    1    5    5    0    0  0.25497042282E+01 -0.28994228457E+02  0.34320383562E+02  0.45000611143E+02  0.00000000000E+00 0.  1.
          5    1    4    4  501    0  0.45636003670E+02 -0.42077378005E+02  0.32318081115E+03  0.32911466037E+03  0.41800000000E+01 0.  1.
         -5    1    4    4    0  501  0.34591211161E+02  0.52668324632E+02  0.88705207719E+02  0.10888797264E+03  0.41800000000E+01 0.  1.
</event>
<event>
11    1  0.6625361E-009  0.1653621E+03  0.7561462E-02  0.1082140E+00
         22   -1    0    0    0    0  0.00000000000E+00  0.00000000000E+00  0.62216158422E+02  0.62216158422E+02  0.00000000000E+00 0. -1.
         22   -1    0    0    0    0 -0.00000000000E+00 -0.00000000000E+00 -0.20553615482E+04  0.20553615482E+04  0.00000000000E+00 0.  1.
         24    2    1    2    0    0 -0.12753010669E+01 -0.11768833287E+02 -0.15292641640E+04  0.15315528579E+04  0.82856148638E+02 0.  0.
         25    2    1    2    0    0  0.43876007556E+00  0.11761040242E+03 -0.40431125052E+03  0.43925719876E+03  0.12508756972E+03 0.  0.
        -24    2    1    2    0    0  0.83654099131E+00 -0.10584156914E+03 -0.59569975271E+02  0.14676764999E+03  0.82395531262E+02 0.  0.
        -13    1    3    3    0    0 -0.61536409980E+01  0.32935184978E+02 -0.93020300957E+03  0.93080622726E+03  0.00000000000E+00 0.  1.
         14    1    3    3    0    0  0.48783399312E+01 -0.44704018265E+02 -0.59906115441E+03  0.60074663060E+03  0.00000000000E+00 0. -1.
         13    1    5    5    0    0  0.14227839211E+02 -0.54412240294E+02  0.12115090206E+02  0.57531719191E+02  0.00000000000E+00 0. -1.
        -14    1    5    5    0    0 -0.13391298220E+02 -0.51429328843E+02 -0.71685065477E+02  0.89235930800E+02  0.00000000000E+00 0.  1.
          5    1    4    4  501    0 -0.59712902517E+02  0.78779633254E+02 -0.25779973751E+03  0.27613409496E+03  0.41800000000E+01 0. -1.
         -5    1    4    4    0  501  0.60151662593E+02  0.38830769170E+02 -0.14651151301E+03  0.16312310379E+03  0.41800000000E+01 0. -1.
</event>
<event>
11    1  0.6625361E-009  0.1345493E+03  0.7561462E-02  0.1113802E+00
         22   -1    0    0    0    0  0.00000000000E+00  0.00000000000E+00  0.68504755269E+03  0.68504755269E+03  0.00000000000E+00 0.  1.
         22   -1    0    0    0    0 -0.00000000000E+00 -0.00000000000E+00 -0.28480688812E+03  0.28480688812E+03  0.00000000000E+00 0.  1.
         24    2    1    2    0    0  0.13019336527E+02 -0.38314076819E+02 -0.18416328150E+03  0.21796771633E+03  0.10934504790E+03 0.  0.
         25    2    1    2    0    0 -0.65764117166E+02  0.72003337101E+02 -0.65115183956E+00  0.15860946650E+03  0.12508852548E+03 0.  0.
        -24    2    1    2    0    0  0.52744780640E+02 -0.33689260283E+02  0.58505509791E+03  0.59327725798E+03  0.75970119759E+02 0.  0.
        -11    1    3    3    0    0  0.60173524740E+02 -0.12842591379E+02 -0.11547961065E+03  0.13084848378E+03  0.00000000000E+00 0.  1.
         12    1    3    3    0    0 -0.47154188213E+02 -0.25471485440E+02 -0.68683670856E+02  0.87119232543E+02  0.00000000000E+00 0. -1.
         13    1    5    5    0    0 -0.69939450360E+01 -0.77816723930E+01  0.97580805498E+01  0.14306985301E+02  0.00000000000E+00 0. -1.
        -14    1    5    5    0    0  0.59738725676E+02 -0.25907587890E+02  0.57529701736E+03  0.57897027267E+03  0.00000000000E+00 0.  1.
          5    1    4    4  501    0 -0.27514690512E+02  0.54347219786E+02 -0.60068712660E+02  0.85652794076E+02  0.41800000000E+01 0. -1.
         -5    1    4    4    0  501 -0.38249426654E+02  0.17656117315E+02  0.59417560820E+02  0.72956672428E+02  0.41800000000E+01 0. -1.
</event>
<event>
11    1  0.7599288E-009  0.1459352E+03  0.7561462E-02  0.1101106E+00
         22   -1    0    0    0    0  0.00000000000E+00  0.00000000000E+00  0.72744215089E+03  0.72744215089E+03  0.00000000000E+00 0.  1.
         22   -1    0    0    0    0 -0.00000000000E+00 -0.00000000000E+00 -0.23124527105E+03  0.23124527105E+03  0.00000000000E+00 0. -1.
         24    2    1    2    0    0  0.66579806993E+02 -0.14590709593E+02 -0.14720040296E+03  0.18069010826E+03  0.79593951307E+02 0.  0.
         25    2    1    2    0    0 -0.12436019711E+03  0.34853544826E+02  0.65681396709E+02  0.19141826884E+03  0.12508668818E+03 0.  0.
        -24    2    1    2    0    0  0.57780390114E+02 -0.20262835233E+02  0.57771588609E+03  0.58657904485E+03  0.81056615018E+02 0.  0.
        -11    1    3    3    0    0 -0.10434555701E+02 -0.23917793307E+02 -0.26362445921E+02  0.37093386800E+02  0.00000000000E+00 0.  1.
         12    1    3    3    0    0  0.77014362694E+02  0.93270837144E+01 -0.12083795704E+03  0.14359672146E+03  0.00000000000E+00 0. -1.
         13    1    5    5    0    0  0.41572544713E+01  0.10736742708E+02  0.93051659139E+01  0.14803598259E+02  0.00000000000E+00 0. -1.
        -14    1    5    5    0    0  0.53623135643E+02 -0.30999577941E+02  0.56841072018E+03  0.57177544659E+03  0.00000000000E+00 0.  1.
          5    1    4    4  501    0 -0.11180067335E+03  0.58863249820E+02  0.69583605571E+01  0.12661028364E+03  0.41800000000E+01 0. -1.
         -5    1    4    4    0  501 -0.12559523753E+02 -0.24009704994E+02  0.58723036152E+02  0.64807985200E+02  0.41800000000E+01 0. -1.
</event>
<event>
11    1  0.6625361E-009  0.3446508E+03  0.7561462E-02  0.9828855E-01
         22   -1    0    0    0    0  0.00000000000E+00  0.00000000000E+00  0.51165862354E+03  0.51165862354E+03  0.00000000000E+00 0.  1.
         22   -1    0    0    0    0 -0.00000000000E+00 -0.00000000000E+00 -0.92099193066E+03  0.92099193066E+03  0.00000000000E+00 0.  1.
        -24    2    1    2    0    0  0.18446489038E+03  0.23639168752E+03 -0.56590489789E+03  0.64514382252E+03  0.77806635705E+02 0.  0.
         25    2    1    2    0    0 -0.18104562167E+03 -0.36985463676E+03 -0.14000028706E+03  0.45256003364E+03  0.12506212141E+03 0.  0.
         24    2    1    2    0    0 -0.34192687149E+01  0.13346294924E+03  0.29657187784E+03  0.33494669804E+03  0.80064733737E+02 0.  0.
        -11    1    5    5    0    0 -0.26783720063E+02  0.12858682741E+03  0.25966411789E+03  0.29099380400E+03  0.00000000000E+00 0.  1.
         12    1    5    5    0    0  0.23364451348E+02  0.48761218272E+01  0.36907759949E+02  0.43952894049E+02  0.00000000000E+00 0. -1.
         13    1    3    3    0    0 -0.34256253459E+01  0.79509708241E+01 -0.47585431924E+02  0.48366581205E+02  0.00000000000E+00 0. -1.
        -14    1    3    3    0    0  0.18789051573E+03  0.22844071670E+03 -0.51831946597E+03  0.59677724131E+03  0.00000000000E+00 0.  1.
          5    1    4    4  501    0 -0.92875767493E+02 -0.31012832362E+03 -0.10722217101E+03  0.34105652267E+03  0.41800000000E+01 0.  1.
         -5    1    4    4    0  501 -0.88169854175E+02 -0.59726313141E+02 -0.32778116050E+02  0.11150351097E+03  0.41800000000E+01 0.  1.
</event>
<event>
11    1  0.6625361E-009  0.1486273E+03  0.7561462E-02  0.1098290E+00
         22   -1    0    0    0    0  0.00000000000E+00  0.00000000000E+00  0.15260784272E+03  0.15260784272E+03  0.00000000000E+00 0. -1.
         22   -1    0    0    0    0 -0.00000000000E+00 -0.00000000000E+00 -0.18777927701E+04  0.18777927701E+04  0.00000000000E+00 0.  1.
         24    2    1    2    0    0  0.82170420899E+02  0.18624147121E+02 -0.15757367719E+04  0.15800303496E+04  0.80316214847E+02 0.  0.
         25    2    1    2    0    0 -0.46747075100E+02 -0.21412153370E+02 -0.26827557649E+03  0.30043747356E+03  0.12508845366E+03 0.  0.
        -24    2    1    2    0    0 -0.35423345799E+02  0.27880062493E+01  0.11882742103E+03  0.14993278965E+03  0.84245468823E+02 0.  0.
        -13    1    3    3    0    0  0.74769160183E+02 -0.26439957924E+01 -0.14709370700E+04  0.14728385119E+04  0.00000000000E+00 0.  1.
         14    1    3    3    0    0  0.74012607162E+01  0.21268142914E+02 -0.10479970190E+03  0.10719183775E+03  0.00000000000E+00 0. -1.
         13    1    5    5    0    0 -0.48190905484E+02 -0.59889755772E+01  0.12434103985E+03  0.13348754770E+03  0.00000000000E+00 0. -1.
        -14    1    5    5    0    0  0.12767559685E+02  0.87769818264E+01 -0.55136188204E+01  0.16445241950E+02  0.00000000000E+00 0.  1.
          5    1    4    4  501    0  0.43016883084E+02 -0.11874730206E+02 -0.84887353193E+02  0.95993731982E+02  0.41800000000E+01 0.  1.
         -5    1    4    4    0  501 -0.89763958183E+02 -0.95374231642E+01 -0.18338822329E+03  0.20444374158E+03  0.41800000000E+01 0.  1.
</event>
<event>
11    1  0.6625361E-009  0.1417034E+03  0.7561462E-02  0.1105671E+00
         22   -1    0    0    0    0  0.00000000000E+00  0.00000000000E+00  0.30251383062E+04  0.30251383062E+04  0.00000000000E+00 0.  1.
         22   -1    0    0    0    0 -0.00000000000E+00 -0.00000000000E+00 -0.11284732576E+04  0.11284732576E+04  0.00000000000E+00 0.  1.
         24    2    1    2    0    0  0.16829191763E+02  0.30762736457E+02 -0.10920345911E+04  0.10952729994E+04  0.76510309571E+02 0.  0.
         25    2    1    2    0    0  0.43542517221E+02 -0.58943931296E+02  0.12126567407E+03  0.18900753812E+03  0.12509255740E+03 0.  0.
        -24    2    1    2    0    0 -0.60371708984E+02  0.28181194839E+02  0.28674339657E+04  0.28693310263E+04  0.80274951419E+02 0.  0.
        -11    1    3    3    0    0  0.38610996415E+02  0.38635947928E+02 -0.92864277937E+03  0.93024779344E+03  0.00000000000E+00 0.  1.
         12    1    3    3    0    0 -0.21781804652E+02 -0.78732114711E+01 -0.16339181173E+03  0.16502520599E+03  0.00000000000E+00 0. -1.
         11    1    5    5    0    0  0.16713470776E+02  0.99172053770E+00  0.96060705262E+03  0.96075295116E+03  0.00000000000E+00 0. -1.
        -12    1    5    5    0    0 -0.77085179760E+02  0.27189474301E+02  0.19068269131E+04  0.19085780751E+04  0.00000000000E+00 0.  1.
          5    1    4    4  501    0 -0.41709276783E+02 -0.10082002291E+02  0.57210621304E+02  0.71636848968E+02  0.41800000000E+01 0.  1.
         -5    1    4    4    0  501  0.85251794004E+02 -0.48861929005E+02  0.64055052764E+02  0.11737068915E+03  0.41800000000E+01 0.  1.
</event>
<event>
11    1  0.6625361E-009  0.1344054E+03  0.7561462E-02  0.1113972E+00
         22   -1    0    0    0    0  0.00000000000E+00  0.00000000000E+00  0.10155750400E+03  0.10155750400E+03  0.00000000000E+00 0. -1.
         22   -1    0    0    0    0 -0.00000000000E+00 -0.00000000000E+00 -0.15689697581E+04  0.15689697581E+04  0.00000000000E+00 0.  1.
         24    2    1    2    0    0  0.49818072027E+01 -0.29285372869E+02 -0.13486828181E+04  0.13514765722E+04  0.81615744535E+02 0.  0.
         25    2    1    2    0    0 -0.29453384733E+02  0.66606438025E+02 -0.15402267542E+03  0.21136235748E+03  0.12508853727E+03 0.  0.
        -24    2    1    2    0    0  0.24471577530E+02 -0.37321065156E+02  0.35293239464E+02  0.10768833242E+03  0.91429996046E+02 0.  0.
        -13    1    3    3    0    0 -0.46832023876E+01  0.11131151975E+02 -0.10329671846E+04  0.10330377725E+04  0.00000000000E+00 0.  1.
         14    1    3    3    0    0  0.96650095902E+01 -0.40416524844E+02 -0.31571563348E+03  0.31843879963E+03  0.00000000000E+00 0. -1.
         13    1    5    5    0    0  0.33321483338E+02 -0.62436436375E+02  0.10958556963E+02  0.71615080883E+02  0.00000000000E+00 0. -1.
        -14    1    5    5    0    0 -0.88499058079E+01  0.25115371219E+02  0.24334682501E+02  0.36073251541E+02  0.00000000000E+00 0.  1.
          5    1    4    4  501    0 -0.47846631806E+02 -0.14687031787E+02 -0.21236827645E+02  0.54529664645E+02  0.41800000000E+01 0.  1.
         -5    1    4    4    0  501  0.18393247073E+02  0.81293469812E+02 -0.13278584778E+03  0.15683269283E+03  0.41800000000E+01 0.  1.
</event>
<event>
11    1  0.6625361E-009  0.1360840E+03  0.7561462E-02  0.1112012E+00
         22   -1    0    0    0    0  0.00000000000E+00  0.00000000000E+00  0.24199570220E+03  0.24199570220E+03  0.00000000000E+00 0. -1.
         22   -1    0    0    0    0 -0.00000000000E+00 -0.00000000000E+00 -0.25787915145E+03  0.25787915145E+03  0.00000000000E+00 0.  1.
         24    2    1    2    0    0 -0.61835933034E+02  0.44322353595E+01 -0.17624149898E+03  0.20353418803E+03  0.80757491353E+02 0.  0.
         25    2    1    2    0    0  0.65225027889E+01  0.16318700568E+02  0.26289415478E+02  0.12902497740E+03  0.12508984130E+03 0.  0.
        -24    2    1    2    0    0  0.55313430246E+02 -0.20750935927E+02  0.13406863426E+03  0.16731568822E+03  0.80808192177E+02 0.  0.
        -13    1    3    3    0    0 -0.21219235295E+02 -0.34871228522E+02 -0.10459401680E+03  0.11227718769E+03  0.00000000000E+00 0.  1.
         14    1    3    3    0    0 -0.40616697740E+02  0.39303463881E+02 -0.71647482182E+02  0.91257000342E+02  0.00000000000E+00 0. -1.
         11    1    5    5    0    0  0.55711938501E+02 -0.17643584998E+02  0.14479392034E+03  0.15614222859E+03  0.00000000000E+00 0. -1.
        -12    1    5    5    0    0 -0.39850825565E+00 -0.31073509296E+01 -0.10725286074E+02  0.11173459625E+02  0.00000000000E+00 0.  1.
          5    1    4    4  501    0 -0.32911715548E+02 -0.23286422205E+02 -0.29356191776E+02  0.50046946710E+02  0.41800000000E+01 0. -1.
         -5    1    4    4    0  501  0.39434218337E+02  0.39605122773E+02  0.55645607254E+02  0.78978030695E+02  0.41800000000E+01 0. -1.
</event>
<event>
11    1  0.7541566E-009  0.1956636E+03  0.7561462E-02  0.1057633E+00
         22   -1    0    0    0    0  0.00000000000E+00  0.00000000000E+00  0.90881109938E+03  0.90881109938E+03  0.00000000000E+00 0. -1.
         22   -1    0    0    0    0 -0.00000000000E+00 -0.00000000000E+00 -0.15540930391E+04  0.15540930391E+04  0.00000000000E+00 0.  1.
         24    2    1    2    0    0 -0.81842996131E+02 -0.39687383767E+01 -0.47444869857E+03  0.48840561490E+03  0.82002745008E+02 0.  0.
         25    2    1    2    0    0  0.12417697641E+03  0.14813549008E+03 -0.10521220697E+04  0.10770197818E+04  0.12508683342E+03 0.  0.
        -24    2    1    2    0    0 -0.42333980279E+02 -0.14416675170E+03  0.88128882855E+03  0.89747874180E+03  0.78878859513E+02 0.  0.
        -13    1    3    3    0    0 -0.36906681862E+02 -0.16865788811E+02 -0.38808172805E+03  0.39019736755E+03  0.00000000000E+00 0.  1.
         14    1    3    3    0    0 -0.44936314268E+02  0.12897050435E+02 -0.86366970521E+02  0.98208247347E+02  0.00000000000E+00 0. -1.
         11    1    5    5    0    0 -0.55786208357E+02 -0.14165563534E+03  0.84674780349E+03  0.86032567251E+03  0.00000000000E+00 0. -1.
        -12    1    5    5    0    0  0.13452228077E+02 -0.25111163648E+01  0.34541025062E+02  0.37153069294E+02  0.00000000000E+00 0.  1.
          5    1    4    4  501    0  0.19701834541E+02 -0.19279168758E+02 -0.71781649351E+02  0.77006014153E+02  0.41800000000E+01 0. -1.
         -5    1    4    4    0  501  0.10447514187E+03  0.16741465884E+03 -0.98034042036E+03  0.10000137676E+04  0.41800000000E+01 0. -1.
</event>
<event>
11    1  0.6625361E-009  0.2360397E+03  0.7561462E-02  0.1031611E+00
         22   -1    0    0    0    0  0.00000000000E+00  0.00000000000E+00  0.57075369972E+03  0.57075369972E+03  0.00000000000E+00 0. -1.
         22   -1    0    0    0    0 -0.00000000000E+00 -0.00000000000E+00 -0.15397796118E+04  0.15397796118E+04  0.00000000000E+00 0.  1.
        -24    2    1    2    0    0  0.11525815903E+03 -0.80009537413E+02 -0.10359883177E+04  0.10485229978E+04  0.80266513209E+02 0.  0.
         25    2    1    2    0    0 -0.43405390240E+02  0.26517747115E+03 -0.42931819280E+03  0.52169449222E+03  0.12509162017E+03 0.  0.
         24    2    1    2    0    0 -0.71852768790E+02 -0.18516793374E+03  0.49628059842E+03  0.54031582152E+03  0.78719568984E+02 0.  0.
        -11    1    5    5    0    0  0.34520284971E+01 -0.61689955130E+01 -0.33984411991E+00  0.70773229692E+01  0.00000000000E+00 0.  1.
         12    1    5    5    0    0 -0.75304797287E+02 -0.17899893823E+03  0.49662044254E+03  0.53323849855E+03  0.00000000000E+00 0. -1.
         11    1    3    3    0    0  0.24192408359E+02 -0.61930155495E+02 -0.34755861826E+03  0.35386100366E+03  0.00000000000E+00 0. -1.
        -12    1    3    3    0    0  0.91065750671E+02 -0.18079381918E+02 -0.68842969942E+03  0.69466199409E+03  0.00000000000E+00 0.  1.
          5    1    4    4  501    0 -0.58745742804E+02  0.26413496651E+03 -0.42708355895E+03  0.50560476814E+03  0.41800000000E+01 0. -1.
         -5    1    4    4    0  501  0.15340352564E+02  0.10425046387E+01 -0.22346338435E+01  0.16089724084E+02  0.41800000000E+01 0. -1.
</event>
<event>
11    1  0.6625361E-009  0.1459100E+03  0.7561462E-02  0.1101133E+00
         22   -1    0    0    0    0  0.00000000000E+00  0.00000000000E+00  0.54503600003E+03  0.54503600003E+03  0.00000000000E+00 0. -1.
         22   -1    0    0    0    0 -0.00000000000E+00 -0.00000000000E+00 -0.87732491925E+03  0.87732491925E+03  0.00000000000E+00 0.  1.
         24    2    1    2    0    0  0.50379495993E+02 -0.56228780482E+02 -0.64190417391E+03  0.65134330155E+03  0.80668200784E+02 0.  0.
         25    2    1    2    0    0 -0.67907204836E+02  0.36358613658E+02 -0.20348683639E+03  0.25097521730E+03  0.12509328464E+03 0.  0.
        -24    2    1    2    0    0  0.17527708844E+02  0.19870166824E+02  0.51310209108E+03  0.52004240043E+03  0.80425731386E+02 0.  0.
        -13    1    3    3    0    0  0.39980891331E+02 -0.59711092354E+02 -0.63340721233E+03  0.63747045646E+03  0.00000000000E+00 0.  1.
         14    1    3    3    0    0  0.10398604662E+02  0.34823118724E+01 -0.84969615806E+01  0.13872845093E+02  0.00000000000E+00 0. -1.
         13    1    5    5    0    0  0.25061294099E+02  0.45503389311E+02  0.41942468252E+03  0.42262949638E+03  0.00000000000E+00 0. -1.
        -14    1    5    5    0    0 -0.75335852558E+01 -0.25633222487E+02  0.93677408561E+02  0.97412904056E+02  0.00000000000E+00 0.  1.
          5    1    4    4  501    0 -0.59916465040E+02 -0.33570388618E+02 -0.60810810433E+02  0.91827995951E+02  0.41800000000E+01 0. -1.
         -5    1    4    4    0  501 -0.79907397963E+01  0.69929002276E+02 -0.14267602596E+03  0.15914722135E+03  0.41800000000E+01 0. -1.
</event>
<event>
11    1  0.6625361E-009  0.1884224E+03  0.7561462E-02  0.1063027E+00
         22   -1    0    0    0    0  0.00000000000E+00  0.00000000000E+00  0.90282776058E+03  0.90282776058E+03  0.00000000000E+00 0. -1.
         22   -1    0    0    0    0 -0.00000000000E+00 -0.00000000000E+00 -0.13116079139E+04  0.13116079139E+04  0.00000000000E+00 0.  1.
         24    2    1    2    0    0 -0.61484672846E+01 -0.14126806265E+03 -0.12756145992E+04  0.12858016209E+04  0.78094388594E+02 0.  0.
         25    2    1    2    0    0 -0.64532723925E+02  0.11266211930E+03  0.29375860192E+03  0.34467235782E+03  0.12509073691E+03 0.  0.
        -24    2    1    2    0    0  0.70681191209E+02  0.28605943349E+02  0.57307584394E+03  0.58396169574E+03  0.82348092864E+02 0.  0.
        -11    1    3    3    0    0 -0.92707268704E+01 -0.14905300209E+03 -0.11134852913E+04  0.11234554899E+04  0.00000000000E+00 0.  1.
         12    1    3    3    0    0  0.31222595859E+01  0.77849394385E+01 -0.16212930787E+03  0.16234613102E+03  0.00000000000E+00 0. -1.
         13    1    5    5    0    0  0.53099527717E+02 -0.58206353064E+01  0.48295451157E+03  0.48589968089E+03  0.00000000000E+00 0. -1.
        -14    1    5    5    0    0  0.17581663493E+02  0.34426578655E+02  0.90121332367E+02  0.98062014851E+02  0.00000000000E+00 0.  1.
          5    1    4    4  501    0 -0.10206751756E+03  0.80443000104E+02  0.22496197170E+03  0.25983497747E+03  0.41800000000E+01 0. -1.
         -5    1    4    4    0  501  0.37534793631E+02  0.32219119200E+02  0.68796630221E+02  0.84837380350E+02  0.41800000000E+01 0. -1.
</event>
<event>
11    1  0.2253146E-008  0.1559759E+03  0.7561462E-02  0.1090924E+00
         22   -1    0    0    0    0  0.00000000000E+00  0.00000000000E+00  0.80283650849E+03  0.80283650849E+03  0.00000000000E+00 0.  1.
         22   -1    0    0    0    0 -0.00000000000E+00 -0.00000000000E+00 -0.30927347746E+03  0.30927347746E+03  0.00000000000E+00 0. -1.
         24    2    1    2    0    0  0.34768166255E+02 -0.40427336458E+02 -0.20443045031E+03  0.23569106525E+03  0.10447619013E+03 0.  0.
         25    2    1    2    0    0 -0.18121592886E+02  0.13001343840E+03  0.14263579200E+02  0.18188479470E+03  0.12508694000E+03 0.  0.
        -24    2    1    2    0    0 -0.16646573368E+02 -0.89586101942E+02  0.68372990214E+03  0.69453412600E+03  0.81168312974E+02 0.  0.
        -11    1    3    3    0    0  0.34560518779E+01  0.33169985788E+02 -0.90832230131E+02  0.96760974997E+02  0.00000000000E+00 0.  1.
         12    1    3    3    0    0  0.31312114377E+02 -0.73597322246E+02 -0.11359822018E+03  0.13893009025E+03  0.00000000000E+00 0. -1.
         13    1    5    5    0    0 -0.24917526294E+01 -0.31357646401E+01 -0.10765234101E+01  0.41473791359E+01  0.00000000000E+00 0. -1.
        -14    1    5    5    0    0 -0.14154820739E+02 -0.86450337302E+02  0.68480642555E+03  0.69038674686E+03  0.00000000000E+00 0.  1.
          5    1    4    4  501    0 -0.30398606989E+02  0.10983109141E+03  0.61017663369E+02  0.12933511353E+03  0.41800000000E+01 0.  1.
         -5    1    4    4    0  501  0.12277014103E+02  0.20182346987E+02 -0.46754084169E+02  0.52549681175E+02  0.41800000000E+01 0.  1.
</event>
<event>
11    1  0.6625361E-009  0.1951691E+03  0.7561462E-02  0.1057993E+00
         22   -1    0    0    0    0  0.00000000000E+00  0.00000000000E+00  0.18909324814E+04  0.18909324814E+04  0.00000000000E+00 0.  1.
         22   -1    0    0    0    0 -0.00000000000E+00 -0.00000000000E+00 -0.80574288532E+03  0.80574288532E+03  0.00000000000E+00 0. -1.
         24    2    1    2    0    0 -0.57265056208E+00 -0.45908346750E+02 -0.74351769150E+03  0.74920745665E+03  0.79908393147E+02 0.  0.
         25    2    1    2    0    0 -0.13577888426E+03 -0.19536644272E+02  0.10155043881E+03  0.21162664774E+03  0.12512298163E+03 0.  0.
        -24    2    1    2    0    0  0.13635153482E+03  0.65444991022E+02  0.17271568487E+04  0.17358412623E+04  0.84848805706E+02 0.  0.
        -11    1    3    3    0    0 -0.35820644856E+02 -0.30097205809E+02 -0.26216744184E+03  0.26630945901E+03  0.00000000000E+00 0.  1.
         12    1    3    3    0    0  0.35247994294E+02 -0.15811140941E+02 -0.48135024966E+03  0.48289799764E+03  0.00000000000E+00 0. -1.
         11    1    5    5    0    0  0.39171835151E+01  0.27638130790E+02  0.54022116435E+03  0.54094187951E+03  0.00000000000E+00 0. -1.
        -12    1    5    5    0    0  0.13243435131E+03  0.37806860232E+02  0.11869356844E+04  0.11948993828E+04  0.00000000000E+00 0.  1.
          5    1    4    4  501    0 -0.70957782958E+02 -0.29575801971E+02 -0.14418501098E+02  0.78326882987E+02  0.41800000000E+01 0. -1.
         -5    1    4    4    0  501 -0.64821101302E+02  0.10039157699E+02  0.11596893990E+03  0.13329976476E+03  0.41800000000E+01 0. -1.
</event>
<event>
11    1  0.6625361E-009  0.1443153E+03  0.7561462E-02  0.1102833E+00
         22   -1    0    0    0    0  0.00000000000E+00  0.00000000000E+00  0.14562488183E+04  0.14562488183E+04  0.00000000000E+00 0. -1.
         22   -1    0    0    0    0 -0.00000000000E+00 -0.00000000000E+00 -0.37262049026E+03  0.37262049026E+03  0.00000000000E+00 0.  1.
        -24    2    1    2    0    0 -0.11023736161E+02 -0.71396889797E+02 -0.33389835991E+03  0.35055858741E+03  0.78639492767E+02 0.  0.
         25    2    1    2    0    0  0.56566548150E+02  0.57855427437E+02  0.16518132175E+03  0.22242802505E+03  0.12506931046E+03 0.  0.
         24    2    1    2    0    0 -0.45542811988E+02  0.13541462361E+02  0.12523453662E+04  0.12558826961E+04  0.81332104379E+02 0.  0.
        -11    1    5    5    0    0  0.11531930967E+01 -0.43936665604E+00  0.91819108574E+03  0.91819191504E+03  0.00000000000E+00 0.  1.
         12    1    5    5    0    0 -0.46696005085E+02  0.13980829017E+02  0.33415428043E+03  0.33769078105E+03  0.00000000000E+00 0. -1.
         13    1    3    3    0    0 -0.95511911683E+00 -0.34187406652E+01  0.42275303474E+01  0.55201497354E+01  0.00000000000E+00 0. -1.
        -14    1    3    3    0    0 -0.10068617044E+02 -0.67978149132E+02 -0.33812589026E+03  0.34503843767E+03  0.00000000000E+00 0.  1.
          5    1    4    4  501    0  0.80418787228E+02 -0.36347022344E+01  0.10974860294E+03  0.13617129157E+03  0.41800000000E+01 0. -1.
         -5    1    4    4    0  501 -0.23852239079E+02  0.61490129671E+02  0.55432718806E+02  0.86256733477E+02  0.41800000000E+01 0. -1.
</event>
<event>
11    1  0.6625361E-009  0.1758150E+03  0.7561462E-02  0.1073079E+00
         22   -1    0    0    0    0  0.00000000000E+00  0.00000000000E+00  0.44004329545E+03  0.44004329545E+03  0.00000000000E+00 0.  1.
         22   -1    0    0    0    0 -0.00000000000E+00 -0.00000000000E+00 -0.20709514786E+03  0.20709514786E+03  0.00000000000E+00 0.  1.
         24    2    1    2    0    0  0.40337976533E+02 -0.10587130483E+03 -0.97379491616E+02  0.16954507667E+03  0.80167837044E+02 0.  0.
         25    2    1    2    0    0 -0.81205993879E+02  0.16941893784E+03  0.16812212072E+03  0.28144416576E+03  0.12509428854E+03 0.  0.
        -24    2    1    2    0    0  0.40868017346E+02 -0.63547633003E+02  0.16220551848E+03  0.19614920089E+03  0.80345393646E+02 0.  0.
        -11    1    3    3    0    0  0.67339964360E+01 -0.10173319369E+03 -0.87283664225E+02  0.13421411046E+03  0.00000000000E+00 0.  1.
         12    1    3    3    0    0  0.33603980097E+02 -0.41381111420E+01 -0.10095827391E+02  0.35330966204E+02  0.00000000000E+00 0. -1.
         13    1    5    5    0    0  0.42942618788E+02 -0.43574679231E+02  0.41833684989E+02  0.74113955355E+02  0.00000000000E+00 0. -1.
        -14    1    5    5    0    0 -0.20746014423E+01 -0.19972953772E+02  0.12037183349E+03  0.12203524553E+03  0.00000000000E+00 0.  1.
          5    1    4    4  501    0 -0.10863162991E+03  0.11139688093E+03  0.14606433275E+03  0.21345340897E+03  0.41800000000E+01 0. -1.
         -5    1    4    4    0  501  0.27425636028E+02  0.58022056904E+02  0.22057787969E+02  0.67990756791E+02  0.41800000000E+01 0. -1.
</event>
<event>
11    1  0.6625361E-009  0.1744027E+03  0.7561462E-02  0.1074263E+00
         22   -1    0    0    0    0  0.00000000000E+00  0.00000000000E+00  0.20644545622E+04  0.20644545622E+04  0.00000000000E+00 0. -1.
         22   -1    0    0    0    0 -0.00000000000E+00 -0.00000000000E+00 -0.85738526325E+02  0.85738526325E+02  0.00000000000E+00 0. -1.
        -24    2    1    2    0    0  0.47158460773E+01  0.11675796260E+03  0.70680865750E+02  0.17602788420E+03  0.11106471176E+03 0.  0.
         25    2    1    2    0    0 -0.12545321383E+03 -0.11583452618E+03  0.34689639949E+03  0.40637395778E+03  0.12508611138E+03 0.  0.
         24    2    1    2    0    0  0.12073736775E+03 -0.92343641661E+00  0.15611387707E+04  0.15677912466E+04  0.78973203542E+02 0.  0.
        -13    1    5    5    0    0  0.77762746525E+02  0.48688247267E+01  0.52547199199E+03  0.53121705975E+03  0.00000000000E+00 0.  1.
         14    1    5    5    0    0  0.42974621230E+02 -0.57922611433E+01  0.10356667787E+04  0.10365741868E+04  0.00000000000E+00 0. -1.
         11    1    3    3    0    0 -0.26304127624E+02  0.12138080310E+03  0.36089234502E+02  0.12933537543E+03  0.00000000000E+00 0. -1.
        -12    1    3    3    0    0  0.31019973702E+02 -0.46228404986E+01  0.34591631248E+02  0.46692508769E+02  0.00000000000E+00 0.  1.
          5    1    4    4  501    0 -0.67463319043E+01 -0.22913241487E+02 -0.38760920993E+01  0.24556590146E+02  0.41800000000E+01 0. -1.
         -5    1    4    4    0  501 -0.11870688193E+03 -0.92921284697E+02  0.35077249159E+03  0.38181736763E+03  0.41800000000E+01 0. -1.
</event>
<event>
11    1  0.6625361E-009  0.1321826E+03  0.7561462E-02  0.1116616E+00
         22   -1    0    0    0    0  0.00000000000E+00  0.00000000000E+00  0.51516734486E+03  0.51516734486E+03  0.00000000000E+00 0.  1.
         22   -1    0    0    0    0 -0.00000000000E+00 -0.00000000000E+00 -0.92948212601E+02  0.92948212601E+02  0.00000000000E+00 0.  1.
        -24    2    1    2    0    0 -0.49334550014E+01  0.15515626467E+02 -0.40423779504E+02  0.92247531581E+02  0.81304683078E+02 0.  0.
         25    2    1    2    0    0 -0.10406468797E+02 -0.48473772671E+02  0.32874852671E+03  0.35521720460E+03  0.12508264227E+03 0.  0.
         24    2    1    2    0    0  0.15339923798E+02  0.32958146203E+02  0.13389438505E+03  0.16065082128E+03  0.80990291805E+02 0.  0.
        -11    1    5    5    0    0  0.45296003081E+01 -0.59427432354E+01  0.11641500120E+03  0.11665455834E+03  0.00000000000E+00 0.  1.
         12    1    5    5    0    0  0.10810323490E+02  0.38900889439E+02  0.17479383846E+02  0.43996262941E+02  0.00000000000E+00 0. -1.
         11    1    3    3    0    0 -0.32343145218E+02  0.25352968089E+02  0.15916914143E+01  0.41126457604E+02  0.00000000000E+00 0. -1.
        -12    1    3    3    0    0  0.27409690217E+02 -0.98373416219E+01 -0.42015470919E+02  0.51121073976E+02  0.00000000000E+00 0.  1.
          5    1    4    4  501    0  0.15139810922E+02 -0.31746842010E+02  0.32164474036E+03  0.32358907159E+03  0.41800000000E+01 0. -1.
         -5    1    4    4    0  501 -0.25546279719E+02 -0.16726930661E+02  0.71037863485E+01  0.31628133004E+02  0.41800000000E+01 0. -1.
</event>
<event>
11    1  0.6625361E-009  0.1292213E+03  0.7561462E-02  0.1120229E+00
         22   -1    0    0    0    0  0.00000000000E+00  0.00000000000E+00  0.17684645923E+03  0.17684645923E+03  0.00000000000E+00 0. -1.
         22   -1    0    0    0    0 -0.00000000000E+00 -0.00000000000E+00 -0.24087776827E+04  0.24087776827E+04  0.00000000000E+00 0.  1.
         24    2    1    2    0    0 -0.20037591408E+02  0.23720440478E+02 -0.21991948105E+04  0.22011635763E+04  0.87744575549E+02 0.  0.
         25    2    1    2    0    0  0.55101281040E+02 -0.43022691841E+02 -0.16858738457E+03  0.22126247199E+03  0.12509305372E+03 0.  0.
        -24    2    1    2    0    0 -0.35063689632E+02  0.19302251363E+02  0.13585097165E+03  0.16319809364E+03  0.81093107174E+02 0.  0.
        -11    1    3    3    0    0  0.23066204902E+02  0.19402201503E+02 -0.16457492632E+04  0.16460252527E+04  0.00000000000E+00 0.  1.
         12    1    3    3    0    0 -0.43103796310E+02  0.43182389750E+01 -0.55344554732E+03  0.55513832356E+03  0.00000000000E+00 0. -1.
         13    1    5    5    0    0 -0.43891201544E+02  0.45022527481E+02  0.10133571684E+03  0.11925767506E+03  0.00000000000E+00 0. -1.
        -14    1    5    5    0    0  0.88275119122E+01 -0.25720276118E+02  0.34515254811E+02  0.43940418579E+02  0.00000000000E+00 0.  1.
          5    1    4    4  501    0  0.88052411361E+02  0.98212515174E+00 -0.10235860551E+03  0.13508866806E+03  0.41800000000E+01 0. -1.
         -5    1    4    4    0  501 -0.32951130321E+02 -0.44004816993E+02 -0.66228779063E+02  0.86173803933E+02  0.41800000000E+01 0. -1.
</event>
<event>
11    1  0.6625361E-009  0.2457625E+03  0.7561462E-02  0.1026181E+00
         22   -1    0    0    0    0  0.00000000000E+00  0.00000000000E+00  0.29936027651E+03  0.29936027651E+03  0.00000000000E+00 0. -1.
         22   -1    0    0    0    0 -0.00000000000E+00 -0.00000000000E+00 -0.80875844570E+03  0.80875844570E+03  0.00000000000E+00 0.  1.
         24    2    1    2    0    0  0.54881379235E+02  0.20781946871E+03 -0.61715855973E+03  0.65844037270E+03  0.80362548424E+02 0.  0.
         25    2    1    2    0    0 -0.64141761536E+02 -0.18734149455E+03 -0.77518042941E+02  0.24671627202E+03  0.12509544655E+03 0.  0.
        -24    2    1    2    0    0  0.92603823018E+01 -0.20477974163E+02  0.18527843349E+03  0.20296207749E+03  0.79752146530E+02 0.  0.
        -13    1    3    3    0    0  0.64937021089E+02  0.18334093207E+03 -0.46566728889E+03  0.50465506836E+03  0.00000000000E+00 0.  1.
         14    1    3    3    0    0 -0.10055641854E+02  0.24478536637E+02 -0.15149127084E+03  0.15378530434E+03  0.00000000000E+00 0. -1.
         11    1    5    5    0    0 -0.32166201365E+02 -0.11016942677E+02  0.12267231776E+03  0.12729703485E+03  0.00000000000E+00 0. -1.
        -12    1    5    5    0    0  0.41426583667E+02 -0.94610314857E+01  0.62606115721E+02  0.75665042634E+02  0.00000000000E+00 0.  1.
          5    1    4    4  501    0 -0.35343785664E+02 -0.13231830261E+03 -0.11072596267E+03  0.17616761223E+03  0.41800000000E+01 0. -1.
         -5    1    4    4    0  501 -0.28797975873E+02 -0.55023191937E+02  0.33207919728E+02  0.70548659788E+02  0.41800000000E+01 0. -1.
</event>
<event>
11    1  0.6625361E-009  0.1300175E+03  0.7561462E-02  0.1119247E+00
         22   -1    0    0    0    0  0.00000000000E+00  0.00000000000E+00  0.51464948737E+03  0.51464948737E+03  0.00000000000E+00 0. -1.
         22   -1    0    0    0    0 -0.00000000000E+00 -0.00000000000E+00 -0.42644204943E+03  0.42644204943E+03  0.00000000000E+00 0.  1.
        -24    2    1    2    0    0 -0.59187143356E+01  0.40602087356E+02 -0.28728525996E+03  0.30073469213E+03  0.78898503035E+02 0.  0.
         25    2    1    2    0    0 -0.18176475600E+02 -0.11292418613E+02 -0.97027280873E+02  0.15974646232E+03  0.12508691382E+03 0.  0.
         24    2    1    2    0    0  0.24095189936E+02 -0.29309668743E+02  0.47251997878E+03  0.48061038235E+03  0.79193272566E+02 0.  0.
        -13    1    5    5    0    0 -0.16702555102E+01  0.26387693274E+02  0.13998696347E+03  0.14246210040E+03  0.00000000000E+00 0.  1.
         14    1    5    5    0    0  0.25765445446E+02 -0.55697362016E+02  0.33253301531E+03  0.33814828195E+03  0.00000000000E+00 0. -1.
         11    1    3    3    0    0  0.62828546004E+01  0.16291187242E+01  0.33086032462E+01  0.72852690539E+01  0.00000000000E+00 0. -1.
        -12    1    3    3    0    0 -0.12201568936E+02  0.38972968632E+02 -0.29059386321E+03  0.29344942307E+03  0.00000000000E+00 0.  1.
          5    1    4    4  501    0 -0.38258663956E+02  0.16695998852E+02  0.13364631455E+02  0.44029166689E+02  0.41800000000E+01 0. -1.
         -5    1    4    4    0  501  0.20082188356E+02 -0.27988417466E+02 -0.11039191233E+03  0.11571729563E+03  0.41800000000E+01 0. -1.
</event>
<event>
11    1  0.6625361E-009  0.1481938E+03  0.7561462E-02  0.1098739E+00
         22   -1    0    0    0    0  0.00000000000E+00  0.00000000000E+00  0.93256550255E+03  0.93256550255E+03  0.00000000000E+00 0. -1.
         22   -1    0    0    0    0 -0.00000000000E+00 -0.00000000000E+00 -0.48828524141E+03  0.48828524141E+03  0.00000000000E+00 0. -1.
         24    2    1    2    0    0 -0.28852167331E+02  0.17468467201E+01 -0.38849886566E+03  0.39766935522E+03  0.79837637943E+02 0.  0.
         25    2    1    2    0    0  0.12876312729E+01  0.73240238782E+02 -0.34209262428E+02  0.14894270710E+03  0.12509142973E+03 0.  0.
        -24    2    1    2    0    0  0.27564536058E+02 -0.74987085503E+02  0.86698838923E+03  0.87423868164E+03  0.79003409871E+02 0.  0.
        -11    1    3    3    0    0  0.25219858298E+02 -0.13413281715E+02 -0.14373977439E+03  0.14655060601E+03  0.00000000000E+00 0.  1.
         12    1    3    3    0    0 -0.54072025629E+02  0.15160128435E+02 -0.24475909127E+03  0.25111874922E+03  0.00000000000E+00 0. -1.
         13    1    5    5    0    0  0.47908567962E+02 -0.31950585170E+02  0.62259547871E+03  0.62525290954E+03  0.00000000000E+00 0. -1.
        -14    1    5    5    0    0 -0.20344031904E+02 -0.43036500333E+02  0.24439291052E+03  0.24898577210E+03  0.00000000000E+00 0.  1.
          5    1    4    4  501    0 -0.46721077413E+02  0.70669575007E+01  0.19226081385E+02  0.51185110807E+02  0.41800000000E+01 0.  1.
         -5    1    4    4    0  501  0.48008708686E+02  0.66173281282E+02 -0.53435343813E+02  0.97757596297E+02  0.41800000000E+01 0.  1.
</event>
<event>
11    1  0.6625361E-009  0.1769886E+03  0.7561462E-02  0.1072105E+00
         22   -1    0    0    0    0  0.00000000000E+00  0.00000000000E+00  0.66162875012E+03  0.66162875012E+03  0.00000000000E+00 0. -1.
         22   -1    0    0    0    0 -0.00000000000E+00 -0.00000000000E+00 -0.35236012541E+03  0.35236012541E+03  0.00000000000E+00 0. -1.
         24    2    1    2    0    0 -0.11735845779E+03  0.35340157973E+02 -0.27607656065E+03  0.31217827168E+03  0.78835725314E+02 0.  0.
         25    2    1    2    0    0  0.14803087580E+03 -0.33005061335E+02  0.12382264381E+03  0.23234057210E+03  0.12509044751E+03 0.  0.
        -24    2    1    2    0    0 -0.30672418009E+02 -0.23350966380E+01  0.46152254155E+03  0.46947003176E+03  0.80329349924E+02 0.  0.
        -13    1    3    3    0    0 -0.61140076343E+02  0.20012525835E+02 -0.58565714558E+02  0.86997431268E+02  0.00000000000E+00 0.  1.
         14    1    3    3    0    0 -0.56218381451E+02  0.15327632137E+02 -0.21751084609E+03  0.22518084041E+03  0.00000000000E+00 0. -1.
         13    1    5    5    0    0 -0.53753845007E+02  0.25810411414E+01  0.39951988183E+03  0.40312811066E+03  0.00000000000E+00 0. -1.
        -14    1    5    5    0    0  0.23081426998E+02 -0.49161377794E+01  0.62002659717E+02  0.66341921097E+02  0.00000000000E+00 0.  1.
          5    1    4    4  501    0  0.85380478161E+01 -0.37146665100E+02  0.75356249822E+02  0.84550634390E+02  0.41800000000E+01 0. -1.
         -5    1    4    4    0  501  0.13949282799E+03  0.41416037649E+01  0.48466393989E+02  0.14778993771E+03  0.41800000000E+01 0. -1.
</event>
<event>
11    1  0.6625361E-009  0.1509148E+03  0.7561462E-02  0.1095948E+00
         22   -1    0    0    0    0  0.00000000000E+00  0.00000000000E+00  0.13047638331E+03  0.13047638331E+03  0.00000000000E+00 0. -1.
         22   -1    0    0    0    0 -0.00000000000E+00 -0.00000000000E+00 -0.14238784197E+04  0.14238784197E+04  0.00000000000E+00 0.  1.
        -24    2    1    2    0    0 -0.67181966343E+02  0.48856185030E+02 -0.10143944063E+04  0.10210438257E+04  0.81450224544E+02 0.  0.
         25    2    1    2    0    0  0.69523428915E+02 -0.58444995317E+02 -0.37640171845E+03  0.40690958969E+03  0.12509131019E+03 0.  0.
         24    2    1    2    0    0 -0.23414625715E+01  0.95888102870E+01  0.97394088360E+02  0.12640138761E+03  0.79964208317E+02 0.  0.
        -13    1    5    5    0    0 -0.10882366509E+02 -0.17029246709E+02 -0.45319512198E+01  0.20711342935E+02  0.00000000000E+00 0.  1.
         14    1    5    5    0    0  0.85409039372E+01  0.26618056996E+02  0.10192603958E+03  0.10569004467E+03  0.00000000000E+00 0. -1.
         13    1    3    3    0    0 -0.36138807693E+02  0.57304118182E+02 -0.88936205004E+03  0.89193869265E+03  0.00000000000E+00 0. -1.
        -14    1    3    3    0    0 -0.31043158650E+02 -0.84479331523E+01 -0.12503235629E+03  0.12910513310E+03  0.00000000000E+00 0.  1.
          5    1    4    4  501    0  0.16595913844E+02  0.37224842492E+02 -0.14938475973E+03  0.15490123335E+03  0.41800000000E+01 0. -1.
         -5    1    4    4    0  501  0.52927515071E+02 -0.95669837808E+02 -0.22701695872E+03  0.25200835634E+03  0.41800000000E+01 0. -1.
</event>
<event>
11    1  0.6625361E-009  0.1545726E+03  0.7561462E-02  0.1092296E+00
         22   -1    0    0    0    0  0.00000000000E+00  0.00000000000E+00  0.42266608963E+03  0.42266608963E+03  0.00000000000E+00 0.  1.
         22   -1    0    0    0    0 -0.00000000000E+00 -0.00000000000E+00 -0.57000081526E+03  0.57000081526E+03  0.00000000000E+00 0. -1.
         24    2    1    2    0    0  0.86572456791E+02 -0.11857916814E+02 -0.40731927714E+03  0.42404938823E+03  0.79205363846E+02 0.  0.
         25    2    1    2    0    0 -0.10341916022E+03  0.54070112968E+02 -0.99247647884E+02  0.19777319488E+03  0.12508013905E+03 0.  0.
        -24    2    1    2    0    0  0.16846703429E+02 -0.42212196154E+02  0.35923219939E+03  0.37084432179E+03  0.80075320788E+02 0.  0.
        -11    1    3    3    0    0  0.17457868710E+02  0.24802137396E+02 -0.51823849829E+02  0.60046936728E+02  0.00000000000E+00 0.  1.
         12    1    3    3    0    0  0.69114588081E+02 -0.36660054210E+02 -0.35549542731E+03  0.36400245150E+03  0.00000000000E+00 0. -1.
         11    1    5    5    0    0 -0.28995205995E+01  0.21918896034E+02  0.54549710787E+02  0.58860140758E+02  0.00000000000E+00 0. -1.
        -12    1    5    5    0    0  0.19746224028E+02 -0.64131092188E+02  0.30468248861E+03  0.31198418103E+03  0.00000000000E+00 0.  1.
          5    1    4    4  501    0  0.35281306075E+01  0.49614604655E+01  0.25308586107E+02  0.26364004367E+02  0.41800000000E+01 0.  1.
         -5    1    4    4    0  501 -0.10694729083E+03  0.49108652503E+02 -0.12455623399E+03  0.17140919051E+03  0.41800000000E+01 0.  1.
</event>
<event>
11    1  0.6625361E-009  0.2244884E+03  0.7561462E-02  0.1038442E+00
         22   -1    0    0    0    0  0.00000000000E+00  0.00000000000E+00  0.11055650423E+04  0.11055650423E+04  0.00000000000E+00 0.  1.
         22   -1    0    0    0    0 -0.00000000000E+00 -0.00000000000E+00 -0.81483340899E+03  0.81483340899E+03  0.00000000000E+00 0. -1.
         24    2    1    2    0    0  0.22846608738E+02 -0.59936688602E+00 -0.76771015144E+03  0.77224911712E+03  0.80420740513E+02 0.  0.
         25    2    1    2    0    0 -0.59278303861E+02 -0.18062778954E+03  0.41590338795E+03  0.47409648646E+03  0.12510609381E+03 0.  0.
        -24    2    1    2    0    0  0.36431695123E+02  0.18122715643E+03  0.64253839678E+03  0.67405284768E+03  0.85563423791E+02 0.  0.
        -11    1    3    3    0    0  0.10136616055E+02  0.24264923902E+02 -0.85155640428E+02  0.89123625452E+02  0.00000000000E+00 0.  1.
         12    1    3    3    0    0  0.12709992683E+02 -0.24864290788E+02 -0.68255451101E+03  0.68312549167E+03  0.00000000000E+00 0. -1.
         11    1    5    5    0    0 -0.20827871241E+02  0.70090206465E+02  0.31723698960E+03  0.32555451899E+03  0.00000000000E+00 0. -1.
        -12    1    5    5    0    0  0.57259566364E+02  0.11113694996E+03  0.32530140718E+03  0.34849832869E+03  0.00000000000E+00 0.  1.
          5    1    4    4  501    0 -0.54314480162E+01 -0.13751008975E+03  0.35926516073E+03  0.38474336060E+03  0.41800000000E+01 0. -1.
         -5    1    4    4    0  501 -0.53846855844E+02 -0.43117699790E+02  0.56638227218E+02  0.89353125865E+02  0.41800000000E+01 0. -1.
</event>
<event>
11    1  0.6625361E-009  0.1518860E+03  0.7561462E-02  0.1094967E+00
         22   -1    0    0    0    0  0.00000000000E+00  0.00000000000E+00  0.63581252206E+03  0.63581252206E+03  0.00000000000E+00 0.  1.
         22   -1    0    0    0    0 -0.00000000000E+00 -0.00000000000E+00 -0.98235458113E+02  0.98235458113E+02  0.00000000000E+00 0. -1.
         24    2    1    2    0    0  0.98663885430E+01  0.58842050213E+02  0.25891954182E+02  0.10277121213E+03  0.79572584822E+02 0.  0.
         25    2    1    2    0    0  0.76543101861E+02 -0.37969684500E+02  0.58244341456E+02  0.16229802622E+03  0.12509077752E+03 0.  0.
        -24    2    1    2    0    0 -0.86409490404E+02 -0.20872365713E+02  0.45344076831E+03  0.46897874182E+03  0.80188990732E+02 0.  0.
        -11    1    3    3    0    0 -0.18025808067E+02 -0.12921373126E+02  0.90707288558E+01  0.23961839702E+02  0.00000000000E+00 0.  1.
         12    1    3    3    0    0  0.27892196610E+02  0.71763423339E+02  0.16821225327E+02  0.78809372429E+02  0.00000000000E+00 0. -1.
         13    1    5    5    0    0 -0.70890335742E+01 -0.24060962695E+02  0.34917190187E+02  0.42992958649E+02  0.00000000000E+00 0. -1.
        -14    1    5    5    0    0 -0.79320456830E+02  0.31885969813E+01  0.41852357812E+03  0.42598578317E+03  0.00000000000E+00 0.  1.
          5    1    4    4  501    0  0.10656599795E+02 -0.39816269607E+02  0.82194184799E+02  0.92044852433E+02  0.41800000000E+01 0.  1.
         -5    1    4    4    0  501  0.65886502067E+02  0.18465851073E+01 -0.23949843343E+02  0.70253173788E+02  0.41800000000E+01 0.  1.
</event>
<event>
11    1  0.1043577E-008  0.1670625E+03  0.7561462E-02  0.1080617E+00
         22   -1    0    0    0    0  0.00000000000E+00  0.00000000000E+00  0.10430492375E+04  0.10430492375E+04  0.00000000000E+00 0.  1.
         22   -1    0    0    0    0 -0.00000000000E+00 -0.00000000000E+00 -0.26916751897E+03  0.26916751897E+03  0.00000000000E+00 0. -1.
         24    2    1    2    0    0  0.68215218161E+02  0.40921669918E+01 -0.11107570839E+03  0.15362969914E+03  0.81204739049E+02 0.  0.
         25    2    1    2    0    0 -0.60740111703E+02  0.10667378437E+03 -0.73719114405E+02  0.19013401114E+03  0.12509107451E+03 0.  0.
        -24    2    1    2    0    0 -0.74751064580E+01 -0.11076595136E+03  0.95867654134E+03  0.96845304621E+03  0.80719381862E+02 0.  0.
        -13    1    3    3    0    0  0.41098492666E+02  0.24819855785E+02 -0.12935368829E+02  0.49723587032E+02  0.00000000000E+00 0.  1.
         14    1    3    3    0    0  0.27116725495E+02 -0.20727688793E+02 -0.98140339558E+02  0.10390611211E+03  0.00000000000E+00 0. -1.
         11    1    5    5    0    0 -0.77839201635E+01 -0.28122576326E+02  0.68602468980E+02  0.74550435696E+02  0.00000000000E+00 0. -1.
        -12    1    5    5    0    0  0.30881370552E+00 -0.82643375033E+02  0.89007407236E+03  0.89390261052E+03  0.00000000000E+00 0.  1.
          5    1    4    4  501    0 -0.49198954840E+02  0.10098789543E+03  0.27811554495E+01  0.11244687371E+03  0.41800000000E+01 0. -1.
         -5    1    4    4    0  501 -0.11541156864E+02  0.56858889375E+01 -0.76500269855E+02  0.77687137433E+02  0.41800000000E+01 0. -1.
</event>
<event>
11    1  0.6625361E-009  0.1407531E+03  0.7561462E-02  0.1106720E+00
         22   -1    0    0    0    0  0.00000000000E+00  0.00000000000E+00  0.20988855961E+04  0.20988855961E+04  0.00000000000E+00 0.  1.
         22   -1    0    0    0    0 -0.00000000000E+00 -0.00000000000E+00 -0.12870231909E+03  0.12870231909E+03  0.00000000000E+00 0.  1.
         24    2    1    2    0    0  0.32470877931E+02 -0.47728501186E+02 -0.53671536954E+02  0.11048230984E+03  0.77416659510E+02 0.  0.
         25    2    1    2    0    0 -0.74156198888E+02  0.67677483869E+02  0.95587236657E+02  0.18671610545E+03  0.12508637242E+03 0.  0.
        -24    2    1    2    0    0  0.41685320957E+02 -0.19948982683E+02  0.19282675773E+04  0.19303894999E+04  0.77795524998E+02 0.  0.
        -11    1    3    3    0    0  0.46464506895E+02 -0.33814776523E+01 -0.12162875706E+02  0.48148939111E+02  0.00000000000E+00 0.  1.
         12    1    3    3    0    0 -0.13993628964E+02 -0.44347023534E+02 -0.41508661248E+02  0.62333370730E+02  0.00000000000E+00 0. -1.
         11    1    5    5    0    0 -0.17353982190E+02 -0.62423075322E+01  0.15608382752E+03  0.15716961639E+03  0.00000000000E+00 0. -1.
        -12    1    5    5    0    0  0.59039303147E+02 -0.13706675150E+02  0.17721837498E+04  0.17732198835E+04  0.00000000000E+00 0.  1.
          5    1    4    4  501    0 -0.40807674204E+02  0.79920828268E+02  0.57475716021E+01  0.90017287475E+02  0.41800000000E+01 0. -1.
         -5    1    4    4    0  501 -0.33348524684E+02 -0.12243344399E+02  0.89839665055E+02  0.96698817975E+02  0.41800000000E+01 0. -1.
</event>
<event>
11    1  0.6625361E-009  0.1700212E+03  0.7561462E-02  0.1078013E+00
         22   -1    0    0    0    0  0.00000000000E+00  0.00000000000E+00  0.10202470918E+04  0.10202470918E+04  0.00000000000E+00 0. -1.
         22   -1    0    0    0    0 -0.00000000000E+00 -0.00000000000E+00 -0.15251264550E+04  0.15251264550E+04  0.00000000000E+00 0. -1.
         24    2    1    2    0    0 -0.33512702039E+02  0.10876851992E+03 -0.14273985425E+04  0.14340239045E+04  0.77487207780E+02 0.  0.
         25    2    1    2    0    0  0.20600196669E+02 -0.16357578244E+03  0.24707073050E+02  0.20841634134E+03  0.12508208176E+03 0.  0.
        -24    2    1    2    0    0  0.12912505370E+02  0.54807262519E+02  0.89781210626E+03  0.90293330092E+03  0.77790738183E+02 0.  0.
        -13    1    3    3    0    0 -0.16862649426E+02  0.45565086460E+02 -0.24222708561E+03  0.24705158784E+03  0.00000000000E+00 0.  1.
         14    1    3    3    0    0 -0.16650052613E+02  0.63203433460E+02 -0.11851714569E+04  0.11869723166E+04  0.00000000000E+00 0. -1.
         11    1    5    5    0    0 -0.66474300868E+01  0.73007519053E+01  0.63873695276E+03  0.63881326233E+03  0.00000000000E+00 0. -1.
        -12    1    5    5    0    0  0.19559935456E+02  0.47506510613E+02  0.25907515350E+03  0.26412003859E+03  0.00000000000E+00 0.  1.
          5    1    4    4  501    0 -0.33787190177E+02 -0.20660309732E+02  0.37772726072E+02  0.54887829736E+02  0.41800000000E+01 0. -1.
         -5    1    4    4    0  501  0.54387386846E+02 -0.14291547271E+03 -0.13065653022E+02  0.15352851161E+03  0.41800000000E+01 0. -1.
</event>
<event>
11    1  0.6625361E-009  0.1375357E+03  0.7561462E-02  0.1110342E+00
         22   -1    0    0    0    0  0.00000000000E+00  0.00000000000E+00  0.47043210407E+03  0.47043210407E+03  0.00000000000E+00 0. -1.
         22   -1    0    0    0    0 -0.00000000000E+00 -0.00000000000E+00 -0.59978406477E+03  0.59978406477E+03  0.00000000000E+00 0.  1.
        -24    2    1    2    0    0 -0.41146944535E+02 -0.40880063513E+02 -0.49277964512E+03  0.50271249595E+03  0.80770194429E+02 0.  0.
         25    2    1    2    0    0  0.59763076026E+02  0.77150510592E+01 -0.47322702832E+02  0.14668894745E+03  0.12508821620E+03 0.  0.
         24    2    1    2    0    0 -0.18616131491E+02  0.33165012454E+02  0.41075038725E+03  0.42081472543E+03  0.83202608794E+02 0.  0.
        -13    1    5    5    0    0  0.27569968364E+02  0.30694837002E+02  0.13341498757E+03  0.13964897093E+03  0.00000000000E+00 0.  1.
         14    1    5    5    0    0 -0.46186099855E+02  0.24701754516E+01  0.27733539968E+03  0.28116575450E+03  0.00000000000E+00 0. -1.
         13    1    3    3    0    0 -0.62431276833E-01  0.22950893590E+02 -0.13883139081E+03  0.14071567961E+03  0.00000000000E+00 0. -1.
        -14    1    3    3    0    0 -0.41084513258E+02 -0.63830957103E+02 -0.35394825431E+03  0.36199681634E+03  0.00000000000E+00 0.  1.
          5    1    4    4  501    0  0.41370809728E+01  0.58202324879E+02 -0.40484338258E+02  0.71141268646E+02  0.41800000000E+01 0. -1.
         -5    1    4    4    0  501  0.55625995053E+02 -0.50487273820E+02 -0.68383645739E+01  0.75547678809E+02  0.41800000000E+01 0. -1.
</event>
<event>
11    1  0.6625361E-009  0.1786254E+03  0.7561462E-02  0.1070760E+00
         22   -1    0    0    0    0  0.00000000000E+00  0.00000000000E+00  0.29538491843E+04  0.29538491843E+04  0.00000000000E+00 0.  1.
         22   -1    0    0    0    0 -0.00000000000E+00 -0.00000000000E+00 -0.76045477559E+03  0.76045477559E+03  0.00000000000E+00 0.  1.
         24    2    1    2    0    0  0.12755179110E+03  0.34402340229E+01 -0.74014030625E+03  0.75531148285E+03  0.80040418329E+02 0.  0.
         25    2    1    2    0    0 -0.12012493551E+03 -0.45463986553E+01  0.61921846417E+03  0.64306321843E+03  0.12509247245E+03 0.  0.
        -24    2    1    2    0    0 -0.74268555891E+01  0.11061646324E+01  0.23143162508E+04  0.23159292586E+04  0.86094369208E+02 0.  0.
        -11    1    3    3    0    0  0.12449493200E+03  0.24974657133E+02 -0.58256502039E+03  0.59624216940E+03  0.00000000000E+00 0.  1.
         12    1    3    3    0    0  0.30568590942E+01 -0.21534423110E+02 -0.15757528586E+03  0.15906931345E+03  0.00000000000E+00 0. -1.
         11    1    5    5    0    0 -0.14037773084E+02 -0.25028369287E+02  0.28644278001E+03  0.28787661343E+03  0.00000000000E+00 0. -1.
        -12    1    5    5    0    0  0.66109174948E+01  0.26134533919E+02  0.20278734708E+04  0.20280526452E+04  0.00000000000E+00 0.  1.
          5    1    4    4  501    0 -0.75980351985E+02  0.33518232946E+02  0.16168834766E+03  0.18181606089E+03  0.41800000000E+01 0. -1.
         -5    1    4    4    0  501 -0.44144583524E+02 -0.38064631601E+02  0.45753011650E+03  0.46124715754E+03  0.41800000000E+01 0. -1.
</event>
<event>
11    1  0.6625361E-009  0.1416728E+03  0.7561462E-02  0.1105705E+00
         22   -1    0    0    0    0  0.00000000000E+00  0.00000000000E+00  0.18139057293E+04  0.18139057293E+04  0.00000000000E+00 0.  1.
         22   -1    0    0    0    0 -0.00000000000E+00 -0.00000000000E+00 -0.40642981795E+03  0.40642981795E+03  0.00000000000E+00 0. -1.
        -24    2    1    2    0    0 -0.54675361103E+02  0.10025541158E+02 -0.37923038230E+03  0.39174428410E+03  0.80981446472E+02 0.  0.
         25    2    1    2    0    0  0.55477541591E+02  0.57121639918E+02  0.26816980362E+03  0.30643623362E+03  0.12508989699E+03 0.  0.
         24    2    1    2    0    0 -0.80218048838E+00 -0.67147181076E+02  0.15185364900E+04  0.15221550295E+04  0.80582100622E+02 0.  0.
        -13    1    5    5    0    0 -0.89609694739E+01 -0.23815045237E+02  0.12305032717E+04  0.12307663292E+04  0.00000000000E+00 0.  1.
         14    1    5    5    0    0  0.81587889855E+01 -0.43332135839E+02  0.28803321832E+03  0.29138870034E+03  0.00000000000E+00 0. -1.
         13    1    3    3    0    0 -0.65937493617E+02  0.32178054996E+02 -0.28203096130E+03  0.29141833062E+03  0.00000000000E+00 0. -1.
        -14    1    3    3    0    0  0.11262132514E+02 -0.22152513838E+02 -0.97199421006E+02  0.10032595348E+03  0.00000000000E+00 0.  1.
          5    1    4    4  501    0 -0.32548225572E+02 -0.14493759936E+01  0.25120256383E+02  0.41351993415E+02  0.41800000000E+01 0.  1.
         -5    1    4    4    0  501  0.88025767163E+02  0.58571015911E+02  0.24304954724E+03  0.26508424020E+03  0.41800000000E+01 0.  1.
</event>
<event>
11    1  0.6625361E-009  0.1506411E+03  0.7561462E-02  0.1096225E+00
         22   -1    0    0    0    0  0.00000000000E+00  0.00000000000E+00  0.10362380108E+03  0.10362380108E+03  0.00000000000E+00 0. -1.
         22   -1    0    0    0    0 -0.00000000000E+00 -0.00000000000E+00 -0.14174324358E+04  0.14174324358E+04  0.00000000000E+00 0.  1.
        -24    2    1    2    0    0 -0.50494083197E+02  0.35360311189E+02 -0.11932464499E+04  0.11975526172E+04  0.80592659558E+02 0.  0.
         25    2    1    2    0    0  0.66779758900E+02 -0.10590558165E+03 -0.12298668093E+03  0.21554829244E+03  0.12513917958E+03 0.  0.
         24    2    1    2    0    0 -0.16285675703E+02  0.70545270457E+02  0.24244961894E+01  0.10795532714E+03  0.80041339693E+02 0.  0.
        -13    1    5    5    0    0  0.11800134211E+02 -0.14301961399E+02  0.10159855613E+01  0.18569369777E+02  0.00000000000E+00 0.  1.
         14    1    5    5    0    0 -0.28085809914E+02  0.84847231856E+02  0.14085106281E+01  0.89385957367E+02  0.00000000000E+00 0. -1.
         13    1    3    3    0    0 -0.39228271951E+02  0.59575326163E+02 -0.71156827417E+03  0.71513459266E+03  0.00000000000E+00 0. -1.
        -14    1    3    3    0    0 -0.11265811246E+02 -0.24215014974E+02 -0.48167817575E+03  0.48241802459E+03  0.00000000000E+00 0.  1.
          5    1    4    4  501    0  0.28510893600E+02 -0.12252774153E+03 -0.58917543033E+02  0.13897722035E+03  0.41800000000E+01 0. -1.
         -5    1    4    4    0  501  0.38268865301E+02  0.16622159885E+02 -0.64069137901E+02  0.76571072097E+02  0.41800000000E+01 0. -1.
</event>
<event>
11    1  0.6625361E-009  0.1336279E+03  0.7561462E-02  0.1114890E+00
         22   -1    0    0    0    0  0.00000000000E+00  0.00000000000E+00  0.34798140634E+03  0.34798140634E+03  0.00000000000E+00 0. -1.
         22   -1    0    0    0    0 -0.00000000000E+00 -0.00000000000E+00 -0.24533590892E+04  0.24533590892E+04  0.00000000000E+00 0.  1.
        -24    2    1    2    0    0  0.16955349215E+02 -0.42974539109E+02 -0.13423263813E+04  0.13457153224E+04  0.83518381475E+02 0.  0.
         25    2    1    2    0    0 -0.52327773434E+02  0.27184689952E+02 -0.10992364761E+04  0.11079015584E+04  0.12509128490E+03 0.  0.
         24    2    1    2    0    0  0.35372424219E+02  0.15789849157E+02  0.33618517451E+03  0.34772361476E+03  0.79941934965E+02 0.  0.
        -11    1    5    5    0    0  0.67353769338E+01 -0.28958081657E+02  0.66327568516E+02  0.72686189479E+02  0.00000000000E+00 0.  1.
         12    1    5    5    0    0  0.28637047285E+02  0.44747930815E+02  0.26985760600E+03  0.27503742528E+03  0.00000000000E+00 0. -1.
         13    1    3    3    0    0 -0.31276602969E+02 -0.14639517003E+02 -0.31960240627E+03  0.32146265638E+03  0.00000000000E+00 0. -1.
        -14    1    3    3    0    0  0.48231952184E+02 -0.28335022106E+02 -0.10227239751E+04  0.10242526660E+04  0.00000000000E+00 0.  1.
          5    1    4    4  501    0 -0.82352333060E+02  0.52927070429E+02 -0.82446556375E+03  0.83026749891E+03  0.41800000000E+01 0. -1.
         -5    1    4    4    0  501  0.30024559626E+02 -0.25742380477E+02 -0.27477091233E+03  0.27763405951E+03  0.41800000000E+01 0. -1.
</event>
<event>
11    1  0.6625361E-009  0.1339800E+03  0.7561462E-02  0.1114473E+00
         22   -1    0    0    0    0  0.00000000000E+00  0.00000000000E+00  0.82900573696E+03  0.82900573696E+03  0.00000000000E+00 0.  1.
         22   -1    0    0    0    0 -0.00000000000E+00 -0.00000000000E+00 -0.10845048295E+04  0.10845048295E+04  0.00000000000E+00 0.  1.
        -24    2    1    2    0    0  0.23213725263E+02  0.10920775105E+02 -0.10294443761E+04  0.10329519291E+04  0.81091454479E+02 0.  0.
         25    2    1    2    0    0  0.62004461475E+00  0.32055339864E+02  0.32443882674E+02  0.13314489127E+03  0.12508807808E+03 0.  0.
         24    2    1    2    0    0 -0.23833769877E+02 -0.42976114969E+02  0.74150140085E+03  0.74741374612E+03  0.79924873427E+02 0.  0.
        -13    1    5    5    0    0 -0.38439505944E+02 -0.44841191255E+02  0.71196550510E+03  0.71441109210E+03  0.00000000000E+00 0.  1.
         14    1    5    5    0    0  0.14605736066E+02  0.18650762863E+01  0.29535895741E+02  0.33002654027E+02  0.00000000000E+00 0. -1.
         13    1    3    3    0    0 -0.89636591190E+01 -0.30589286511E+02 -0.45285175962E+03  0.45397221041E+03  0.00000000000E+00 0. -1.
        -14    1    3    3    0    0  0.32177384382E+02  0.41510061615E+02 -0.57659261644E+03  0.57897971866E+03  0.00000000000E+00 0.  1.
          5    1    4    4  501    0 -0.18144239093E+02  0.49450204664E+02 -0.33311326449E+02  0.62463213361E+02  0.41800000000E+01 0.  1.
         -5    1    4    4    0  501  0.18764283708E+02 -0.17394864800E+02  0.65755209123E+02  0.70681677904E+02  0.41800000000E+01 0.  1.
</event>
<event>
11    1  0.6625361E-009  0.4170711E+03  0.7561462E-02  0.9600690E-01
         22   -1    0    0    0    0  0.00000000000E+00  0.00000000000E+00  0.31551442958E+03  0.31551442958E+03  0.00000000000E+00 0. -1.
         22   -1    0    0    0    0 -0.00000000000E+00 -0.00000000000E+00 -0.21261170368E+04  0.21261170368E+04  0.00000000000E+00 0.  1.
        -24    2    1    2    0    0 -0.29234401484E+03  0.27299103146E+03 -0.17570119499E+04  0.18038062677E+04  0.81467373264E+02 0.  0.
         25    2    1    2    0    0  0.26780443132E+03 -0.27972146249E+03 -0.21193327896E+03  0.45882718463E+03  0.12507342090E+03 0.  0.
         24    2    1    2    0    0  0.24539583522E+02  0.67304310298E+01  0.15834262161E+03  0.17899801410E+03  0.79501027498E+02 0.  0.
        -11    1    5    5    0    0  0.27902080840E+02  0.38085086506E+02  0.64036371272E+02  0.79559140110E+02  0.00000000000E+00 0.  1.
         12    1    5    5    0    0 -0.33624973173E+01 -0.31354655476E+02  0.94306250339E+02  0.99438873995E+02  0.00000000000E+00 0. -1.
         11    1    3    3    0    0 -0.45639621345E+02  0.44862218739E+02 -0.43883024776E+03  0.44347218633E+03  0.00000000000E+00 0. -1.
        -12    1    3    3    0    0 -0.24670439349E+03  0.22812881272E+03 -0.13181817022E+04  0.13603340814E+04  0.00000000000E+00 0.  1.
          5    1    4    4  501    0  0.11498087031E+03 -0.18930096891E+03 -0.72724788842E+02  0.23315622376E+03  0.41800000000E+01 0.  1.
         -5    1    4    4    0  501  0.15282356101E+03 -0.90420493580E+02 -0.13920849012E+03  0.22567096087E+03  0.41800000000E+01 0.  1.
</event>
<event>
11    1  0.6625361E-009  0.2163343E+03  0.7561462E-02  0.1043538E+00
         22   -1    0    0    0    0  0.00000000000E+00  0.00000000000E+00  0.11093177412E+04  0.11093177412E+04  0.00000000000E+00 0.  1.
         22   -1    0    0    0    0 -0.00000000000E+00 -0.00000000000E+00 -0.33348464488E+03  0.33348464488E+03  0.00000000000E+00 0. -1.
        -24    2    1    2    0    0  0.74307219479E+02 -0.56584953915E+02 -0.26475575674E+03  0.29203055794E+03  0.80391642398E+02 0.  0.
         25    2    1    2    0    0  0.11587309735E+03  0.13213000301E+02  0.12738687211E+03  0.21325095309E+03  0.12508955088E+03 0.  0.
         24    2    1    2    0    0 -0.19018031683E+03  0.43371953613E+02  0.91320198091E+03  0.93752087501E+03  0.83413751152E+02 0.  0.
        -11    1    5    5    0    0 -0.14003838195E+03 -0.67581222542E+01  0.64894295048E+03  0.66391518555E+03  0.00000000000E+00 0.  1.
         12    1    5    5    0    0 -0.50141934881E+02  0.50130075868E+02  0.26425903043E+03  0.27360568946E+03  0.00000000000E+00 0. -1.
         13    1    3    3    0    0  0.67168891607E+02 -0.63693363847E+02 -0.14615205135E+03  0.17299978819E+03  0.00000000000E+00 0. -1.
        -14    1    3    3    0    0  0.71383278718E+01  0.71084099322E+01 -0.11860370539E+03  0.11903076975E+03  0.00000000000E+00 0.  1.
          5    1    4    4  501    0  0.71092295585E+02 -0.47756115254E+02  0.10221201404E+03  0.13341487642E+03  0.41800000000E+01 0.  1.
         -5    1    4    4    0  501  0.44780801769E+02  0.60969115556E+02  0.25174858067E+02  0.79836076666E+02  0.41800000000E+01 0.  1.
</event>
<event>
11    1  0.6625361E-009  0.1710645E+03  0.7561462E-02  0.1077109E+00
         22   -1    0    0    0    0  0.00000000000E+00  0.00000000000E+00  0.11824906092E+04  0.11824906092E+04  0.00000000000E+00 0.  1.
         22   -1    0    0    0    0 -0.00000000000E+00 -0.00000000000E+00 -0.15322726169E+03  0.15322726169E+03  0.00000000000E+00 0.  1.
        -24    2    1    2    0    0 -0.11226365990E+03  0.17203696834E+02 -0.86800864105E+02  0.16345012342E+03  0.79261947479E+02 0.  0.
         25    2    1    2    0    0  0.14986349110E+03  0.10269875007E+02  0.35274566765E+03  0.40329835200E+03  0.12512201399E+03 0.  0.
         24    2    1    2    0    0 -0.37599831202E+02 -0.27473571841E+02  0.76331854394E+03  0.76896939544E+03  0.80561697753E+02 0.  0.
        -13    1    5    5    0    0 -0.41814407634E+02  0.63963689196E+01  0.19073038497E+03  0.19536488418E+03  0.00000000000E+00 0.  1.
         14    1    5    5    0    0  0.42145764315E+01 -0.33869940760E+02  0.57258815898E+03  0.57360451127E+03  0.00000000000E+00 0. -1.
         11    1    3    3    0    0 -0.25365412123E+02 -0.30191248518E+02 -0.22207056644E+02  0.45255596163E+02  0.00000000000E+00 0. -1.
        -12    1    3    3    0    0 -0.86898247776E+02  0.47394945352E+02 -0.64593807461E+02  0.11819452726E+03  0.00000000000E+00 0.  1.
          5    1    4    4  501    0  0.81292746999E+02  0.13901462971E+02  0.58708807518E+02  0.10132106330E+03  0.41800000000E+01 0. -1.
         -5    1    4    4    0  501  0.68570744102E+02 -0.36315879637E+01  0.29403686013E+03  0.30197728870E+03  0.41800000000E+01 0. -1.
</event>
<event>
11    1  0.6625361E-009  0.1340231E+03  0.7561462E-02  0.1114422E+00
         22   -1    0    0    0    0  0.00000000000E+00  0.00000000000E+00  0.19187931653E+03  0.19187931653E+03  0.00000000000E+00 0.  1.
         22   -1    0    0    0    0 -0.00000000000E+00 -0.00000000000E+00 -0.60457739907E+03  0.60457739907E+03  0.00000000000E+00 0.  1.
        -24    2    1    2    0    0  0.44114752362E+02  0.29981061982E+01 -0.24195204851E+03  0.25928141401E+03  0.82042415009E+02 0.  0.
         25    2    1    2    0    0 -0.62755927051E+02 -0.46495236766E+02 -0.32486818736E+03  0.35677543567E+03  0.12509699801E+03 0.  0.
         24    2    1    2    0    0  0.18641174689E+02  0.43497130567E+02  0.15412215334E+03  0.18039986592E+03  0.80938122745E+02 0.  0.
        -13    1    5    5    0    0  0.30288563028E+02  0.62921757438E+02  0.12813104672E+03  0.14592501411E+03  0.00000000000E+00 0.  1.
         14    1    5    5    0    0 -0.11647388340E+02 -0.19424626870E+02  0.25991106616E+02  0.34474851810E+02  0.00000000000E+00 0. -1.
         13    1    3    3    0    0  0.81261264403E+01  0.13180069845E+02 -0.10783568415E+01  0.15521308756E+02  0.00000000000E+00 0. -1.
        -14    1    3    3    0    0  0.35988625921E+02 -0.10181963646E+02 -0.24087369166E+03  0.24376010526E+03  0.00000000000E+00 0.  1.
          5    1    4    4  501    0 -0.24776214689E+02 -0.16234204433E+02 -0.30103866270E+03  0.30252133651E+03  0.41800000000E+01 0. -1.
         -5    1    4    4    0  501 -0.37979712361E+02 -0.30261032333E+02 -0.23829524666E+02  0.54254099151E+02  0.41800000000E+01 0. -1.
</event>
<event>
11    1  0.6625361E-009  0.1818359E+03  0.7561462E-02  0.1068167E+00
         22   -1    0    0    0    0  0.00000000000E+00  0.00000000000E+00  0.86711548520E+03  0.86711548520E+03  0.00000000000E+00 0. -1.
         22   -1    0    0    0    0 -0.00000000000E+00 -0.00000000000E+00 -0.29925742517E+03  0.29925742517E+03  0.00000000000E+00 0. -1.
        -24    2    1    2    0    0  0.23941777371E+02  0.11920803439E+03 -0.15264728663E+03  0.21144316762E+03  0.81383381919E+02 0.  0.
         25    2    1    2    0    0 -0.10932188548E+02 -0.16620786456E+03 -0.19113394576E+02  0.20918290186E+03  0.12509035770E+03 0.  0.
         24    2    1    2    0    0 -0.13009588823E+02  0.46999830173E+02  0.73961874123E+03  0.74574684089E+03  0.82001432140E+02 0.  0.
        -13    1    5    5    0    0  0.15098191863E+02 -0.17921464374E+02  0.24058062611E+03  0.24171920060E+03  0.00000000000E+00 0.  1.
         14    1    5    5    0    0 -0.28107780686E+02  0.64921294547E+02  0.49903811513E+03  0.50402764028E+03  0.00000000000E+00 0. -1.
         13    1    3    3    0    0  0.40043360288E+02  0.79620759121E+02 -0.54680437880E+02  0.10456044316E+03  0.00000000000E+00 0. -1.
        -14    1    3    3    0    0 -0.16101582917E+02  0.39587275266E+02 -0.97966848749E+02  0.10688272447E+03  0.00000000000E+00 0.  1.
          5    1    4    4  501    0 -0.17736612933E+02 -0.96767665566E+01 -0.45762660963E+02  0.50198812613E+02  0.41800000000E+01 0. -1.
         -5    1    4    4    0  501  0.68044243850E+01 -0.15653109800E+03  0.26649266388E+02  0.15898408924E+03  0.41800000000E+01 0. -1.
</event>
<event>
11    1  0.6625361E-009  0.1295596E+03  0.7561462E-02  0.1119811E+00
         22   -1    0    0    0    0  0.00000000000E+00  0.00000000000E+00  0.27616704526E+03  0.27616704526E+03  0.00000000000E+00 0. -1.
         22   -1    0    0    0    0 -0.00000000000E+00 -0.00000000000E+00 -0.16714664861E+03  0.16714664861E+03  0.00000000000E+00 0. -1.
         24    2    1    2    0    0 -0.19649239891E+02 -0.32270115704E+02 -0.69239189938E+02  0.11281540079E+03  0.80658516207E+02 0.  0.
         25    2    1    2    0    0  0.45410380419E+02  0.44235413399E+02  0.13657212992E+02  0.14089992037E+03  0.12508954251E+03 0.  0.
        -24    2    1    2    0    0 -0.25761140528E+02 -0.11965297695E+02  0.16460237360E+03  0.18959837271E+03  0.89703939871E+02 0.  0.
        -11    1    3    3    0    0 -0.41729017814E+02 -0.27969746819E+02 -0.12482051325E+02  0.51763107230E+02  0.00000000000E+00 0.  1.
         12    1    3    3    0    0  0.22079777922E+02 -0.43003688854E+01 -0.56757138613E+02  0.61052293562E+02  0.00000000000E+00 0. -1.
         13    1    5    5    0    0  0.10682653382E+02  0.12870671044E+02  0.13601946638E+03  0.13704403851E+03  0.00000000000E+00 0. -1.
        -14    1    5    5    0    0 -0.36443793910E+02 -0.24835968738E+02  0.28582907215E+02  0.52554334194E+02  0.00000000000E+00 0.  1.
          5    1    4    4  501    0  0.40201986357E+01 -0.29334027777E+02 -0.32859088740E+02  0.44427911221E+02  0.41800000000E+01 0. -1.
         -5    1    4    4    0  501  0.41390181783E+02  0.73569441176E+02  0.46516301731E+02  0.96472009151E+02  0.41800000000E+01 0. -1.
</event>
<event>
11    1  0.6625361E-009  0.1367847E+03  0.7561462E-02  0.1111203E+00
         22   -1    0    0    0    0  0.00000000000E+00  0.00000000000E+00  0.75884974478E+03  0.75884974478E+03  0.00000000000E+00 0.  1.
         22   -1    0    0    0    0 -0.00000000000E+00 -0.00000000000E+00 -0.21163947188E+03  0.21163947188E+03  0.00000000000E+00 0. -1.
        -24    2    1    2    0    0 -0.45855199037E+01  0.20828117805E+02 -0.14911742124E+03  0.17149875106E+03  0.81981576076E+02 0.  0.
         25    2    1    2    0    0 -0.42421078174E+02  0.10309320129E+02  0.43320555108E+02  0.13936607496E+03  0.12506159442E+03 0.  0.
         24    2    1    2    0    0  0.47006598077E+02 -0.31137437933E+02  0.65300713903E+03  0.65962439064E+03  0.74208172060E+02 0.  0.
        -13    1    5    5    0    0  0.27450103654E+02 -0.47596840549E+02  0.57311487831E+03  0.57574267790E+03  0.00000000000E+00 0.  1.
         14    1    5    5    0    0  0.19556494424E+02  0.16459402615E+02  0.79892260720E+02  0.83881712736E+02  0.00000000000E+00 0. -1.
         11    1    3    3    0    0  0.13179912350E+02  0.41556330306E+02 -0.13261898385E+03  0.13960097978E+03  0.00000000000E+00 0. -1.
        -12    1    3    3    0    0 -0.17765432254E+02 -0.20728212501E+02 -0.16498437387E+02  0.31897771284E+02  0.00000000000E+00 0.  1.
          5    1    4    4  501    0 -0.70342204579E+02 -0.21997719632E+02  0.58148400889E+02  0.93971454921E+02  0.41800000000E+01 0. -1.
         -5    1    4    4    0  501  0.27921126406E+02  0.32307039761E+02 -0.14827845781E+02  0.45394620038E+02  0.41800000000E+01 0. -1.
</event>
<event>
11    1  0.6625361E-009  0.1345433E+03  0.7561462E-02  0.1113809E+00
         22   -1    0    0    0    0  0.00000000000E+00  0.00000000000E+00  0.16771076239E+04  0.16771076239E+04  0.00000000000E+00 0.  1.
         22   -1    0    0    0    0 -0.00000000000E+00 -0.00000000000E+00 -0.85766919326E+03  0.85766919326E+03  0.00000000000E+00 0.  1.
        -24    2    1    2    0    0  0.13956232122E+02 -0.89171852778E+01 -0.84553008118E+03  0.84890139840E+03  0.73743972056E+02 0.  0.
         25    2    1    2    0    0  0.18577147517E+02 -0.32261201626E+02  0.49342024538E+03  0.51038898817E+03  0.12508990827E+03 0.  0.
         24    2    1    2    0    0 -0.32533379638E+02  0.41178386904E+02  0.11715482664E+04  0.11754864306E+04  0.80553879784E+02 0.  0.
        -13    1    5    5    0    0 -0.35597423722E+02  0.41612438699E+02  0.11710763740E+04  0.11723560233E+04  0.00000000000E+00 0.  1.
         14    1    5    5    0    0  0.30640440837E+01 -0.43405179507E+00  0.47189240826E+00  0.31304072502E+01  0.00000000000E+00 0. -1.
         13    1    3    3    0    0 -0.20289084431E+02 -0.24368899486E+02 -0.22355569305E+03  0.22579335266E+03  0.00000000000E+00 0. -1.
        -14    1    3    3    0    0  0.34245316553E+02  0.15451714208E+02 -0.62197438813E+03  0.62310804574E+03  0.00000000000E+00 0.  1.
          5    1    4    4  501    0  0.58778923223E+02  0.21957533260E+02  0.23723016632E+03  0.24542355082E+03  0.41800000000E+01 0. -1.
         -5    1    4    4    0  501 -0.40201775706E+02 -0.54218734886E+02  0.25619007906E+03  0.26496543735E+03  0.41800000000E+01 0. -1.
</event>
<event>
11    1  0.6625361E-009  0.1513714E+03  0.7561462E-02  0.1095486E+00
         22   -1    0    0    0    0  0.00000000000E+00  0.00000000000E+00  0.30210451483E+03  0.30210451483E+03  0.00000000000E+00 0.  1.
         22   -1    0    0    0    0 -0.00000000000E+00 -0.00000000000E+00 -0.30067048493E+03  0.30067048493E+03  0.00000000000E+00 0. -1.
         24    2    1    2    0    0 -0.41696826857E+01 -0.93507731122E+02 -0.21796576064E+03  0.25007618287E+03  0.79170337836E+02 0.  0.
         25    2    1    2    0    0 -0.31844225850E+02  0.40815691467E+02  0.32878780712E+02  0.13931469741E+03  0.12509034856E+03 0.  0.
        -24    2    1    2    0    0  0.36013908536E+02  0.52692039654E+02  0.18652100982E+03  0.21338411949E+03  0.81665431454E+02 0.  0.
        -11    1    3    3    0    0 -0.32675009757E+01 -0.78443876162E+02 -0.82928493549E+02  0.11419830696E+03  0.00000000000E+00 0.  1.
         12    1    3    3    0    0 -0.90218170991E+00 -0.15063854959E+02 -0.13503726709E+03  0.13587787591E+03  0.00000000000E+00 0. -1.
         11    1    5    5    0    0 -0.67759651727E-01  0.64505001921E+02  0.13235940673E+03  0.14724100113E+03  0.00000000000E+00 0. -1.
        -12    1    5    5    0    0  0.36081668188E+02 -0.11812962267E+02  0.54161603089E+02  0.66143118356E+02  0.00000000000E+00 0.  1.
          5    1    4    4  501    0 -0.49463873047E+02 -0.31127376899E+02  0.28077542617E+02  0.64972372043E+02  0.41800000000E+01 0.  1.
         -5    1    4    4    0  501  0.17619647197E+02  0.71943068366E+02  0.48012380953E+01  0.74342325364E+02  0.41800000000E+01 0.  1.
</event>
<event>
11    1  0.6625361E-009  0.1840616E+03  0.7561462E-02  0.1066404E+00
         22   -1    0    0    0    0  0.00000000000E+00  0.00000000000E+00  0.12414502797E+04  0.12414502797E+04  0.00000000000E+00 0.  1.
         22   -1    0    0    0    0 -0.00000000000E+00 -0.00000000000E+00 -0.28985331291E+03  0.28985331291E+03  0.00000000000E+00 0. -1.
        -24    2    1    2    0    0 -0.42956368851E+00  0.38066961499E+02 -0.21783398127E+03  0.23307536398E+03  0.73642405007E+02 0.  0.
         25    2    1    2    0    0  0.13538173333E+03 -0.31900384383E+02  0.88316377806E+02  0.20686503003E+03  0.12509000686E+03 0.  0.
         24    2    1    2    0    0 -0.13495216964E+03 -0.61665771161E+01  0.10811145703E+04  0.10913631986E+04  0.63362469041E+02 0.  0.
        -13    1    5    5    0    0 -0.14107554432E+03 -0.93746048205E+00  0.10304640471E+04  0.10400766032E+04  0.00000000000E+00 0.  1.
         14    1    5    5    0    0  0.61233746738E+01 -0.52291166340E+01  0.50650523119E+02  0.51286595426E+02  0.00000000000E+00 0. -1.
         11    1    3    3    0    0  0.38538945547E+01 -0.19448529552E+02 -0.25624058068E+02  0.32398922156E+02  0.00000000000E+00 0. -1.
        -12    1    3    3    0    0 -0.42834582432E+01  0.57515491051E+02 -0.19220992320E+03  0.20067644182E+03  0.00000000000E+00 0.  1.
          5    1    4    4  501    0  0.70573175377E+02 -0.79031809646E+02  0.59589359946E+02  0.12163455199E+03  0.41800000000E+01 0. -1.
         -5    1    4    4    0  501  0.64808557957E+02  0.47131425264E+02  0.28727017860E+02  0.85230478040E+02  0.41800000000E+01 0. -1.
</event>
<event>
11    1  0.6625361E-009  0.1382764E+03  0.7561462E-02  0.1109498E+00
         22   -1    0    0    0    0  0.00000000000E+00  0.00000000000E+00  0.60328795467E+03  0.60328795467E+03  0.00000000000E+00 0. -1.
         22   -1    0    0    0    0 -0.00000000000E+00 -0.00000000000E+00 -0.38933878446E+03  0.38933878446E+03  0.00000000000E+00 0. -1.
         24    2    1    2    0    0  0.56686664319E+02  0.17328833218E+02 -0.35156818923E+03  0.36598675208E+03  0.82658603019E+02 0.  0.
         25    2    1    2    0    0 -0.44013715139E+02 -0.33833846581E+02  0.15048170801E+03  0.20338771924E+03  0.12505952022E+03 0.  0.
        -24    2    1    2    0    0 -0.12672949179E+02  0.16505013363E+02  0.41503565143E+03  0.42325226780E+03  0.80342212674E+02 0.  0.
        -11    1    3    3    0    0  0.37565023022E+02  0.11674452689E+02 -0.49342294323E+02  0.63103770167E+02  0.00000000000E+00 0.  1.
         12    1    3    3    0    0  0.19121641297E+02  0.56543805282E+01 -0.30222589490E+03  0.30288298192E+03  0.00000000000E+00 0. -1.
         11    1    5    5    0    0  0.11528590272E+02  0.33267516129E+01  0.37172193378E+03  0.37191554380E+03  0.00000000000E+00 0. -1.
        -12    1    5    5    0    0 -0.24201539451E+02  0.13178261750E+02  0.43313717653E+02  0.51336724004E+02  0.00000000000E+00 0.  1.
          5    1    4    4  501    0  0.48788088089E+01 -0.72662629059E+02  0.94869556157E+02  0.11967190783E+03  0.41800000000E+01 0.  1.
         -5    1    4    4    0  501 -0.48892523948E+02  0.38828782478E+02  0.55612151849E+02  0.83715811410E+02  0.41800000000E+01 0.  1.
</event>
<event>
11    1  0.6625361E-009  0.1350854E+03  0.7561462E-02  0.1113174E+00
         22   -1    0    0    0    0  0.00000000000E+00  0.00000000000E+00  0.51363884474E+02  0.51363884474E+02  0.00000000000E+00 0.  1.
         22   -1    0    0    0    0 -0.00000000000E+00 -0.00000000000E+00 -0.14513754759E+04  0.14513754759E+04  0.00000000000E+00 0. -1.
        -24    2    1    2    0    0  0.46048354339E+02  0.26867531349E+02 -0.11895239561E+04  0.11932641679E+04  0.77909031162E+02 0.  0.
         25    2    1    2    0    0 -0.99768305987E+01 -0.29318112210E+02 -0.16715663411E+03  0.21106528178E+03  0.12509246178E+03 0.  0.
         24    2    1    2    0    0 -0.36071523740E+02  0.24505808619E+01 -0.43331001190E+02  0.98409910639E+02  0.80621180073E+02 0.  0.
        -13    1    5    5    0    0  0.43886227980E+01  0.34685872918E+02 -0.26960130190E+02  0.44149953681E+02  0.00000000000E+00 0.  1.
         14    1    5    5    0    0 -0.40460146538E+02 -0.32235292056E+02 -0.16370871000E+02  0.54259956958E+02  0.00000000000E+00 0. -1.
         11    1    3    3    0    0  0.36918481752E+02  0.33514735879E+02 -0.11670269944E+04  0.11680916991E+04  0.00000000000E+00 0. -1.
        -12    1    3    3    0    0  0.91298725863E+01 -0.66472045300E+01 -0.22496961676E+02  0.25172468813E+02  0.00000000000E+00 0.  1.
          5    1    4    4  501    0 -0.20084109858E+01 -0.53645753107E+02 -0.17569236987E+03  0.18375848762E+03  0.41800000000E+01 0. -1.
         -5    1    4    4    0  501 -0.79684196129E+01  0.24327640897E+02  0.85357357592E+01  0.27306794167E+02  0.41800000000E+01 0. -1.
</event>
<event>
11    1  0.6625361E-009  0.1961653E+03  0.7561462E-02  0.1057269E+00
         22   -1    0    0    0    0  0.00000000000E+00  0.00000000000E+00  0.25657814688E+04  0.25657814688E+04  0.00000000000E+00 0. -1.
         22   -1    0    0    0    0 -0.00000000000E+00 -0.00000000000E+00 -0.25112275537E+03  0.25112275537E+03  0.00000000000E+00 0.  1.
        -24    2    1    2    0    0 -0.14142535460E+02  0.46342380933E+02 -0.22523343594E+03  0.24636273401E+03  0.87274672497E+02 0.  0.
         25    2    1    2    0    0 -0.12285739767E+03 -0.10484393920E+03  0.94611308383E+03  0.96791711990E+03  0.12508953534E+03 0.  0.
         24    2    1    2    0    0  0.13699993313E+03  0.58501558268E+02  0.15937790655E+04  0.16026243702E+04  0.77985565295E+02 0.  0.
        -11    1    5    5    0    0  0.14526154578E+02 -0.46713524315E+01  0.41086825250E+02  0.43828733834E+02  0.00000000000E+00 0.  1.
         12    1    5    5    0    0  0.12247377855E+03  0.63172910699E+02  0.15526922403E+04  0.15587956364E+04  0.00000000000E+00 0. -1.
         11    1    3    3    0    0 -0.11634444280E+01 -0.25892026197E+02 -0.48362839236E+02  0.54869981251E+02  0.00000000000E+00 0. -1.
        -12    1    3    3    0    0 -0.12979091032E+02  0.72234407130E+02 -0.17687059671E+03  0.19149275275E+03  0.00000000000E+00 0.  1.
          5    1    4    4  501    0 -0.10606962258E+03 -0.12872895383E+03  0.87768890535E+03  0.89340763113E+03  0.41800000000E+01 0.  1.
         -5    1    4    4    0  501 -0.16787775088E+02  0.23885014625E+02  0.68424178483E+02  0.74509488772E+02  0.41800000000E+01 0.  1.
</event>
<event>
11    1  0.6625361E-009  0.1708176E+03  0.7561462E-02  0.1077322E+00
         22   -1    0    0    0    0  0.00000000000E+00  0.00000000000E+00  0.30474712205E+04  0.30474712205E+04  0.00000000000E+00 0. -1.
         22   -1    0    0    0    0 -0.00000000000E+00 -0.00000000000E+00 -0.18910650266E+03  0.18910650266E+03  0.00000000000E+00 0.  1.
        -24    2    1    2    0    0 -0.11636757962E+03 -0.22516994186E+02 -0.14913755613E+03  0.20683292965E+03  0.80556945846E+02 0.  0.
         25    2    1    2    0    0  0.77168953282E+02 -0.88534470249E+00  0.52267481320E+03  0.54294769262E+03  0.12508958941E+03 0.  0.
         24    2    1    2    0    0  0.39198626337E+02  0.23402338889E+02  0.24848274608E+04  0.24867971009E+04  0.87795839708E+02 0.  0.
        -13    1    5    5    0    0  0.73226516725E+01  0.22598057046E+02  0.16026290530E+03  0.16201386429E+03  0.00000000000E+00 0.  1.
         14    1    5    5    0    0  0.31875974665E+02  0.80428184296E+00  0.23245645555E+04  0.23247832366E+04  0.00000000000E+00 0. -1.
         13    1    3    3    0    0 -0.34965577082E+01  0.20117175542E+02 -0.36235130752E+02  0.41592203214E+02  0.00000000000E+00 0. -1.
        -14    1    3    3    0    0 -0.11287102191E+03 -0.42634169728E+02 -0.11290242538E+03  0.16524072643E+03  0.00000000000E+00 0.  1.
          5    1    4    4  501    0 -0.19471072100E+02 -0.38047141748E+02  0.17227967520E+03  0.17755130676E+03  0.41800000000E+01 0. -1.
         -5    1    4    4    0  501  0.96640025382E+02  0.37161797045E+02  0.35039513800E+03  0.36539638586E+03  0.41800000000E+01 0. -1.
</event>
<event>
11    1  0.6625361E-009  0.1959034E+03  0.7561462E-02  0.1057459E+00
         22   -1    0    0    0    0  0.00000000000E+00  0.00000000000E+00  0.17273861665E+04  0.17273861665E+04  0.00000000000E+00 0.  1.
         22   -1    0    0    0    0 -0.00000000000E+00 -0.00000000000E+00 -0.12756125996E+03  0.12756125996E+03  0.00000000000E+00 0.  1.
        -24    2    1    2    0    0  0.70117998675E+02  0.33906130815E+02 -0.17029068898E+02  0.96577030311E+02  0.54506643183E+02 0.  0.
         25    2    1    2    0    0  0.82106019922E+02 -0.30824429637E+00  0.18823440800E+02  0.15079440504E+03  0.12507252754E+03 0.  0.
         24    2    1    2    0    0 -0.15222401860E+03 -0.33597886518E+02  0.15980305347E+04  0.16075759911E+04  0.79359988211E+02 0.  0.
        -13    1    5    5    0    0 -0.77008516600E+02 -0.41473094932E+02  0.55949871534E+03  0.56629421832E+03  0.00000000000E+00 0.  1.
         14    1    5    5    0    0 -0.75215501998E+02  0.78752084139E+01  0.10385318193E+04  0.10412817728E+04  0.00000000000E+00 0. -1.
         13    1    3    3    0    0  0.61077237708E+02  0.21524775078E+02  0.99767058288E+01  0.65523122387E+02  0.00000000000E+00 0. -1.
        -14    1    3    3    0    0  0.90407609677E+01  0.12381355737E+02 -0.27005774726E+02  0.31053907924E+02  0.00000000000E+00 0.  1.
          5    1    4    4  501    0  0.41917917823E+02 -0.31193237798E+01  0.72285274451E+02  0.83722609360E+02  0.41800000000E+01 0.  1.
         -5    1    4    4    0  501  0.40188102099E+02  0.28110794834E+01 -0.53461833651E+02  0.67071795679E+02  0.41800000000E+01 0.  1.
</event>
<event>
11    1  0.6625361E-009  0.1528777E+03  0.7561462E-02  0.1093974E+00
         22   -1    0    0    0    0  0.00000000000E+00  0.00000000000E+00  0.49848891969E+03  0.49848891969E+03  0.00000000000E+00 0.  1.
         22   -1    0    0    0    0 -0.00000000000E+00 -0.00000000000E+00 -0.29408692411E+03  0.29408692411E+03  0.00000000000E+00 0.  1.
         24    2    1    2    0    0  0.20539424472E+02 -0.87086649679E+02 -0.17513021364E+03  0.21214873995E+03  0.79564713426E+02 0.  0.
         25    2    1    2    0    0 -0.57118319006E+02  0.69234549493E+02 -0.33472341844E+02  0.15755531706E+03  0.12508938827E+03 0.  0.
        -24    2    1    2    0    0  0.36578894534E+02  0.17852100186E+02  0.41300455107E+03  0.42287178679E+03  0.81185441129E+02 0.  0.
        -11    1    3    3    0    0  0.36158120562E+02 -0.94940116216E+02 -0.15665706645E+03  0.18671494803E+03  0.00000000000E+00 0.  1.
         12    1    3    3    0    0 -0.15618696090E+02  0.78534665375E+01 -0.18473147191E+02  0.25433791918E+02  0.00000000000E+00 0. -1.
         11    1    5    5    0    0  0.48369154570E+02 -0.44992142373E+01  0.13065259119E+03  0.13939123942E+03  0.00000000000E+00 0. -1.
        -12    1    5    5    0    0 -0.11790260036E+02  0.22351314423E+02  0.28235195988E+03  0.28348054737E+03  0.00000000000E+00 0.  1.
          5    1    4    4  501    0 -0.45443272329E+02  0.67359644304E+02  0.34544136159E+02  0.88392207935E+02  0.41800000000E+01 0. -1.
         -5    1    4    4    0  501 -0.11675046676E+02  0.18749051897E+01 -0.68016478003E+02  0.69163109128E+02  0.41800000000E+01 0. -1.
</event>
<event>
11    1  0.6625361E-009  0.1333067E+03  0.7561462E-02  0.1115272E+00
         22   -1    0    0    0    0  0.00000000000E+00  0.00000000000E+00  0.23591945519E+03  0.23591945519E+03  0.00000000000E+00 0. -1.
         22   -1    0    0    0    0 -0.00000000000E+00 -0.00000000000E+00 -0.91192708628E+03  0.91192708628E+03  0.00000000000E+00 0.  1.
         24    2    1    2    0    0  0.37033356765E+02 -0.25476391919E+02 -0.77779903108E+03  0.78318362690E+03  0.79904597021E+02 0.  0.
         25    2    1    2    0    0 -0.46396276053E+02  0.43899532125E+02 -0.81896884095E+02  0.16258308570E+03  0.12508547789E+03 0.  0.
        -24    2    1    2    0    0  0.93629192886E+01 -0.18423140205E+02  0.18368828409E+03  0.20207982887E+03  0.81656568447E+02 0.  0.
        -11    1    3    3    0    0  0.57164452607E+02 -0.36596919055E+02 -0.62277351795E+03  0.62646146233E+03  0.00000000000E+00 0.  1.
         12    1    3    3    0    0 -0.20131095843E+02  0.11120527136E+02 -0.15502551313E+03  0.15672216457E+03  0.00000000000E+00 0. -1.
         11    1    5    5    0    0 -0.48254816262E+01  0.31596956882E+02  0.62161026455E+02  0.69897397427E+02  0.00000000000E+00 0. -1.
        -12    1    5    5    0    0  0.14188400915E+02 -0.50020097088E+02  0.12152725764E+03  0.13218243144E+03  0.00000000000E+00 0.  1.
          5    1    4    4  501    0  0.36844102667E+02  0.76766590309E+01  0.33070045184E+01  0.38010888888E+02  0.41800000000E+01 0. -1.
         -5    1    4    4    0  501 -0.83240378720E+02  0.36222873094E+02 -0.85203888613E+02  0.12457219682E+03  0.41800000000E+01 0. -1.
</event>
<event>
11    1  0.6625361E-009  0.1503891E+03  0.7561462E-02  0.1096482E+00
         22   -1    0    0    0    0  0.00000000000E+00  0.00000000000E+00  0.40743432804E+03  0.40743432804E+03  0.00000000000E+00 0.  1.
         22   -1    0    0    0    0 -0.00000000000E+00 -0.00000000000E+00 -0.10646938367E+04  0.10646938367E+04  0.00000000000E+00 0.  1.
        -24    2    1    2    0    0  0.75823465303E+01 -0.60198852585E+02 -0.92881859623E+03  0.93439088961E+03  0.81859367487E+02 0.  0.
         25    2    1    2    0    0 -0.49810903182E+02  0.12762439930E+03 -0.54064795224E+02  0.19323529048E+03  0.12509101498E+03 0.  0.
         24    2    1    2    0    0  0.42228556652E+02 -0.67425546718E+02  0.32562388279E+03  0.34450198467E+03  0.79506283104E+02 0.  0.
        -11    1    5    5    0    0 -0.33906381550E+01  0.14233595555E+02  0.86603588799E+02  0.87830935680E+02  0.00000000000E+00 0.  1.
         12    1    5    5    0    0  0.45619194807E+02 -0.81659142273E+02  0.23902029399E+03  0.25667104899E+03  0.00000000000E+00 0. -1.
         11    1    3    3    0    0  0.37133082421E+02 -0.17692952415E+02 -0.22935908279E+03  0.23301822940E+03  0.00000000000E+00 0. -1.
        -12    1    3    3    0    0 -0.29550735890E+02 -0.42505900170E+02 -0.69945951345E+03  0.70137266021E+03  0.00000000000E+00 0.  1.
          5    1    4    4  501    0 -0.19966983067E+02 -0.21963535872E+01  0.29498056163E+02  0.35932048359E+02  0.41800000000E+01 0.  1.
         -5    1    4    4    0  501 -0.29843920115E+02  0.12982075289E+03 -0.83562851387E+02  0.15730324212E+03  0.41800000000E+01 0.  1.
</event>
<event>
11    1  0.6625361E-009  0.1333973E+03  0.7561462E-02  0.1115164E+00
         22   -1    0    0    0    0  0.00000000000E+00  0.00000000000E+00  0.26690619699E+03  0.26690619699E+03  0.00000000000E+00 0. -1.
         22   -1    0    0    0    0 -0.00000000000E+00 -0.00000000000E+00 -0.17790049273E+04  0.17790049273E+04  0.00000000000E+00 0. -1.
         24    2    1    2    0    0  0.33909135464E+02 -0.33092631772E+02 -0.14712101818E+04  0.14742217874E+04  0.81397345091E+02 0.  0.
         25    2    1    2    0    0 -0.25890339352E+01  0.47372368154E+02 -0.28408209034E+03  0.31400835582E+03  0.12509104328E+03 0.  0.
        -24    2    1    2    0    0 -0.31320101529E+02 -0.14279736382E+02  0.24319354182E+03  0.25768098104E+03  0.77920020390E+02 0.  0.
        -11    1    3    3    0    0  0.38529382582E+02 -0.34062938134E+02 -0.43918049649E+03  0.44218130396E+03  0.00000000000E+00 0.  1.
         12    1    3    3    0    0 -0.46202471179E+01  0.97030636179E+00 -0.10320296853E+04  0.10320404835E+04  0.00000000000E+00 0. -1.
         11    1    5    5    0    0  0.29385867662E+00  0.18358413327E+02  0.17359126597E+03  0.17455957526E+03  0.00000000000E+00 0. -1.
        -12    1    5    5    0    0 -0.31613960205E+02 -0.32638149709E+02  0.69602275846E+02  0.83121405782E+02  0.00000000000E+00 0.  1.
          5    1    4    4  501    0  0.11380408066E+02  0.87446017245E+02 -0.21980913196E+03  0.23687517074E+03  0.41800000000E+01 0.  1.
         -5    1    4    4    0  501 -0.13969442001E+02 -0.40073649091E+02 -0.64272958383E+02  0.77133185080E+02  0.41800000000E+01 0.  1.
</event>
<event>
11    1  0.6625361E-009  0.1845221E+03  0.7561462E-02  0.1066043E+00
         22   -1    0    0    0    0  0.00000000000E+00  0.00000000000E+00  0.91548004691E+03  0.91548004691E+03  0.00000000000E+00 0.  1.
         22   -1    0    0    0    0 -0.00000000000E+00 -0.00000000000E+00 -0.21546849326E+03  0.21546849326E+03  0.00000000000E+00 0.  1.
        -24    2    1    2    0    0  0.62682672802E+02  0.11996741762E+02 -0.13818002647E+03  0.17219643854E+03  0.80528593987E+02 0.  0.
         25    2    1    2    0    0  0.78997489543E+02  0.17767693647E+02  0.55789866453E+02  0.15911182634E+03  0.12509104601E+03 0.  0.
         24    2    1    2    0    0 -0.14168016234E+03 -0.29764435409E+02  0.78240171366E+03  0.79964027528E+03  0.79454001161E+02 0.  0.
        -11    1    5    5    0    0 -0.30355491378E+02 -0.43420089501E+02  0.24816695599E+03  0.25375893694E+03  0.00000000000E+00 0.  1.
         12    1    5    5    0    0 -0.11132467097E+03  0.13655654093E+02  0.53423475767E+03  0.54588133835E+03  0.00000000000E+00 0. -1.
         11    1    3    3    0    0  0.18750094453E+01 -0.10070347748E+02  0.75693716651E+01  0.12736677416E+02  0.00000000000E+00 0. -1.
        -12    1    3    3    0    0  0.60807663357E+02  0.22067089511E+02 -0.14574939814E+03  0.15945976113E+03  0.00000000000E+00 0.  1.
          5    1    4    4  501    0  0.17086449702E+02  0.27524241440E+02  0.84093811972E+02  0.90215144196E+02  0.41800000000E+01 0.  1.
         -5    1    4    4    0  501  0.61911039841E+02 -0.97565477935E+01 -0.28303945519E+02  0.68896682148E+02  0.41800000000E+01 0.  1.
</event>
<event>
11    1  0.6625361E-009  0.1378655E+03  0.7561462E-02  0.1109966E+00
         22   -1    0    0    0    0  0.00000000000E+00  0.00000000000E+00  0.25314796342E+03  0.25314796342E+03  0.00000000000E+00 0. -1.
         22   -1    0    0    0    0 -0.00000000000E+00 -0.00000000000E+00 -0.28722438868E+04  0.28722438868E+04  0.00000000000E+00 0. -1.
         24    2    1    2    0    0 -0.17150885480E+02  0.54488440733E+02 -0.26725850249E+04  0.26744164629E+04  0.80805684664E+02 0.  0.
         25    2    1    2    0    0  0.45175208446E+02 -0.76198966315E+02 -0.15899672603E+03  0.22084854014E+03  0.12508811642E+03 0.  0.
        -24    2    1    2    0    0 -0.28024322966E+02  0.21710525582E+02  0.21248582763E+03  0.23012684710E+03  0.80940899518E+02 0.  0.
        -11    1    3    3    0    0 -0.16469492941E+02  0.13881261327E+02 -0.15347294773E+03  0.15497702829E+03  0.00000000000E+00 0.  1.
         12    1    3    3    0    0 -0.68139253947E+00  0.40607179406E+02 -0.25191120772E+04  0.25194394347E+04  0.00000000000E+00 0. -1.
         13    1    5    5    0    0 -0.51150258794E+02 -0.47187903632E+01  0.14855576675E+03  0.15718597835E+03  0.00000000000E+00 0. -1.
        -14    1    5    5    0    0  0.23125935828E+02  0.26429315945E+02  0.63930060879E+02  0.72940868745E+02  0.00000000000E+00 0.  1.
          5    1    4    4  501    0 -0.16019081811E+02 -0.58421501208E+02 -0.13860460091E+02  0.62283766259E+02  0.41800000000E+01 0. -1.
         -5    1    4    4    0  501  0.61194290257E+02 -0.17777465107E+02 -0.14513626594E+03  0.15856477389E+03  0.41800000000E+01 0. -1.
</event>
<event>
11    1  0.6625361E-009  0.1319576E+03  0.7561462E-02  0.1116887E+00
         22   -1    0    0    0    0  0.00000000000E+00  0.00000000000E+00  0.10226664148E+04  0.10226664148E+04  0.00000000000E+00 0. -1.
         22   -1    0    0    0    0 -0.00000000000E+00 -0.00000000000E+00 -0.17644689778E+04  0.17644689778E+04  0.00000000000E+00 0. -1.
        -24    2    1    2    0    0 -0.38933522055E+02 -0.14425694711E+02 -0.17128036732E+04  0.17151937095E+04  0.80430829095E+02 0.  0.
         25    2    1    2    0    0  0.92616990981E+02  0.23130616048E+02  0.78707077881E+02  0.17594078987E+03  0.12508966790E+03 0.  0.
         24    2    1    2    0    0 -0.53683468926E+02 -0.87049213368E+01  0.89229403235E+03  0.89600089325E+03  0.60591006276E+02 0.  0.
        -13    1    5    5    0    0 -0.33857656900E+02 -0.19456189243E+02  0.22769229338E+03  0.23101658965E+03  0.00000000000E+00 0.  1.
         14    1    5    5    0    0 -0.19825812027E+02  0.10751267906E+02  0.66460173898E+03  0.66498430360E+03  0.00000000000E+00 0. -1.
         11    1    3    3    0    0 -0.16737593561E+02 -0.47543248373E+02 -0.10183511034E+04  0.10195977036E+04  0.00000000000E+00 0. -1.
        -12    1    3    3    0    0 -0.22195928494E+02  0.33117553662E+02 -0.69445256986E+03  0.69559600587E+03  0.00000000000E+00 0.  1.
          5    1    4    4  501    0  0.10187567113E+03 -0.27582617162E+02  0.52042517581E+02  0.11775121729E+03  0.41800000000E+01 0. -1.
         -5    1    4    4    0  501 -0.92586801506E+01  0.50713233210E+02  0.26664560300E+02  0.58189572577E+02  0.41800000000E+01 0. -1.
</event>
<event>
11    1  0.6625361E-009  0.1962686E+03  0.7561462E-02  0.1057194E+00
         22   -1    0    0    0    0  0.00000000000E+00  0.00000000000E+00  0.11072359902E+04  0.11072359902E+04  0.00000000000E+00 0. -1.
         22   -1    0    0    0    0 -0.00000000000E+00 -0.00000000000E+00 -0.16652786221E+03  0.16652786221E+03  0.00000000000E+00 0. -1.
         24    2    1    2    0    0 -0.51947505875E+02  0.44671648308E+01 -0.96990626670E+02  0.13629528522E+03  0.80316400465E+02 0.  0.
         25    2    1    2    0    0 -0.79425091850E+02 -0.92619411743E+02  0.14405115759E+03  0.22646134055E+03  0.12508917664E+03 0.  0.
        -24    2    1    2    0    0  0.13137259772E+03  0.88152246912E+02  0.89364759706E+03  0.91100722664E+03  0.79363475117E+02 0.  0.
        -13    1    3    3    0    0 -0.19196089213E+01  0.11367333890E+02  0.11712243974E+02  0.16434045061E+02  0.00000000000E+00 0.  1.
         14    1    3    3    0    0 -0.50027896954E+02 -0.69001690594E+01 -0.10870287064E+03  0.11986124016E+03  0.00000000000E+00 0. -1.
         11    1    5    5    0    0  0.12935255853E+03  0.67606431623E+02  0.63594156051E+03  0.65247557991E+03  0.00000000000E+00 0. -1.
        -12    1    5    5    0    0  0.20200391939E+01  0.20545815289E+02  0.25770603655E+03  0.25853164673E+03  0.00000000000E+00 0.  1.
          5    1    4    4  501    0  0.29877885281E+02 -0.20719574781E+02  0.76058493049E+01  0.37380611975E+02  0.41800000000E+01 0. -1.
         -5    1    4    4    0  501 -0.10930297713E+03 -0.71899836962E+02  0.13644530828E+03  0.18908072857E+03  0.41800000000E+01 0. -1.
</event>
<event>
11    1  0.6625361E-009  0.1808944E+03  0.7561462E-02  0.1068922E+00
         22   -1    0    0    0    0  0.00000000000E+00  0.00000000000E+00  0.11997676007E+04  0.11997676007E+04  0.00000000000E+00 0. -1.
         22   -1    0    0    0    0 -0.00000000000E+00 -0.00000000000E+00 -0.24646759914E+03  0.24646759914E+03  0.00000000000E+00 0. -1.
        -24    2    1    2    0    0 -0.11150915664E+03 -0.44026799023E+02 -0.90652484757E+02  0.16884282331E+03  0.76924475582E+02 0.  0.
         25    2    1    2    0    0  0.14654633164E+03  0.48977780312E+02 -0.29099154718E+02  0.20092028965E+03  0.12509017429E+03 0.  0.
         24    2    1    2    0    0 -0.35037174998E+02 -0.49509812890E+01  0.10730516411E+04  0.10764720869E+04  0.78103864515E+02 0.  0.
        -13    1    5    5    0    0 -0.35297349266E+02  0.26663774778E+02  0.35812889224E+03  0.36085061065E+03  0.00000000000E+00 0.  1.
         14    1    5    5    0    0  0.26017426760E+00 -0.31614756067E+02  0.71492274883E+03  0.71562147626E+03  0.00000000000E+00 0. -1.
         13    1    3    3    0    0 -0.56040905164E+02 -0.32498575428E+02 -0.91585825750E+02  0.11218156682E+03  0.00000000000E+00 0. -1.
        -14    1    3    3    0    0 -0.55468251479E+02 -0.11528223596E+02  0.93334099352E+00  0.56661256488E+02  0.00000000000E+00 0.  1.
          5    1    4    4  501    0  0.48220673782E+02 -0.62064521773E+01  0.44635949274E+02  0.66133152020E+02  0.41800000000E+01 0. -1.
         -5    1    4    4    0  501  0.98325657860E+02  0.55184232490E+02 -0.73735103991E+02  0.13478713763E+03  0.41800000000E+01 0. -1.
</event>
<event>
11    1  0.6625361E-009  0.1688246E+03  0.7561462E-02  0.1079059E+00
         22   -1    0    0    0    0  0.00000000000E+00  0.00000000000E+00  0.16829461008E+04  0.16829461008E+04  0.00000000000E+00 0.  1.
         22   -1    0    0    0    0 -0.00000000000E+00 -0.00000000000E+00 -0.14528448490E+03  0.14528448490E+03  0.00000000000E+00 0.  1.
         24    2    1    2    0    0  0.40625258781E+02 -0.10201695268E+03 -0.87548728375E+02  0.16106094319E+03  0.78854152045E+02 0.  0.
         25    2    1    2    0    0 -0.36073110606E+02  0.18165946176E+03  0.69233821850E+03  0.72751660013E+03  0.12508703091E+03 0.  0.
        -24    2    1    2    0    0 -0.45521481750E+01 -0.79642509080E+02  0.93287212572E+03  0.93965304234E+03  0.79585084891E+02 0.  0.
        -13    1    3    3    0    0  0.22377391764E+02 -0.43690776526E+02 -0.87059507432E+02  0.99944932087E+02  0.00000000000E+00 0.  1.
         14    1    3    3    0    0  0.18247867017E+02 -0.58326176156E+02 -0.48922094302E+00  0.61116011100E+02  0.00000000000E+00 0. -1.
         13    1    5    5    0    0  0.21762618661E+02 -0.36790598430E+01  0.79636388095E+02  0.82638377048E+02  0.00000000000E+00 0. -1.
        -14    1    5    5    0    0 -0.26314766836E+02 -0.75963449237E+02  0.85323573762E+03  0.85701466529E+03  0.00000000000E+00 0.  1.
          5    1    4    4  501    0  0.14677780869E+02  0.13856691116E+03  0.58299592673E+03  0.59943135479E+03  0.41800000000E+01 0. -1.
         -5    1    4    4    0  501 -0.50750891475E+02  0.43092550603E+02  0.10934229177E+03  0.12808524534E+03  0.41800000000E+01 0. -1.
</event>
<event>
11    1  0.6625361E-009  0.1879601E+03  0.7561462E-02  0.1063380E+00
         22   -1    0    0    0    0  0.00000000000E+00  0.00000000000E+00  0.94457955191E+03  0.94457955191E+03  0.00000000000E+00 0. -1.
         22   -1    0    0    0    0 -0.00000000000E+00 -0.00000000000E+00 -0.65680800009E+02  0.65680800009E+02  0.00000000000E+00 0.  1.
        -24    2    1    2    0    0 -0.13208917419E+03 -0.40534889267E+02  0.16197470708E+03  0.22710475991E+03  0.79057820935E+02 0.  0.
         25    2    1    2    0    0  0.13842333451E+03  0.38524466152E+02  0.27918482809E+03  0.33798978562E+03  0.12509105852E+03 0.  0.
         24    2    1    2    0    0 -0.63341603152E+01  0.20104231143E+01  0.43773921673E+03  0.44516580639E+03  0.80701982176E+02 0.  0.
        -11    1    5    5    0    0 -0.41237251434E+02 -0.61358487150E+01  0.16996519178E+03  0.17500378843E+03  0.00000000000E+00 0.  1.
         12    1    5    5    0    0  0.34903091119E+02  0.81462718294E+01  0.26777402495E+03  0.27016201796E+03  0.00000000000E+00 0. -1.
         11    1    3    3    0    0 -0.12727271992E+02 -0.29349485321E+01 -0.85324679080E+01  0.15601294301E+02  0.00000000000E+00 0. -1.
        -12    1    3    3    0    0 -0.11936190220E+03 -0.37599940735E+02  0.17050717499E+03  0.21150346560E+03  0.00000000000E+00 0.  1.
          5    1    4    4  501    0  0.12240744200E+03  0.23198530872E+02  0.28796108400E+03  0.31378465863E+03  0.41800000000E+01 0. -1.
         -5    1    4    4    0  501  0.16015892510E+02  0.15325935280E+02 -0.87762559108E+01  0.24205126996E+02  0.41800000000E+01 0. -1.
</event>
<event>
11    1  0.6625361E-009  0.1343171E+03  0.7561462E-02  0.1114076E+00
         22   -1    0    0    0    0  0.00000000000E+00  0.00000000000E+00  0.54512357210E+03  0.54512357210E+03  0.00000000000E+00 0. -1.
         22   -1    0    0    0    0 -0.00000000000E+00 -0.00000000000E+00 -0.62736016290E+03  0.62736016290E+03  0.00000000000E+00 0. -1.
        -24    2    1    2    0    0 -0.34225764397E+02  0.29075149770E+02 -0.44683849532E+03  0.45639004789E+03  0.81304782313E+02 0.  0.
         25    2    1    2    0    0  0.21383013922E+02 -0.75799344816E+02 -0.13953919956E+03  0.20327406305E+03  0.12508550090E+03 0.  0.
         24    2    1    2    0    0  0.12842750474E+02  0.46724195046E+02  0.50414110408E+03  0.51281962407E+03  0.80483708669E+02 0.  0.
        -11    1    5    5    0    0 -0.13925539203E+02  0.16714983951E+02  0.30443232960E+02  0.37417933717E+02  0.00000000000E+00 0.  1.
         12    1    5    5    0    0  0.26768289677E+02  0.30009211095E+02  0.47369787112E+03  0.47540169035E+03  0.00000000000E+00 0. -1.
         11    1    3    3    0    0 -0.25493556203E+02 -0.79872188689E+01 -0.36663201166E+03  0.36760406560E+03  0.00000000000E+00 0. -1.
        -12    1    3    3    0    0 -0.87322081936E+01  0.37062368639E+02 -0.80206483659E+02  0.88785982284E+02  0.00000000000E+00 0.  1.
          5    1    4    4  501    0 -0.32529664600E+02 -0.13762774638E+02  0.60082466167E+01  0.36071657463E+02  0.41800000000E+01 0. -1.
         -5    1    4    4    0  501  0.53912678522E+02 -0.62036570177E+02 -0.14554744617E+03  0.16720240558E+03  0.41800000000E+01 0. -1.
</event>
<event>
11    1  0.6625361E-009  0.1452864E+03  0.7561462E-02  0.1101795E+00
         22   -1    0    0    0    0  0.00000000000E+00  0.00000000000E+00  0.39975168186E+03  0.39975168186E+03  0.00000000000E+00 0.  1.
         22   -1    0    0    0    0 -0.00000000000E+00 -0.00000000000E+00 -0.30311432335E+03  0.30311432335E+03  0.00000000000E+00 0. -1.
         24    2    1    2    0    0 -0.75933143967E+02  0.72733451463E+01 -0.23092007371E+03  0.25606648173E+03  0.80169936501E+02 0.  0.
         25    2    1    2    0    0  0.58226311589E+02  0.15268489833E+02  0.36125412362E+02  0.14344361706E+03  0.12509035020E+03 0.  0.
        -24    2    1    2    0    0  0.17706832378E+02 -0.22541834979E+02  0.29143201986E+03  0.30335590642E+03  0.79186599399E+02 0.  0.
        -13    1    3    3    0    0 -0.13270142032E+02  0.61855033921E+01  0.20771140152E+01  0.14787546260E+02  0.00000000000E+00 0.  1.
         14    1    3    3    0    0 -0.62663001935E+02  0.10878417542E+01 -0.23299718773E+03  0.24127893547E+03  0.00000000000E+00 0. -1.
         11    1    5    5    0    0 -0.77258950192E+01  0.79614082687E+01  0.20751346211E+01  0.11286259751E+02  0.00000000000E+00 0. -1.
        -12    1    5    5    0    0  0.25432727397E+02 -0.30503243248E+02  0.28935688523E+03  0.29206964667E+03  0.00000000000E+00 0.  1.
          5    1    4    4  501    0  0.83135047902E+02 -0.23319217977E+02  0.43444678435E+02  0.96747788611E+02  0.41800000000E+01 0.  1.
         -5    1    4    4    0  501 -0.24908736313E+02  0.38587707810E+02 -0.73192660731E+01  0.46695828449E+02  0.41800000000E+01 0.  1.
</event>
<event>
11    1  0.6625361E-009  0.2693083E+03  0.7561462E-02  0.1014088E+00
         22   -1    0    0    0    0  0.00000000000E+00  0.00000000000E+00  0.37449348469E+04  0.37449348469E+04  0.00000000000E+00 0. -1.
         22   -1    0    0    0    0 -0.00000000000E+00 -0.00000000000E+00 -0.10093254093E+04  0.10093254093E+04  0.00000000000E+00 0.  1.
         24    2    1    2    0    0 -0.35737693777E+02  0.16775015351E+02 -0.89089406224E+03  0.89552429117E+03  0.81932545613E+02 0.  0.
         25    2    1    2    0    0  0.20290261980E+03 -0.18488996682E+03  0.91992571324E+02  0.31537988288E+03  0.12509222354E+03 0.  0.
        -24    2    1    2    0    0 -0.16716492603E+03  0.16811495147E+03  0.35345109285E+04  0.35433560821E+04  0.79987944614E+02 0.  0.
        -13    1    3    3    0    0 -0.53122930086E+02 -0.86580300190E+01 -0.39172499892E+03  0.39540546527E+03  0.00000000000E+00 0.  1.
         14    1    3    3    0    0  0.17385236309E+02  0.25433045370E+02 -0.49916906332E+03  0.50011882590E+03  0.00000000000E+00 0. -1.
         13    1    5    5    0    0 -0.15089091275E+03  0.17606287146E+03  0.33146162352E+04  0.33227168084E+04  0.00000000000E+00 0. -1.
        -14    1    5    5    0    0 -0.16274013275E+02 -0.79479199898E+01  0.21989469336E+03  0.22063927372E+03  0.00000000000E+00 0.  1.
          5    1    4    4  501    0  0.18745528493E+03 -0.17161504763E+03  0.37345848140E+02  0.25691125549E+03  0.41800000000E+01 0. -1.
         -5    1    4    4    0  501  0.15447334870E+02 -0.13274919189E+02  0.54646723184E+02  0.58468627390E+02  0.41800000000E+01 0. -1.
</event>
<event>
11    1  0.6625361E-009  0.3167025E+03  0.7561462E-02  0.9933601E-01
         22   -1    0    0    0    0  0.00000000000E+00  0.00000000000E+00  0.67387299965E+03  0.67387299965E+03  0.00000000000E+00 0. -1.
         22   -1    0    0    0    0 -0.00000000000E+00 -0.00000000000E+00 -0.13291527275E+04  0.13291527275E+04  0.00000000000E+00 0. -1.
        -24    2    1    2    0    0  0.22396904309E+03  0.19289347144E+03 -0.99682652330E+03  0.10428543962E+04  0.80697897306E+02 0.  0.
         25    2    1    2    0    0 -0.14012664140E+03 -0.25214596857E+03 -0.22002260490E+03  0.38375896168E+03  0.12509168203E+03 0.  0.
         24    2    1    2    0    0 -0.83842401687E+02  0.59252497131E+02  0.56156940032E+03  0.57641236925E+03  0.79690785653E+02 0.  0.
        -11    1    5    5    0    0 -0.60373768588E+02  0.41382088220E+01  0.39043089651E+03  0.39509290257E+03  0.00000000000E+00 0.  1.
         12    1    5    5    0    0 -0.23468633098E+02  0.55114288309E+02  0.17113850380E+03  0.18131946669E+03  0.00000000000E+00 0. -1.
         13    1    3    3    0    0  0.15232037530E+03  0.87502612010E+02 -0.65136017106E+03  0.67463195617E+03  0.00000000000E+00 0. -1.
        -14    1    3    3    0    0  0.71648667789E+02  0.10539085943E+03 -0.34546635224E+03  0.36822244007E+03  0.00000000000E+00 0.  1.
          5    1    4    4  501    0 -0.20784755227E+02 -0.12750248483E+03 -0.42280849356E+02  0.13599276565E+03  0.41800000000E+01 0.  1.
         -5    1    4    4    0  501 -0.11934188617E+03 -0.12464348373E+03 -0.17774175554E+03  0.24776619603E+03  0.41800000000E+01 0.  1.
</event>
<event>
11    1  0.6625361E-009  0.1668944E+03  0.7561462E-02  0.1080766E+00
         22   -1    0    0    0    0  0.00000000000E+00  0.00000000000E+00  0.29212184584E+04  0.29212184584E+04  0.00000000000E+00 0.  1.
         22   -1    0    0    0    0 -0.00000000000E+00 -0.00000000000E+00 -0.23785063732E+04  0.23785063732E+04  0.00000000000E+00 0.  1.
        -24    2    1    2    0    0 -0.23603563468E+02  0.25599391953E+02 -0.22967858734E+04  0.22986883264E+04  0.86776820193E+02 0.  0.
         25    2    1    2    0    0 -0.80852324652E+02  0.12286578353E+02 -0.85302231533E+01  0.14969505396E+03  0.12509111105E+03 0.  0.
         24    2    1    2    0    0  0.10445588812E+03 -0.37885970307E+02  0.28480281818E+04  0.28513414512E+04  0.80852752279E+02 0.  0.
        -11    1    5    5    0    0  0.54638355494E+02 -0.45663548937E+02  0.22705355108E+04  0.22716518253E+04  0.00000000000E+00 0.  1.
         12    1    5    5    0    0  0.49817532626E+02  0.77775786300E+01  0.57749267105E+03  0.57968962592E+03  0.00000000000E+00 0. -1.
         13    1    3    3    0    0 -0.13123367537E+02 -0.20359275840E+02 -0.21357257370E+03  0.21494177613E+03  0.00000000000E+00 0. -1.
        -14    1    3    3    0    0 -0.10480195931E+02  0.45958667794E+02 -0.20832132997E+04  0.20837465503E+04  0.00000000000E+00 0.  1.
          5    1    4    4  501    0 -0.97783820343E+02 -0.24680077467E+02 -0.27525756826E+02  0.10462275772E+03  0.41800000000E+01 0.  1.
         -5    1    4    4    0  501  0.16931495691E+02  0.36966655820E+02  0.18995533672E+02  0.45072296240E+02  0.41800000000E+01 0.  1.
</event>
<event>
11    1  0.6625361E-009  0.1420544E+03  0.7561462E-02  0.1105286E+00
         22   -1    0    0    0    0  0.00000000000E+00  0.00000000000E+00  0.82622992758E+03  0.82622992758E+03  0.00000000000E+00 0.  1.
         22   -1    0    0    0    0 -0.00000000000E+00 -0.00000000000E+00 -0.79379947535E+03  0.79379947535E+03  0.00000000000E+00 0.  1.
         24    2    1    2    0    0 -0.21926721029E+02  0.76182817365E+01 -0.76142713184E+03  0.76619573937E+03  0.82132908270E+02 0.  0.
         25    2    1    2    0    0 -0.36413095611E+02  0.32055982693E+02  0.14975197381E+03  0.20106392684E+03  0.12509016531E+03 0.  0.
        -24    2    1    2    0    0  0.58339816640E+02 -0.39674264429E+02  0.64410561026E+03  0.65276973672E+03  0.79112012613E+02 0.  0.
        -11    1    3    3    0    0 -0.51698085781E+02 -0.74673761235E+00 -0.37734810581E+03  0.38087378835E+03  0.00000000000E+00 0.  1.
         12    1    3    3    0    0  0.29771364752E+02  0.83650193488E+01 -0.38407902602E+03  0.38532195102E+03  0.00000000000E+00 0. -1.
         11    1    5    5    0    0  0.40097764340E+02 -0.35335097607E+02  0.16802848280E+03  0.17632348357E+03  0.00000000000E+00 0. -1.
        -12    1    5    5    0    0  0.18242052299E+02 -0.43391668221E+01  0.47607712746E+03  0.47644625315E+03  0.00000000000E+00 0.  1.
          5    1    4    4  501    0  0.25874405954E+02  0.58005022219E+02  0.93533854447E+02  0.11313762333E+03  0.41800000000E+01 0.  1.
         -5    1    4    4    0  501 -0.62287501565E+02 -0.25949039526E+02  0.56218119363E+02  0.87926303506E+02  0.41800000000E+01 0.  1.
</event>
<event>
11    1  0.6625361E-009  0.2085920E+03  0.7561462E-02  0.1048609E+00
         22   -1    0    0    0    0  0.00000000000E+00  0.00000000000E+00  0.14993920953E+04  0.14993920953E+04  0.00000000000E+00 0.  1.
         22   -1    0    0    0    0 -0.00000000000E+00 -0.00000000000E+00 -0.50837192199E+03  0.50837192199E+03  0.00000000000E+00 0. -1.
         24    2    1    2    0    0 -0.16706274367E+03 -0.93570692925E+01 -0.43254143693E+03  0.47004257293E+03  0.76487977100E+02 0.  0.
         25    2    1    2    0    0  0.16410425468E+03 -0.24749536581E+02  0.13816935586E+03  0.24956157249E+03  0.12508981412E+03 0.  0.
        -24    2    1    2    0    0  0.29584889812E+01  0.34106605874E+02  0.12853922544E+04  0.12881598719E+04  0.77140097812E+02 0.  0.
        -11    1    3    3    0    0 -0.54019277135E+02  0.32929415378E+02 -0.14551011100E+03  0.15866827378E+03  0.00000000000E+00 0.  1.
         12    1    3    3    0    0 -0.11304346653E+03 -0.42286484671E+02 -0.28703132592E+03  0.31137429915E+03  0.00000000000E+00 0. -1.
         13    1    5    5    0    0  0.11510627976E+02  0.37108535758E+02  0.27541804648E+03  0.27814499512E+03  0.00000000000E+00 0. -1.
        -14    1    5    5    0    0 -0.85521389949E+01 -0.30019298842E+01  0.10099742079E+04  0.10100148768E+04  0.00000000000E+00 0.  1.
          5    1    4    4  501    0  0.70668694495E+02  0.51176686539E+02  0.58558112279E+02  0.10516483509E+03  0.41800000000E+01 0.  1.
         -5    1    4    4    0  501  0.93435560189E+02 -0.75926223120E+02  0.79611243584E+02  0.14439673739E+03  0.41800000000E+01 0.  1.
</event>
<event>
11    1  0.6625361E-009  0.1559299E+03  0.7561462E-02  0.1090969E+00
         22   -1    0    0    0    0  0.00000000000E+00  0.00000000000E+00  0.45616501226E+03  0.45616501226E+03  0.00000000000E+00 0. -1.
         22   -1    0    0    0    0 -0.00000000000E+00 -0.00000000000E+00 -0.34350571916E+03  0.34350571916E+03  0.00000000000E+00 0.  1.
        -24    2    1    2    0    0 -0.41426258266E+02 -0.12022257069E+02 -0.20018084751E+03  0.21927792967E+03  0.78420464117E+02 0.  0.
         25    2    1    2    0    0  0.87529011287E+02 -0.68009135631E+02 -0.69010183080E+02  0.18082856050E+03  0.12509993037E+03 0.  0.
         24    2    1    2    0    0 -0.46102753021E+02  0.80031392700E+02  0.38185032369E+03  0.39956424125E+03  0.72879527509E+02 0.  0.
        -11    1    5    5    0    0 -0.12767194873E+01  0.33009552791E+02  0.41366607582E+02  0.52938235812E+02  0.00000000000E+00 0.  1.
         12    1    5    5    0    0 -0.44826033534E+02  0.47021839909E+02  0.34048371610E+03  0.34662600543E+03  0.00000000000E+00 0. -1.
         13    1    3    3    0    0 -0.22634396601E+02  0.33286319277E+02 -0.97511192810E+02  0.10549278498E+03  0.00000000000E+00 0. -1.
        -14    1    3    3    0    0 -0.18791861665E+02 -0.45308576346E+02 -0.10266965470E+03  0.11378514469E+03  0.00000000000E+00 0.  1.
          5    1    4    4  501    0  0.76850168807E+02 -0.47543802951E+02 -0.10454307099E+03  0.13825009127E+03  0.41800000000E+01 0. -1.
         -5    1    4    4    0  501  0.10678842481E+02 -0.20465332680E+02  0.35532887911E+02  0.42578469227E+02  0.41800000000E+01 0. -1.
</event>
<event>
11    1  0.6625361E-009  0.1702139E+03  0.7561462E-02  0.1077846E+00
         22   -1    0    0    0    0  0.00000000000E+00  0.00000000000E+00  0.36793122215E+03  0.36793122215E+03  0.00000000000E+00 0. -1.
         22   -1    0    0    0    0 -0.00000000000E+00 -0.00000000000E+00 -0.64089172202E+03  0.64089172202E+03  0.00000000000E+00 0. -1.
        -24    2    1    2    0    0  0.48227778331E+02  0.11785096017E+03 -0.49132501599E+03  0.51373438154E+03  0.79422767617E+02 0.  0.
         25    2    1    2    0    0 -0.71000927869E+02 -0.42838445735E+02 -0.84131765078E+02  0.17205740866E+03  0.12509729728E+03 0.  0.
         24    2    1    2    0    0  0.22773149538E+02 -0.75012514434E+02  0.30249628119E+03  0.32303115397E+03  0.81851283681E+02 0.  0.
        -13    1    5    5    0    0  0.43448725422E+01 -0.84437033803E+02  0.27988543000E+03  0.29237705881E+03  0.00000000000E+00 0.  1.
         14    1    5    5    0    0  0.18428276996E+02  0.94245193684E+01  0.22610851195E+02  0.30654095161E+02  0.00000000000E+00 0. -1.
         11    1    3    3    0    0  0.64089723588E+02  0.88615184789E+02 -0.43294450747E+03  0.44654349193E+03  0.00000000000E+00 0. -1.
        -12    1    3    3    0    0 -0.15861945258E+02  0.29235775380E+02 -0.58380508528E+02  0.67190889601E+02  0.00000000000E+00 0.  1.
          5    1    4    4  501    0 -0.26868041605E+02 -0.13453308061E+02  0.32141445831E+02  0.44197602849E+02  0.41800000000E+01 0.  1.
         -5    1    4    4    0  501 -0.44132886264E+02 -0.29385137674E+02 -0.11627321091E+03  0.12785980581E+03  0.41800000000E+01 0.  1.
</event>
<event>
11    1  0.6625361E-009  0.1816569E+03  0.7561462E-02  0.1068310E+00
         22   -1    0    0    0    0  0.00000000000E+00  0.00000000000E+00  0.39204605704E+03  0.39204605704E+03  0.00000000000E+00 0. -1.
         22   -1    0    0    0    0 -0.00000000000E+00 -0.00000000000E+00 -0.20429643387E+04  0.20429643387E+04  0.00000000000E+00 0. -1.
         24    2    1    2    0    0 -0.37790132582E+02 -0.50466442064E+02 -0.18411380608E+04  0.18439546233E+04  0.80027105892E+02 0.  0.
         25    2    1    2    0    0  0.18521940432E+02 -0.84730311359E+02 -0.15108076276E+03  0.21446723538E+03  0.12509400559E+03 0.  0.
        -24    2    1    2    0    0  0.19268192150E+02  0.13519675342E+03  0.34130054200E+03  0.37658853705E+03  0.81752314349E+02 0.  0.
        -13    1    3    3    0    0 -0.16715866796E+02 -0.19757616879E+02 -0.13778763086E+03  0.14019705719E+03  0.00000000000E+00 0.  1.
         14    1    3    3    0    0 -0.21074265786E+02 -0.30708825185E+02 -0.17033504300E+04  0.17037575661E+04  0.00000000000E+00 0. -1.
         13    1    5    5    0    0 -0.18144852628E+02  0.11412589873E+03  0.23288457878E+03  0.25997919816E+03  0.00000000000E+00 0. -1.
        -14    1    5    5    0    0  0.37413044777E+02  0.21070854693E+02  0.10841596322E+03  0.11660933889E+03  0.00000000000E+00 0.  1.
          5    1    4    4  501    0  0.68602722258E+02 -0.33721576981E+02 -0.53353793242E+02  0.93314403543E+02  0.41800000000E+01 0. -1.
         -5    1    4    4    0  501 -0.50080781826E+02 -0.51008734378E+02 -0.97726969523E+02  0.12115283184E+03  0.41800000000E+01 0. -1.
</event>
<event>
11    1  0.6625361E-009  0.1399742E+03  0.7561462E-02  0.1107587E+00
         22   -1    0    0    0    0  0.00000000000E+00  0.00000000000E+00  0.20365682599E+03  0.20365682599E+03  0.00000000000E+00 0.  1.
         22   -1    0    0    0    0 -0.00000000000E+00 -0.00000000000E+00 -0.56902264083E+03  0.56902264083E+03  0.00000000000E+00 0.  1.
        -24    2    1    2    0    0 -0.10367867316E+02  0.29263243910E+01 -0.25280493708E+03  0.26573893235E+03  0.81183667747E+02 0.  0.
         25    2    1    2    0    0  0.72639106194E+02  0.90944874255E+00 -0.27781926492E+03  0.31321335600E+03  0.12506716423E+03 0.  0.
         24    2    1    2    0    0 -0.62271238878E+02 -0.38357731336E+01  0.16525838716E+03  0.19372717848E+03  0.79545363190E+02 0.  0.
        -13    1    5    5    0    0 -0.72317362413E+02  0.19194649403E+02  0.11012278169E+03  0.13313625547E+03  0.00000000000E+00 0.  1.
         14    1    5    5    0    0  0.10046123535E+02 -0.23030422536E+02  0.55135605472E+02  0.60590923009E+02  0.00000000000E+00 0. -1.
         13    1    3    3    0    0  0.26139361189E+02 -0.21806512472E+02 -0.15108083055E+03  0.15486835554E+03  0.00000000000E+00 0. -1.
        -14    1    3    3    0    0 -0.36507228505E+02  0.24732836863E+02 -0.10172410653E+03  0.11087057681E+03  0.00000000000E+00 0.  1.
          5    1    4    4  501    0 -0.11025162801E+02  0.10694563559E+02  0.60887832121E+01  0.17043285643E+02  0.41800000000E+01 0. -1.
         -5    1    4    4    0  501  0.83664268995E+02 -0.97851148162E+01 -0.28390804813E+03  0.29617007035E+03  0.41800000000E+01 0. -1.
</event>
<event>
11    1  0.6625361E-009  0.1976481E+03  0.7561462E-02  0.1056199E+00
         22   -1    0    0    0    0  0.00000000000E+00  0.00000000000E+00  0.37297026769E+03  0.37297026769E+03  0.00000000000E+00 0.  1.
         22   -1    0    0    0    0 -0.00000000000E+00 -0.00000000000E+00 -0.89154218658E+03  0.89154218658E+03  0.00000000000E+00 0. -1.
        -24    2    1    2    0    0  0.32441831573E+02 -0.12586002299E+02 -0.72729006489E+03  0.73253730961E+03  0.80306859017E+02 0.  0.
         25    2    1    2    0    0  0.12040027012E+03 -0.28864829535E+02 -0.80050900357E+02  0.19335197667E+03  0.12508971503E+03 0.  0.
         24    2    1    2    0    0 -0.15284210169E+03  0.41450831834E+02  0.28876904635E+03  0.33862316799E+03  0.78735051029E+02 0.  0.
        -11    1    5    5    0    0 -0.94162322419E+01  0.22988659695E+02  0.86371249599E+02  0.89872891694E+02  0.00000000000E+00 0.  1.
         12    1    5    5    0    0 -0.14342586945E+03  0.18462172139E+02  0.20239779675E+03  0.24875027629E+03  0.00000000000E+00 0. -1.
         11    1    3    3    0    0  0.19056626735E+02 -0.87464677589E+01 -0.71012390809E+03  0.71043340333E+03  0.00000000000E+00 0. -1.
        -12    1    3    3    0    0  0.13385204838E+02 -0.38395345398E+01 -0.17166156797E+02  0.22103906288E+02  0.00000000000E+00 0.  1.
          5    1    4    4  501    0  0.11807859719E+03 -0.52642554253E+02 -0.98742921153E+02  0.16273116023E+03  0.41800000000E+01 0.  1.
         -5    1    4    4    0  501  0.23216729302E+01  0.23777724718E+02  0.18692020796E+02  0.30620816439E+02  0.41800000000E+01 0.  1.
</event>
<event>
11    1  0.6625361E-009  0.2104007E+03  0.7561462E-02  0.1047403E+00
         22   -1    0    0    0    0  0.00000000000E+00  0.00000000000E+00  0.53330010638E+03  0.53330010638E+03  0.00000000000E+00 0.  1.
         22   -1    0    0    0    0 -0.00000000000E+00 -0.00000000000E+00 -0.69605135780E+03  0.69605135780E+03  0.00000000000E+00 0. -1.
         24    2    1    2    0    0  0.13085896372E+03 -0.10244625207E+03 -0.29218161084E+03  0.34556921088E+03  0.80179067400E+02 0.  0.
         25    2    1    2    0    0 -0.13414590492E+03  0.10859214163E+03 -0.34333776943E+03  0.40412330914E+03  0.12508975993E+03 0.  0.
        -24    2    1    2    0    0  0.32869411983E+01 -0.61458895536E+01  0.47276812885E+03  0.47965894417E+03  0.80711976329E+02 0.  0.
        -13    1    3    3    0    0  0.27154973549E+01 -0.36570638169E+02 -0.91020069729E+02  0.98129702922E+02  0.00000000000E+00 0.  1.
         14    1    3    3    0    0  0.12814346636E+03 -0.65875613904E+02 -0.20116154111E+03  0.24743950796E+03  0.00000000000E+00 0. -1.
         13    1    5    5    0    0 -0.27487781572E+02  0.56689428617E+01  0.68189426103E+02  0.73739493362E+02  0.00000000000E+00 0. -1.
        -14    1    5    5    0    0  0.30774722770E+02 -0.11814832415E+02  0.40457870275E+03  0.40591945081E+03  0.00000000000E+00 0.  1.
          5    1    4    4  501    0  0.19002521597E+02  0.22316879884E+02 -0.18963810384E+02  0.35160168644E+02  0.41800000000E+01 0.  1.
         -5    1    4    4    0  501 -0.15314842651E+03  0.86275261743E+02 -0.32437395905E+03  0.36896314049E+03  0.41800000000E+01 0.  1.
</event>
<event>
11    1  0.6625361E-009  0.1322424E+03  0.7561462E-02  0.1116544E+00
         22   -1    0    0    0    0  0.00000000000E+00  0.00000000000E+00  0.28529555812E+03  0.28529555812E+03  0.00000000000E+00 0. -1.
         22   -1    0    0    0    0 -0.00000000000E+00 -0.00000000000E+00 -0.13364256827E+04  0.13364256827E+04  0.00000000000E+00 0. -1.
        -24    2    1    2    0    0  0.20851454803E+02 -0.38166473684E+02 -0.12421766822E+04  0.12454694380E+04  0.79370955263E+02 0.  0.
         25    2    1    2    0    0  0.32726538684E+00  0.29988823908E+02 -0.42446419948E+02  0.13545727784E+03  0.12509012307E+03 0.  0.
         24    2    1    2    0    0 -0.21178720190E+02  0.81776497755E+01  0.23349297749E+03  0.24079452497E+03  0.54291993656E+02 0.  0.
        -11    1    5    5    0    0 -0.16188367016E+02  0.11574956635E+02  0.23839814575E+02  0.31054461945E+02  0.00000000000E+00 0.  1.
         12    1    5    5    0    0 -0.49903531739E+01 -0.33973068591E+01  0.20965316291E+03  0.20974006303E+03  0.00000000000E+00 0. -1.
         13    1    3    3    0    0  0.11300709331E+02 -0.61760557187E+02 -0.74473028821E+03  0.74737224637E+03  0.00000000000E+00 0. -1.
        -14    1    3    3    0    0  0.95507454717E+01  0.23594083504E+02 -0.49744639394E+03  0.49809719168E+03  0.00000000000E+00 0.  1.
          5    1    4    4  501    0 -0.21347653019E+02 -0.13240047473E+01 -0.79334657848E+02  0.82273541396E+02  0.41800000000E+01 0.  1.
         -5    1    4    4    0  501  0.21674918406E+02  0.31312828655E+02  0.36888237900E+02  0.53183736440E+02  0.41800000000E+01 0.  1.
</event>
<event>
11    1  0.6625361E-009  0.1479057E+03  0.7561462E-02  0.1099038E+00
         22   -1    0    0    0    0  0.00000000000E+00  0.00000000000E+00  0.16199419254E+03  0.16199419254E+03  0.00000000000E+00 0.  1.
         22   -1    0    0    0    0 -0.00000000000E+00 -0.00000000000E+00 -0.71927040796E+03  0.71927040796E+03  0.00000000000E+00 0. -1.
         24    2    1    2    0    0  0.43251841299E+01 -0.15790235859E+02 -0.57338264446E+03  0.57730486802E+03  0.65155313703E+02 0.  0.
         25    2    1    2    0    0 -0.17216872289E+02 -0.65158307173E+02 -0.70350280562E+02  0.15854936123E+03  0.12508681899E+03 0.  0.
        -24    2    1    2    0    0  0.12891688159E+02  0.80948543032E+02  0.86456709608E+02  0.14541037125E+03  0.83369965739E+02 0.  0.
        -11    1    3    3    0    0 -0.11242509132E+02 -0.60324434408E+01 -0.20694712574E+02  0.24311633306E+02  0.00000000000E+00 0.  1.
         12    1    3    3    0    0  0.15567693262E+02 -0.97577924183E+01 -0.55268793189E+03  0.55299323472E+03  0.00000000000E+00 0. -1.
         13    1    5    5    0    0 -0.29663550209E+02  0.53773003015E+02  0.68059802153E+02  0.91671144497E+02  0.00000000000E+00 0. -1.
        -14    1    5    5    0    0  0.42555238369E+02  0.27175540016E+02  0.18396907456E+02  0.53739226750E+02  0.00000000000E+00 0.  1.
          5    1    4    4  501    0 -0.45759156122E+02  0.11579358080E+02 -0.59176258894E+02  0.75810843019E+02  0.41800000000E+01 0.  1.
         -5    1    4    4    0  501  0.28542283833E+02 -0.76737665253E+02 -0.11174021668E+02  0.82738518207E+02  0.41800000000E+01 0.  1.
</event>
<event>
11    1  0.6625361E-009  0.1937679E+03  0.7561462E-02  0.1059020E+00
         22   -1    0    0    0    0  0.00000000000E+00  0.00000000000E+00  0.23691385062E+04  0.23691385062E+04  0.00000000000E+00 0. -1.
         22   -1    0    0    0    0 -0.00000000000E+00 -0.00000000000E+00 -0.10241823284E+03  0.10241823284E+03  0.00000000000E+00 0. -1.
         24    2    1    2    0    0  0.29666257146E+02 -0.71805879604E+01 -0.64022799565E+02  0.10715465969E+03  0.80321569782E+02 0.  0.
         25    2    1    2    0    0  0.62940313439E+02 -0.11636551146E+03  0.66890207344E+03  0.69323910818E+03  0.12509221381E+03 0.  0.
        -24    2    1    2    0    0 -0.92606570585E+02  0.12354609942E+03  0.16618409995E+04  0.16711629712E+04  0.85032658642E+02 0.  0.
        -13    1    3    3    0    0  0.16055355452E+02 -0.16862022788E+01  0.17797333996E+02  0.24028375188E+02  0.00000000000E+00 0.  1.
         14    1    3    3    0    0  0.13610901694E+02 -0.54943856815E+01 -0.81820133561E+02  0.83126284501E+02  0.00000000000E+00 0. -1.
         13    1    5    5    0    0 -0.51294183745E+02  0.85677033323E+02  0.13912640588E+04  0.13948431197E+04  0.00000000000E+00 0. -1.
        -14    1    5    5    0    0 -0.41312386839E+02  0.37869066098E+02  0.27057694074E+03  0.27631985150E+03  0.00000000000E+00 0.  1.
          5    1    4    4  501    0  0.34648854970E+02 -0.75092175647E+02  0.14533427737E+03  0.16726895281E+03  0.41800000000E+01 0. -1.
         -5    1    4    4    0  501  0.28291458469E+02 -0.41273335813E+02  0.52356779607E+03  0.52597015538E+03  0.41800000000E+01 0. -1.
</event>
<event>
11    1  0.6625361E-009  0.1553722E+03  0.7561462E-02  0.1091512E+00
         22   -1    0    0    0    0  0.00000000000E+00  0.00000000000E+00  0.23106903333E+04  0.23106903333E+04  0.00000000000E+00 0.  1.
         22   -1    0    0    0    0 -0.00000000000E+00 -0.00000000000E+00 -0.10475035614E+04  0.10475035614E+04  0.00000000000E+00 0. -1.
        -24    2    1    2    0    0 -0.68814162459E+02  0.43911751332E+02 -0.97731762500E+03  0.98465814587E+03  0.87967569243E+02 0.  0.
         25    2    1    2    0    0  0.13942479764E+02 -0.11810533978E+03  0.50124905170E+02  0.17973022146E+03  0.12508869797E+03 0.  0.
         24    2    1    2    0    0  0.54871682694E+02  0.74193588450E+02  0.21903794917E+04  0.21938055274E+04  0.80652240853E+02 0.  0.
        -13    1    5    5    0    0  0.56058138811E+02  0.90248205613E+02  0.18550073372E+04  0.18580472208E+04  0.00000000000E+00 0.  1.
         14    1    5    5    0    0 -0.11864561163E+01 -0.16054617163E+02  0.33537215450E+03  0.33575830656E+03  0.00000000000E+00 0. -1.
         13    1    3    3    0    0 -0.77453702625E+02  0.48232583112E+02 -0.96343157565E+03  0.96774266161E+03  0.00000000000E+00 0. -1.
        -14    1    3    3    0    0  0.86395401661E+01 -0.43208317801E+01 -0.13886049343E+02  0.16915484265E+02  0.00000000000E+00 0.  1.
          5    1    4    4  501    0  0.17946350725E+02 -0.97856018808E+00  0.59297528016E+02  0.62102321319E+02  0.41800000000E+01 0.  1.
         -5    1    4    4    0  501 -0.40038709611E+01 -0.11712677959E+03 -0.91726228458E+01  0.11762790014E+03  0.41800000000E+01 0.  1.
</event>
<event>
11    1  0.6625361E-009  0.1638430E+03  0.7561462E-02  0.1083517E+00
         22   -1    0    0    0    0  0.00000000000E+00  0.00000000000E+00  0.47976667180E+03  0.47976667180E+03  0.00000000000E+00 0. -1.
         22   -1    0    0    0    0 -0.00000000000E+00 -0.00000000000E+00 -0.31477344416E+03  0.31477344416E+03  0.00000000000E+00 0. -1.
        -24    2    1    2    0    0  0.88108486469E+02 -0.83892647439E+02 -0.20736253781E+03  0.25316612253E+03  0.79327056079E+02 0.  0.
         25    2    1    2    0    0 -0.64971482370E+02  0.17914494190E+02 -0.12028585378E+02  0.14259864269E+03  0.12508982135E+03 0.  0.
         24    2    1    2    0    0 -0.23137004099E+02  0.65978153249E+02  0.38438435084E+03  0.39877535074E+03  0.79887505443E+02 0.  0.
        -13    1    5    5    0    0 -0.88940665466E+01  0.56658355122E+02  0.11172863523E+03  0.12558885920E+03  0.00000000000E+00 0.  1.
         14    1    5    5    0    0 -0.14242937553E+02  0.93197981272E+01  0.27265571561E+03  0.27318649155E+03  0.00000000000E+00 0. -1.
         13    1    3    3    0    0  0.30870792382E+02 -0.75850543032E+02 -0.15438745116E+03  0.17476211196E+03  0.00000000000E+00 0. -1.
        -14    1    3    3    0    0  0.57237694088E+02 -0.80421044068E+01 -0.52975086654E+02  0.78404010572E+02  0.00000000000E+00 0.  1.
          5    1    4    4  501    0  0.16098381243E+02  0.50539629526E+02  0.50982614199E+01  0.53449758660E+02  0.41800000000E+01 0.  1.
         -5    1    4    4    0  501 -0.81069863613E+02 -0.32625135337E+02 -0.17126846798E+02  0.89148884026E+02  0.41800000000E+01 0.  1.
</event>
<event>
11    1  0.6625361E-009  0.1511917E+03  0.7561462E-02  0.1095667E+00
         22   -1    0    0    0    0  0.00000000000E+00  0.00000000000E+00  0.17654312389E+04  0.17654312389E+04  0.00000000000E+00 0. -1.
         22   -1    0    0    0    0 -0.00000000000E+00 -0.00000000000E+00 -0.19580376116E+03  0.19580376116E+03  0.00000000000E+00 0.  1.
         24    2    1    2    0    0  0.28702454087E+02  0.79470492326E+02 -0.16060527985E+03  0.19928742281E+03  0.82353087075E+02 0.  0.
         25    2    1    2    0    0 -0.19059542536E+02 -0.92934167948E+02  0.40624452529E+03  0.43552719689E+03  0.12509715893E+03 0.  0.
        -24    2    1    2    0    0 -0.96429115507E+01  0.13463675622E+02  0.13239882323E+04  0.13264203803E+04  0.78561631058E+02 0.  0.
        -11    1    3    3    0    0  0.44472682269E+02  0.88800987957E+02 -0.12967957722E+03  0.16334083286E+03  0.00000000000E+00 0.  1.
         12    1    3    3    0    0 -0.15770228182E+02 -0.93304956315E+01 -0.30925702631E+02  0.35946589947E+02  0.00000000000E+00 0. -1.
         11    1    5    5    0    0 -0.19447601369E+02  0.87439380618E+01  0.12988871621E+04  0.12990621715E+04  0.00000000000E+00 0. -1.
        -12    1    5    5    0    0  0.98046898183E+01  0.47197375605E+01  0.25101070202E+02  0.27358208829E+02  0.00000000000E+00 0.  1.
          5    1    4    4  501    0 -0.72590080196E+02 -0.56743188332E+02  0.24193819577E+03  0.25892213528E+03  0.41800000000E+01 0. -1.
         -5    1    4    4    0  501  0.53530537660E+02 -0.36190979616E+02  0.16430632952E+03  0.17660506161E+03  0.41800000000E+01 0. -1.
</event>
<event>
11    1  0.6625361E-009  0.1711414E+03  0.7561462E-02  0.1077043E+00
         22   -1    0    0    0    0  0.00000000000E+00  0.00000000000E+00  0.15990097539E+03  0.15990097539E+03  0.00000000000E+00 0. -1.
         22   -1    0    0    0    0 -0.00000000000E+00 -0.00000000000E+00 -0.13100544960E+04  0.13100544960E+04  0.00000000000E+00 0.  1.
         24    2    1    2    0    0 -0.11186646718E+03 -0.72769989161E+01 -0.80335873396E+03  0.81500920575E+03  0.79294948313E+02 0.  0.
         25    2    1    2    0    0  0.12718678700E+03  0.40206428908E+02 -0.46989112345E+03  0.50422057177E+03  0.12509069265E+03 0.  0.
        -24    2    1    2    0    0 -0.15320319823E+02 -0.32929429992E+02  0.12309633677E+03  0.15072569390E+03  0.79034594415E+02 0.  0.
        -11    1    3    3    0    0 -0.90558497835E+02  0.18296244501E+02 -0.70810862012E+03  0.71411022398E+03  0.00000000000E+00 0.  1.
         12    1    3    3    0    0 -0.21307969343E+02 -0.25573243417E+02 -0.95250113841E+02  0.10089898177E+03  0.00000000000E+00 0. -1.
         13    1    5    5    0    0  0.19501479224E+02 -0.25908889325E+02  0.10685351539E+03  0.11166580492E+03  0.00000000000E+00 0. -1.
        -14    1    5    5    0    0 -0.34821799048E+02 -0.70205406670E+01  0.16242821386E+02  0.39059888975E+02  0.00000000000E+00 0.  1.
          5    1    4    4  501    0  0.61955563645E+02  0.24537006298E+02 -0.62946848486E+02  0.91762381611E+02  0.41800000000E+01 0. -1.
         -5    1    4    4    0  501  0.65231223357E+02  0.15669422610E+02 -0.40694427496E+03  0.41245819016E+03  0.41800000000E+01 0. -1.
</event>
<event>
11    1  0.6625361E-009  0.1485850E+03  0.7561462E-02  0.1098334E+00
         22   -1    0    0    0    0  0.00000000000E+00  0.00000000000E+00  0.44508278446E+03  0.44508278446E+03  0.00000000000E+00 0.  1.
         22   -1    0    0    0    0 -0.00000000000E+00 -0.00000000000E+00 -0.23114680191E+03  0.23114680191E+03  0.00000000000E+00 0. -1.
         24    2    1    2    0    0 -0.24878258735E+02 -0.56199711778E+02 -0.14791531874E+03  0.17886515556E+03  0.79601928339E+02 0.  0.
         25    2    1    2    0    0 -0.13833982219E+02  0.11944678311E+03  0.75507114919E+02  0.18922958425E+03  0.12509035971E+03 0.  0.
        -24    2    1    2    0    0  0.38712240954E+02 -0.63247071329E+02  0.28634418637E+03  0.30813484656E+03  0.86343853107E+02 0.  0.
        -13    1    3    3    0    0  0.39241564113E+01  0.18659064919E+02 -0.40915021315E+02  0.45139768236E+02  0.00000000000E+00 0.  1.
         14    1    3    3    0    0 -0.28802415147E+02 -0.74858776697E+02 -0.10700029742E+03  0.13372538733E+03  0.00000000000E+00 0. -1.
         11    1    5    5    0    0  0.27115363415E+02  0.11495067704E+02  0.35450956062E+02  0.46088499654E+02  0.00000000000E+00 0. -1.
        -12    1    5    5    0    0  0.11596877539E+02 -0.74742139033E+02  0.25089323030E+03  0.26204634691E+03  0.00000000000E+00 0.  1.
          5    1    4    4  501    0  0.26837973498E+02  0.10176479110E+03  0.93832568201E+02  0.14106159216E+03  0.41800000000E+01 0. -1.
         -5    1    4    4    0  501 -0.40671955717E+02  0.17681992008E+02 -0.18325453282E+02  0.48167992082E+02  0.41800000000E+01 0. -1.
</event>
<event>
11    1  0.6625361E-009  0.1476493E+03  0.7561462E-02  0.1099305E+00
         22   -1    0    0    0    0  0.00000000000E+00  0.00000000000E+00  0.54899339649E+03  0.54899339649E+03  0.00000000000E+00 0. -1.
         22   -1    0    0    0    0 -0.00000000000E+00 -0.00000000000E+00 -0.20125806486E+04  0.20125806486E+04  0.00000000000E+00 0.  1.
        -24    2    1    2    0    0 -0.35745302606E+02  0.72878463392E+02 -0.18545367677E+04  0.18576782688E+04  0.71224506330E+02 0.  0.
         25    2    1    2    0    0 -0.36443474569E+02 -0.36126494080E+02 -0.11981161067E+03  0.18065293621E+03  0.12508961146E+03 0.  0.
         24    2    1    2    0    0  0.72188777175E+02 -0.36751969313E+02  0.51076112625E+03  0.52324284016E+03  0.79650580002E+02 0.  0.
        -13    1    5    5    0    0  0.82070568658E+01  0.12288589982E+02  0.24690185181E+03  0.24734366710E+03  0.00000000000E+00 0.  1.
         14    1    5    5    0    0  0.63981720309E+02 -0.49040559295E+02  0.26385927444E+03  0.27589917306E+03  0.00000000000E+00 0. -1.
         13    1    3    3    0    0  0.21133408952E+02  0.30106135293E+02 -0.60793573690E+03  0.60904750271E+03  0.00000000000E+00 0. -1.
        -14    1    3    3    0    0 -0.56878711558E+02  0.42772328099E+02 -0.12466010308E+04  0.12486307661E+04  0.00000000000E+00 0.  1.
          5    1    4    4  501    0  0.16765544455E+02 -0.48435053546E+02 -0.11462754470E+03  0.12563432770E+03  0.41800000000E+01 0.  1.
         -5    1    4    4    0  501 -0.53209019024E+02  0.12308559466E+02 -0.51840659655E+01  0.55018608502E+02  0.41800000000E+01 0.  1.
</event>
<event>
11    1  0.6625361E-009  0.2295859E+03  0.7561462E-02  0.1035373E+00
         22   -1    0    0    0    0  0.00000000000E+00  0.00000000000E+00  0.97029176856E+03  0.97029176856E+03  0.00000000000E+00 0. -1.
         22   -1    0    0    0    0 -0.00000000000E+00 -0.00000000000E+00 -0.39390566306E+03  0.39390566306E+03  0.00000000000E+00 0.  1.
        -24    2    1    2    0    0  0.14578708343E+02 -0.13863151740E+02 -0.29805240153E+03  0.31205683767E+03  0.90219233879E+02 0.  0.
         25    2    1    2    0    0 -0.16919410722E+03 -0.99853921634E+02  0.10648419086E+03  0.25609402320E+03  0.12509122365E+03 0.  0.
         24    2    1    2    0    0  0.15461539888E+03  0.11371707337E+03  0.76795431617E+03  0.79604657075E+03  0.84254476020E+02 0.  0.
        -13    1    5    5    0    0  0.71498765985E+01  0.17331268661E+02  0.19158125719E+02  0.26805361215E+02  0.00000000000E+00 0.  1.
         14    1    5    5    0    0  0.14746552228E+03  0.96385804713E+02  0.74879619046E+03  0.76924120954E+03  0.00000000000E+00 0. -1.
         13    1    3    3    0    0 -0.37515761928E+00 -0.15047883027E+02 -0.15020344405E+01  0.15127314180E+02  0.00000000000E+00 0. -1.
        -14    1    3    3    0    0  0.14953865962E+02  0.11847312866E+01 -0.29655036709E+03  0.29692952349E+03  0.00000000000E+00 0.  1.
          5    1    4    4  501    0 -0.16578925875E+03 -0.11703129062E+03  0.11794019093E+03  0.23475468544E+03  0.41800000000E+01 0. -1.
         -5    1    4    4    0  501 -0.34048484712E+01  0.17177368991E+02 -0.11456000065E+02  0.21339337760E+02  0.41800000000E+01 0. -1.
</event>
<event>
11    1  0.6625361E-009  0.1599478E+03  0.7561462E-02  0.1087126E+00
         22   -1    0    0    0    0  0.00000000000E+00  0.00000000000E+00  0.54008891434E+03  0.54008891434E+03  0.00000000000E+00 0. -1.
         22   -1    0    0    0    0 -0.00000000000E+00 -0.00000000000E+00 -0.10461228177E+04  0.10461228177E+04  0.00000000000E+00 0. -1.
        -24    2    1    2    0    0 -0.18078810425E+00  0.10817045641E+02 -0.74764975540E+03  0.75211200208E+03  0.81088012448E+02 0.  0.
         25    2    1    2    0    0 -0.47871317729E+02  0.76814178227E+02 -0.26734550544E+03  0.30872908410E+03  0.12509175454E+03 0.  0.
         24    2    1    2    0    0  0.48052105834E+02 -0.87631223868E+02  0.50896135753E+03  0.52537064581E+03  0.83572817054E+02 0.  0.
        -13    1    5    5    0    0 -0.24128079464E+02 -0.19590996528E+02  0.12340534695E+03  0.12725899190E+03  0.00000000000E+00 0.  1.
         14    1    5    5    0    0  0.72180185297E+02 -0.68040227340E+02  0.38555601058E+03  0.39811165391E+03  0.00000000000E+00 0. -1.
         11    1    3    3    0    0 -0.17341634374E+02 -0.20404397154E+02 -0.58470719187E+03  0.58532005940E+03  0.00000000000E+00 0. -1.
        -12    1    3    3    0    0  0.17160846270E+02  0.31221442795E+02 -0.16294256353E+03  0.16679194268E+03  0.00000000000E+00 0.  1.
          5    1    4    4  501    0 -0.45016575604E+02 -0.25491011524E+02 -0.85542703461E+02  0.10005653533E+03  0.41800000000E+01 0. -1.
         -5    1    4    4    0  501 -0.28547421253E+01  0.10230518975E+03 -0.18180280197E+03  0.20867254877E+03  0.41800000000E+01 0. -1.
</event>
<event>
11    1  0.6625361E-009  0.1615583E+03  0.7561462E-02  0.1085621E+00
         22   -1    0    0    0    0  0.00000000000E+00  0.00000000000E+00  0.16043585363E+03  0.16043585363E+03  0.00000000000E+00 0.  1.
         22   -1    0    0    0    0 -0.00000000000E+00 -0.00000000000E+00 -0.14543876754E+04  0.14543876754E+04  0.00000000000E+00 0. -1.
        -24    2    1    2    0    0  0.96288880338E+02 -0.32535091364E+02 -0.13417592650E+04  0.13479561521E+04  0.79610188618E+02 0.  0.
         25    2    1    2    0    0 -0.11660132573E+03  0.28489756526E+02  0.29073472441E+01  0.17338568912E+03  0.12508640668E+03 0.  0.
         24    2    1    2    0    0  0.20312445388E+02  0.40453348377E+01  0.44900096009E+02  0.93481687780E+02  0.79333770597E+02 0.  0.
        -13    1    5    5    0    0 -0.17044529965E+02  0.61494034288E+01  0.52291909241E+02  0.55342343069E+02  0.00000000000E+00 0.  1.
         14    1    5    5    0    0  0.37356975353E+02 -0.21040685911E+01 -0.73918132324E+01  0.38139344712E+02  0.00000000000E+00 0. -1.
         11    1    3    3    0    0  0.88630344735E+02  0.33286488314E+01 -0.10807470343E+04  0.10843802701E+04  0.00000000000E+00 0. -1.
        -12    1    3    3    0    0  0.76585356037E+01 -0.35863740195E+02 -0.26101223065E+03  0.26357588201E+03  0.00000000000E+00 0.  1.
          5    1    4    4  501    0 -0.38374879569E+02 -0.30865397960E+02  0.44647817897E+02  0.66604836282E+02  0.41800000000E+01 0.  1.
         -5    1    4    4    0  501 -0.78226446158E+02  0.59355154486E+02 -0.41740470653E+02  0.10678085284E+03  0.41800000000E+01 0.  1.
</event>
<event>
11    1  0.6625361E-009  0.1343340E+03  0.7561462E-02  0.1114056E+00
         22   -1    0    0    0    0  0.00000000000E+00  0.00000000000E+00  0.67875527359E+03  0.67875527359E+03  0.00000000000E+00 0. -1.
         22   -1    0    0    0    0 -0.00000000000E+00 -0.00000000000E+00 -0.12613161657E+04  0.12613161657E+04  0.00000000000E+00 0. -1.
         24    2    1    2    0    0  0.70326402372E+01  0.48775606751E+02 -0.12302130725E+04  0.12338042582E+04  0.80126312009E+02 0.  0.
         25    2    1    2    0    0 -0.25373541988E+02 -0.17374103268E+02  0.13684961606E+03  0.18793911895E+03  0.12509044295E+03 0.  0.
        -24    2    1    2    0    0  0.18340901751E+02 -0.31401503483E+02  0.51080256434E+03  0.51832806215E+03  0.80139111457E+02 0.  0.
        -11    1    3    3    0    0  0.27841148523E+01  0.27915333803E+02 -0.11444978379E+03  0.11783789784E+03  0.00000000000E+00 0.  1.
         12    1    3    3    0    0  0.42485253850E+01  0.20860272948E+02 -0.11157632887E+04  0.11159663603E+04  0.00000000000E+00 0. -1.
         13    1    5    5    0    0  0.29814762308E+01  0.15295527102E+02  0.34598470872E+03  0.34633547468E+03  0.00000000000E+00 0. -1.
        -14    1    5    5    0    0  0.15359425520E+02 -0.46697030585E+02  0.16481785561E+03  0.17199258747E+03  0.00000000000E+00 0.  1.
          5    1    4    4  501    0 -0.54066004470E+01 -0.42877231659E+02 -0.37654189320E+01  0.43581407766E+02  0.41800000000E+01 0. -1.
         -5    1    4    4    0  501 -0.19966941541E+02  0.25503128391E+02  0.14061503500E+03  0.14435771119E+03  0.41800000000E+01 0. -1.
</event>
<event>
11    1  0.6625361E-009  0.1447421E+03  0.7561462E-02  0.1102376E+00
         22   -1    0    0    0    0  0.00000000000E+00  0.00000000000E+00  0.57454656503E+03  0.57454656503E+03  0.00000000000E+00 0. -1.
         22   -1    0    0    0    0 -0.00000000000E+00 -0.00000000000E+00 -0.31384764165E+03  0.31384764165E+03  0.00000000000E+00 0.  1.
         24    2    1    2    0    0 -0.26760871934E+02 -0.33828040591E+02 -0.25682999327E+03  0.27225650647E+03  0.79381857340E+02 0.  0.
         25    2    1    2    0    0  0.21746389242E+01 -0.40922303307E+02  0.60717491875E+02  0.14495932297E+03  0.12508887853E+03 0.  0.
        -24    2    1    2    0    0  0.24586233009E+02  0.74750343899E+02  0.45681142478E+03  0.47117837724E+03  0.84500228423E+02 0.  0.
        -13    1    3    3    0    0 -0.18505626164E+02  0.21857010403E+02 -0.13563682295E+03  0.13862732358E+03  0.00000000000E+00 0.  1.
         14    1    3    3    0    0 -0.82552457698E+01 -0.55685050994E+02 -0.12119317032E+03  0.13362918289E+03  0.00000000000E+00 0. -1.
         13    1    5    5    0    0 -0.62194620163E+00  0.17036504837E+02  0.32124784647E+03  0.32169987282E+03  0.00000000000E+00 0. -1.
        -14    1    5    5    0    0  0.25208179211E+02  0.57713839061E+02  0.13556357831E+03  0.14947850442E+03  0.00000000000E+00 0.  1.
          5    1    4    4  501    0  0.21513197237E+02  0.41177168419E+02  0.27926416804E+02  0.54366662669E+02  0.41800000000E+01 0.  1.
         -5    1    4    4    0  501 -0.19338558312E+02 -0.82099471726E+02  0.32791075071E+02  0.90592660297E+02  0.41800000000E+01 0.  1.
</event>
<event>
11    1  0.6625361E-009  0.2322337E+03  0.7561462E-02  0.1033814E+00
         22   -1    0    0    0    0  0.00000000000E+00  0.00000000000E+00  0.77097864760E+03  0.77097864760E+03  0.00000000000E+00 0. -1.
         22   -1    0    0    0    0 -0.00000000000E+00 -0.00000000000E+00 -0.72370988347E+03  0.72370988347E+03  0.00000000000E+00 0.  1.
         24    2    1    2    0    0  0.19807391393E+03  0.64574171587E+02 -0.61888762531E+03  0.65792446295E+03  0.80247163014E+02 0.  0.
         25    2    1    2    0    0 -0.11721992622E+03 -0.57776787480E+02  0.21709484219E+02  0.18220056815E+03  0.12508827704E+03 0.  0.
        -24    2    1    2    0    0 -0.80853987712E+02 -0.67973841073E+01  0.64444690521E+03  0.65456349998E+03  0.80981418287E+02 0.  0.
        -11    1    3    3    0    0  0.16315552974E+03  0.16734593221E+02 -0.45123493088E+03  0.48011741933E+03  0.00000000000E+00 0.  1.
         12    1    3    3    0    0  0.34918384190E+02  0.47839578365E+02 -0.16765269442E+03  0.17780704362E+03  0.00000000000E+00 0. -1.
         11    1    5    5    0    0 -0.55604153297E+01 -0.32835577743E+02  0.24461687664E+03  0.24687346905E+03  0.00000000000E+00 0. -1.
        -12    1    5    5    0    0 -0.75293572382E+02  0.26038193636E+02  0.39983002857E+03  0.40769003092E+03  0.00000000000E+00 0.  1.
          5    1    4    4  501    0 -0.10248960413E+03  0.15748914275E+02  0.25969161700E+02  0.10697671249E+03  0.41800000000E+01 0.  1.
         -5    1    4    4    0  501 -0.14730322085E+02 -0.73525701755E+02 -0.42596774809E+01  0.75223855654E+02  0.41800000000E+01 0.  1.
</event>
<event>
11    1  0.6625361E-009  0.1495211E+03  0.7561462E-02  0.1097369E+00
         22   -1    0    0    0    0  0.00000000000E+00  0.00000000000E+00  0.13145041759E+04  0.13145041759E+04  0.00000000000E+00 0.  1.
         22   -1    0    0    0    0 -0.00000000000E+00 -0.00000000000E+00 -0.29708558220E+03  0.29708558220E+03  0.00000000000E+00 0. -1.
         24    2    1    2    0    0  0.29431906347E+02 -0.25058071480E+02 -0.27582137894E+03  0.29009142898E+03  0.81126198163E+02 0.  0.
         25    2    1    2    0    0 -0.39452615138E+02  0.97702489747E+02  0.65243951882E+03  0.67262811452E+03  0.12509584081E+03 0.  0.
        -24    2    1    2    0    0  0.10020708790E+02 -0.72644418267E+02  0.64080045379E+03  0.64887021457E+03  0.70920431983E+02 0.  0.
        -13    1    3    3    0    0  0.27278550987E+02  0.23654795825E+02 -0.72350233168E+02  0.80859291049E+02  0.00000000000E+00 0.  1.
         14    1    3    3    0    0  0.21533553600E+01 -0.48712867305E+02 -0.20347114577E+03  0.20923213793E+03  0.00000000000E+00 0. -1.
         11    1    5    5    0    0 -0.71087138915E+01  0.12686815499E+02  0.11489428725E+03  0.11581099405E+03  0.00000000000E+00 0. -1.
        -12    1    5    5    0    0  0.17129422682E+02 -0.85331233766E+02  0.52590616654E+03  0.53305922052E+03  0.00000000000E+00 0.  1.
          5    1    4    4  501    0  0.28781262604E+02  0.81485796005E+02  0.45265416989E+03  0.46084874520E+03  0.41800000000E+01 0.  1.
         -5    1    4    4    0  501 -0.68233877742E+02  0.16216693741E+02  0.19978534892E+03  0.21177936933E+03  0.41800000000E+01 0.  1.
</event>
<event>
11    1  0.6625361E-009  0.1585490E+03  0.7561462E-02  0.1088450E+00
         22   -1    0    0    0    0  0.00000000000E+00  0.00000000000E+00  0.12002189671E+03  0.12002189671E+03  0.00000000000E+00 0.  1.
         22   -1    0    0    0    0 -0.00000000000E+00 -0.00000000000E+00 -0.85937518459E+03  0.85937518459E+03  0.00000000000E+00 0.  1.
        -24    2    1    2    0    0  0.82977955387E+02  0.56672268507E+02 -0.61816981389E+03  0.63160952168E+03  0.81850974177E+02 0.  0.
         25    2    1    2    0    0 -0.79166843883E+02 -0.34519355211E+02 -0.18719019513E+03  0.24113618513E+03  0.12509002988E+03 0.  0.
         24    2    1    2    0    0 -0.38111115048E+01 -0.22152913296E+02  0.66006721143E+02  0.10665137449E+03  0.80699146868E+02 0.  0.
        -13    1    5    5    0    0 -0.41429216667E+02 -0.19160460075E+02  0.30994883437E+02  0.55174142704E+02  0.00000000000E+00 0.  1.
         14    1    5    5    0    0  0.37618105162E+02 -0.29924532210E+01  0.35011837707E+02  0.51477231781E+02  0.00000000000E+00 0. -1.
         13    1    3    3    0    0  0.53465725138E+01 -0.19237051642E+02 -0.12889173135E+03  0.13042901672E+03  0.00000000000E+00 0. -1.
        -14    1    3    3    0    0  0.77631382874E+02  0.75909320149E+02 -0.48927808254E+03  0.50118050496E+03  0.00000000000E+00 0.  1.
          5    1    4    4  501    0 -0.10332545231E+03 -0.28352706153E+02 -0.87817431014E+02  0.13859797485E+03  0.41800000000E+01 0.  1.
         -5    1    4    4    0  501  0.24158608428E+02 -0.61666490579E+01 -0.99372764111E+02  0.10253821029E+03  0.41800000000E+01 0.  1.
</event>
<event>
11    1  0.6625361E-009  0.1988903E+03  0.7561462E-02  0.1055311E+00
         22   -1    0    0    0    0  0.00000000000E+00  0.00000000000E+00  0.11216572560E+04  0.11216572560E+04  0.00000000000E+00 0.  1.
         22   -1    0    0    0    0 -0.00000000000E+00 -0.00000000000E+00 -0.17997789784E+04  0.17997789784E+04  0.00000000000E+00 0.  1.
        -24    2    1    2    0    0  0.10001452145E+03 -0.86030204936E+01 -0.16522488856E+04  0.16571716150E+04  0.78831879284E+02 0.  0.
         25    2    1    2    0    0 -0.22848063812E+03 -0.69554128218E+02 -0.52989370509E+01  0.26965210343E+03  0.12507197688E+03 0.  0.
         24    2    1    2    0    0  0.12846611667E+03  0.78157148712E+02  0.97942610028E+03  0.99461251592E+03  0.85828246474E+02 0.  0.
        -11    1    5    5    0    0  0.67761238143E+02  0.72953409256E+01  0.60103134603E+03  0.60488303523E+03  0.00000000000E+00 0.  1.
         12    1    5    5    0    0  0.60704878528E+02  0.70861807786E+02  0.37839475425E+03  0.38972948070E+03  0.00000000000E+00 0. -1.
         13    1    3    3    0    0  0.32594221658E+02  0.33738798788E+02 -0.51078747461E+03  0.51293716384E+03  0.00000000000E+00 0. -1.
        -14    1    3    3    0    0  0.67420299788E+02 -0.42341819281E+02 -0.11414614110E+04  0.11442344512E+04  0.00000000000E+00 0.  1.
          5    1    4    4  501    0 -0.21114587173E+03 -0.27905716344E+02 -0.34433046160E+02  0.21578789406E+03  0.41800000000E+01 0.  1.
         -5    1    4    4    0  501 -0.17334766385E+02 -0.41648411875E+02  0.29134109109E+02  0.53864209368E+02  0.41800000000E+01 0.  1.
</event>
<event>
11    1  0.6625361E-009  0.1480219E+03  0.7561462E-02  0.1098917E+00
         22   -1    0    0    0    0  0.00000000000E+00  0.00000000000E+00  0.12203044632E+03  0.12203044632E+03  0.00000000000E+00 0.  1.
         22   -1    0    0    0    0 -0.00000000000E+00 -0.00000000000E+00 -0.56542513183E+03  0.56542513183E+03  0.00000000000E+00 0.  1.
        -24    2    1    2    0    0 -0.11311573489E+03  0.52241917274E+02 -0.46755467673E+02  0.15930047820E+03  0.87556731316E+02 0.  0.
         25    2    1    2    0    0  0.71156418891E+02  0.42243104321E+01 -0.39460881834E+03  0.42005380157E+03  0.12509195000E+03 0.  0.
         24    2    1    2    0    0  0.41959315996E+02 -0.56466227706E+02 -0.20303994914E+01  0.10810129838E+03  0.82053330939E+02 0.  0.
        -11    1    5    5    0    0  0.56350259551E+02 -0.45494142025E+02 -0.26975359532E+02  0.77283495857E+02  0.00000000000E+00 0.  1.
         12    1    5    5    0    0 -0.14390943555E+02 -0.10972085681E+02  0.24944960041E+02  0.30817802518E+02  0.00000000000E+00 0. -1.
         11    1    3    3    0    0 -0.84762352518E+02  0.34443887114E+02  0.11397116383E+02  0.92200499054E+02  0.00000000000E+00 0. -1.
        -12    1    3    3    0    0 -0.28353382369E+02  0.17798030160E+02 -0.58152584056E+02  0.67099979149E+02  0.00000000000E+00 0.  1.
          5    1    4    4  501    0  0.50794923357E+01  0.45558666783E+02 -0.55630107306E+02  0.72205087081E+02  0.41800000000E+01 0.  1.
         -5    1    4    4    0  501  0.66076926555E+02 -0.41334356351E+02 -0.33897871104E+03  0.34784871449E+03  0.41800000000E+01 0.  1.
</event>
<event>
11    1  0.6625361E-009  0.1489250E+03  0.7561462E-02  0.1097982E+00
         22   -1    0    0    0    0  0.00000000000E+00  0.00000000000E+00  0.88295519977E+03  0.88295519977E+03  0.00000000000E+00 0. -1.
         22   -1    0    0    0    0 -0.00000000000E+00 -0.00000000000E+00 -0.30471040393E+03  0.30471040393E+03  0.00000000000E+00 0. -1.
        -24    2    1    2    0    0 -0.97881339470E+00 -0.80608050523E+02 -0.25818343784E+03  0.28188410141E+03  0.79381000042E+02 0.  0.
         25    2    1    2    0    0 -0.45917130452E+02  0.84104601030E+02  0.17167308591E+03  0.23302529019E+03  0.12508865120E+03 0.  0.
         24    2    1    2    0    0  0.46895943847E+02 -0.34965505069E+01  0.66475514777E+03  0.67275621211E+03  0.92141516301E+02 0.  0.
        -11    1    5    5    0    0 -0.15517431869E+00  0.16971642293E+02  0.21191384527E+02  0.27150239398E+02  0.00000000000E+00 0.  1.
         12    1    5    5    0    0  0.47051118165E+02 -0.20468192800E+02  0.64356376324E+03  0.64560597271E+03  0.00000000000E+00 0. -1.
         11    1    3    3    0    0 -0.36815595167E+02 -0.63413236569E+02 -0.17187369759E+03  0.18686143139E+03  0.00000000000E+00 0. -1.
        -12    1    3    3    0    0  0.35836781772E+02 -0.17194813954E+02 -0.86309740251E+02  0.95022670016E+02  0.00000000000E+00 0.  1.
          5    1    4    4  501    0 -0.72594141972E+02  0.93727989376E+02  0.97660105875E+02  0.15365485388E+03  0.41800000000E+01 0. -1.
         -5    1    4    4    0  501  0.26677011521E+02 -0.96233883464E+01  0.74012980033E+02  0.79370436312E+02  0.41800000000E+01 0. -1.
</event>
<event>
11    1  0.6625361E-009  0.1390202E+03  0.7561462E-02  0.1108657E+00
         22   -1    0    0    0    0  0.00000000000E+00  0.00000000000E+00  0.27459212580E+03  0.27459212580E+03  0.00000000000E+00 0. -1.
         22   -1    0    0    0    0 -0.00000000000E+00 -0.00000000000E+00 -0.15912824458E+04  0.15912824458E+04  0.00000000000E+00 0.  1.
        -24    2    1    2    0    0 -0.56650829464E+00  0.13222955421E+02 -0.12807762060E+04  0.12834205509E+04  0.81273938953E+02 0.  0.
         25    2    1    2    0    0  0.50847219695E+02  0.21106767897E+02 -0.28346984996E+03  0.31469611222E+03  0.12509017472E+03 0.  0.
         24    2    1    2    0    0 -0.50280711401E+02 -0.34329723317E+02  0.24755573594E+03  0.26775790850E+03  0.81876585950E+02 0.  0.
        -11    1    5    5    0    0 -0.12893324146E+02 -0.36257917001E+02  0.35281905542E+02  0.52208114422E+02  0.00000000000E+00 0.  1.
         12    1    5    5    0    0 -0.37387387255E+02  0.19281936837E+01  0.21227383040E+03  0.21554979408E+03  0.00000000000E+00 0. -1.
         11    1    3    3    0    0  0.21299835372E+02 -0.63206782546E+01 -0.10721109330E+03  0.10948905190E+03  0.00000000000E+00 0. -1.
        -12    1    3    3    0    0 -0.21866343666E+02  0.19543633675E+02 -0.11735651127E+04  0.11739314990E+04  0.00000000000E+00 0.  1.
          5    1    4    4  501    0  0.42137077191E+02 -0.25767806376E+02 -0.32659260994E+02  0.59360027361E+02  0.41800000000E+01 0. -1.
         -5    1    4    4    0  501  0.87101425044E+01  0.46874574273E+02 -0.25081058896E+03  0.25533608486E+03  0.41800000000E+01 0. -1.
</event>
<event>
11    1  0.6625361E-009  0.1425118E+03  0.7561462E-02  0.1104786E+00
         22   -1    0    0    0    0  0.00000000000E+00  0.00000000000E+00  0.46786495880E+03  0.46786495880E+03  0.00000000000E+00 0.  1.
         22   -1    0    0    0    0 -0.00000000000E+00 -0.00000000000E+00 -0.35459290770E+03  0.35459290770E+03  0.00000000000E+00 0.  1.
        -24    2    1    2    0    0 -0.14681393853E+02  0.64790885246E+02 -0.30386368121E+03  0.32265913536E+03  0.85804304890E+02 0.  0.
         25    2    1    2    0    0  0.26376557218E+02 -0.10739164146E+03  0.18251688257E+03  0.24736260133E+03  0.12508859536E+03 0.  0.
         24    2    1    2    0    0 -0.11695163365E+02  0.42600756212E+02  0.23461884973E+03  0.25243612981E+03  0.82014594488E+02 0.  0.
        -13    1    5    5    0    0 -0.34581133399E+02  0.41494773232E+02  0.21675110955E+03  0.22338020164E+03  0.00000000000E+00 0.  1.
         14    1    5    5    0    0  0.22885970034E+02  0.11059829803E+01  0.17867740176E+02  0.29055928168E+02  0.00000000000E+00 0. -1.
         11    1    3    3    0    0  0.15766978711E+02 -0.15037909325E+02 -0.43793306750E+02  0.48914108912E+02  0.00000000000E+00 0. -1.
        -12    1    3    3    0    0 -0.30448372564E+02  0.79828794570E+02 -0.26007037446E+03  0.27374502645E+03  0.00000000000E+00 0.  1.
          5    1    4    4  501    0  0.58864128501E+02 -0.15203296118E+02  0.10938910105E+03  0.12521810439E+03  0.41800000000E+01 0. -1.
         -5    1    4    4    0  501 -0.32487571283E+02 -0.92188345340E+02  0.73127781522E+02  0.12214449695E+03  0.41800000000E+01 0. -1.
</event>
<event>
11    1  0.6625361E-009  0.1478126E+03  0.7561462E-02  0.1099135E+00
         22   -1    0    0    0    0  0.00000000000E+00  0.00000000000E+00  0.79895826308E+03  0.79895826308E+03  0.00000000000E+00 0.  1.
         22   -1    0    0    0    0 -0.00000000000E+00 -0.00000000000E+00 -0.14010390567E+03  0.14010390567E+03  0.00000000000E+00 0.  1.
        -24    2    1    2    0    0  0.38590588514E+01  0.54151964313E+02 -0.90137067791E+02  0.13140318061E+03  0.78706907639E+02 0.  0.
         25    2    1    2    0    0 -0.80934432224E+02 -0.54682111922E+02  0.24721897570E+03  0.29377748392E+03  0.12508985741E+03 0.  0.
         24    2    1    2    0    0  0.77075373373E+02  0.53014760956E+00  0.50177244951E+03  0.51388150422E+03  0.79735281176E+02 0.  0.
        -13    1    5    5    0    0  0.51147011474E+02  0.25716605302E+02  0.15507277461E+03  0.16530252871E+03  0.00000000000E+00 0.  1.
         14    1    5    5    0    0  0.25928361898E+02 -0.25186457692E+02  0.34669967489E+03  0.34857897552E+03  0.00000000000E+00 0. -1.
         11    1    3    3    0    0  0.30496387974E+02  0.51239393287E+02 -0.32659698775E+02  0.67986476802E+02  0.00000000000E+00 0. -1.
        -12    1    3    3    0    0 -0.26637329123E+02  0.29125710259E+01 -0.57477369015E+02  0.63416703807E+02  0.00000000000E+00 0.  1.
          5    1    4    4  501    0 -0.73575998962E+02 -0.93369070068E+02  0.19100880639E+03  0.22501788237E+03  0.41800000000E+01 0. -1.
         -5    1    4    4    0  501 -0.73584332622E+01  0.38686958146E+02  0.56210169315E+02  0.68759601548E+02  0.41800000000E+01 0. -1.
</event>
<event>
11    1  0.6625361E-009  0.2222822E+03  0.7561462E-02  0.1039797E+00
         22   -1    0    0    0    0  0.00000000000E+00  0.00000000000E+00  0.38392932180E+03  0.38392932180E+03  0.00000000000E+00 0. -1.
         22   -1    0    0    0    0 -0.00000000000E+00 -0.00000000000E+00 -0.37621360068E+03  0.37621360068E+03  0.00000000000E+00 0.  1.
        -24    2    1    2    0    0 -0.13220857831E+03 -0.92037769972E+02 -0.16206260237E+03  0.24256655221E+03  0.81389101730E+02 0.  0.
         25    2    1    2    0    0  0.19384961210E+03  0.21229621272E+03  0.35259114336E+02  0.31549755278E+03  0.12509255223E+03 0.  0.
         24    2    1    2    0    0 -0.61641033788E+02 -0.12025844275E+03  0.13451920915E+03  0.20207881749E+03  0.66923245204E+02 0.  0.
        -13    1    5    5    0    0 -0.41243004179E+02 -0.17252268532E+02  0.29459362909E+02  0.53539520227E+02  0.00000000000E+00 0.  1.
         14    1    5    5    0    0 -0.20398029609E+02 -0.10300617421E+03  0.10505984625E+03  0.14853929726E+03  0.00000000000E+00 0. -1.
         13    1    3    3    0    0 -0.75505763165E+02 -0.50067416491E+01 -0.80637786218E+02  0.11058318271E+03  0.00000000000E+00 0. -1.
        -14    1    3    3    0    0 -0.56702815149E+02 -0.87031028323E+02 -0.81424816157E+02  0.13198336949E+03  0.00000000000E+00 0.  1.
          5    1    4    4  501    0  0.19250795346E+03  0.16422639100E+03 -0.42640206359E+01  0.25311118884E+03  0.41800000000E+01 0.  1.
         -5    1    4    4    0  501  0.13416586459E+01  0.48069821723E+02  0.39523134972E+02  0.62386363946E+02  0.41800000000E+01 0.  1.
</event>
<event>
11    1  0.6625361E-009  0.1539133E+03  0.7561462E-02  0.1092946E+00
         22   -1    0    0    0    0  0.00000000000E+00  0.00000000000E+00  0.53105867473E+03  0.53105867473E+03  0.00000000000E+00 0. -1.
         22   -1    0    0    0    0 -0.00000000000E+00 -0.00000000000E+00 -0.45020123970E+03  0.45020123970E+03  0.00000000000E+00 0.  1.
        -24    2    1    2    0    0 -0.23349673452E+02  0.33828202482E+02 -0.37070175179E+03  0.38157366666E+03  0.80555072965E+02 0.  0.
         25    2    1    2    0    0 -0.52499746699E+01  0.56174927583E+02  0.72844857547E+01  0.13741909726E+03  0.12509100621E+03 0.  0.
         24    2    1    2    0    0  0.28599648122E+02 -0.90003130066E+02  0.44427470106E+03  0.46226715050E+03  0.85979097117E+02 0.  0.
        -13    1    5    5    0    0  0.26966394840E+02 -0.49646743277E+01  0.36141878827E+02  0.45365954713E+02  0.00000000000E+00 0.  1.
         14    1    5    5    0    0  0.16332532826E+01 -0.85038455738E+02  0.40813282223E+03  0.41690119579E+03  0.00000000000E+00 0. -1.
         13    1    3    3    0    0  0.88164695344E+01 -0.16095044292E+02 -0.19991975223E+03  0.20076027475E+03  0.00000000000E+00 0. -1.
        -14    1    3    3    0    0 -0.32166142987E+02  0.49923246774E+02 -0.17078199956E+03  0.18081339191E+03  0.00000000000E+00 0.  1.
          5    1    4    4  501    0 -0.28686196065E+02  0.86967005477E+02 -0.14507619765E+02  0.92812183024E+02  0.41800000000E+01 0.  1.
         -5    1    4    4    0  501  0.23436221395E+02 -0.30792077894E+02  0.21792105520E+02  0.44606914232E+02  0.41800000000E+01 0.  1.
</event>
<event>
11    1  0.6625361E-009  0.1944064E+03  0.7561462E-02  0.1058551E+00
         22   -1    0    0    0    0  0.00000000000E+00  0.00000000000E+00  0.29273642545E+04  0.29273642545E+04  0.00000000000E+00 0. -1.
         22   -1    0    0    0    0 -0.00000000000E+00 -0.00000000000E+00 -0.27035639904E+03  0.27035639904E+03  0.00000000000E+00 0. -1.
         24    2    1    2    0    0 -0.19217849853E+02  0.15118665244E+03 -0.22729786632E+03  0.28538488485E+03  0.80953584482E+02 0.  0.
         25    2    1    2    0    0  0.13318380644E+02 -0.90547961520E+02  0.45073823986E+03  0.47664412565E+03  0.12509336131E+03 0.  0.
        -24    2    1    2    0    0  0.58994692092E+01 -0.60638690916E+02  0.24335674819E+04  0.24356916431E+04  0.81432403771E+02 0.  0.
        -11    1    3    3    0    0  0.10613272247E+02  0.54489967535E+01 -0.61444177555E+02  0.62591693289E+02  0.00000000000E+00 0.  1.
         12    1    3    3    0    0 -0.29831122100E+02  0.14573765568E+03 -0.16585368876E+03  0.22279319156E+03  0.00000000000E+00 0. -1.
         11    1    5    5    0    0  0.20929452498E+02 -0.34798640562E+02  0.21784984005E+04  0.21788768365E+04  0.00000000000E+00 0. -1.
        -12    1    5    5    0    0 -0.15029983289E+02 -0.25840050354E+02  0.25506908141E+03  0.25681480661E+03  0.00000000000E+00 0.  1.
          5    1    4    4  501    0 -0.41582334400E+02 -0.56788193067E+02  0.34962791562E+03  0.35666670883E+03  0.41800000000E+01 0. -1.
         -5    1    4    4    0  501  0.54900715045E+02 -0.33759768452E+02  0.10111032424E+03  0.11997741681E+03  0.41800000000E+01 0. -1.
</event>
<event>
11    1  0.6625361E-009  0.1305382E+03  0.7561462E-02  0.1118609E+00
         22   -1    0    0    0    0  0.00000000000E+00  0.00000000000E+00  0.38466242308E+03  0.38466242308E+03  0.00000000000E+00 0. -1.
         22   -1    0    0    0    0 -0.00000000000E+00 -0.00000000000E+00 -0.23159094939E+03  0.23159094939E+03  0.00000000000E+00 0. -1.
         24    2    1    2    0    0 -0.18342164600E+02  0.19102714163E+02 -0.11924864700E+03  0.14589239396E+03  0.79768428041E+02 0.  0.
         25    2    1    2    0    0  0.50085054657E+02 -0.26629475979E+00 -0.43933819653E+02  0.14172514456E+03  0.12508897825E+03 0.  0.
        -24    2    1    2    0    0 -0.31742890058E+02 -0.18836419404E+02  0.31625394034E+03  0.32863583395E+03  0.81378958012E+02 0.  0.
        -13    1    3    3    0    0  0.23199721982E+02  0.21926330894E+02 -0.18538656575E+02  0.36914399279E+02  0.00000000000E+00 0.  1.
         14    1    3    3    0    0 -0.41541886581E+02 -0.28236167311E+01 -0.10070999043E+03  0.10897799468E+03  0.00000000000E+00 0. -1.
         13    1    5    5    0    0 -0.49173068240E+02 -0.99265647688E+01  0.29689999925E+03  0.30110818136E+03  0.00000000000E+00 0. -1.
        -14    1    5    5    0    0  0.17430178183E+02 -0.89098546347E+01  0.19353941093E+02  0.27527652586E+02  0.00000000000E+00 0.  1.
          5    1    4    4  501    0 -0.15664339358E+02 -0.44449258560E+01  0.34998226050E+02  0.38826242673E+02  0.41800000000E+01 0.  1.
         -5    1    4    4    0  501  0.65749394015E+02  0.41786310962E+01 -0.78932045704E+02  0.10289890189E+03  0.41800000000E+01 0.  1.
</event>
<event>
11    1  0.6625361E-009  0.1430575E+03  0.7561462E-02  0.1104191E+00
         22   -1    0    0    0    0  0.00000000000E+00  0.00000000000E+00  0.10478805533E+03  0.10478805533E+03  0.00000000000E+00 0.  1.
         22   -1    0    0    0    0 -0.00000000000E+00 -0.00000000000E+00 -0.13983924331E+04  0.13983924331E+04  0.00000000000E+00 0.  1.
         24    2    1    2    0    0  0.72566458422E+01 -0.23501821411E+02 -0.12197794242E+04  0.12226930216E+04  0.80693165893E+02 0.  0.
         25    2    1    2    0    0 -0.74593787229E+02  0.10689674745E+02 -0.97244334582E+02  0.17545222558E+03  0.12509404708E+03 0.  0.
        -24    2    1    2    0    0  0.67337141387E+02  0.12812146667E+02  0.23419380993E+02  0.10503524119E+03  0.76062426824E+02 0.  0.
        -13    1    3    3    0    0 -0.58414283846E+01 -0.44820573181E+02 -0.10602793302E+04  0.10612423211E+04  0.00000000000E+00 0.  1.
         14    1    3    3    0    0  0.13098074227E+02  0.21318751769E+02 -0.15950009398E+03  0.16145070054E+03  0.00000000000E+00 0. -1.
         11    1    5    5    0    0  0.26802370519E+02 -0.77268437552E+01 -0.25835708100E+02  0.38020454927E+02  0.00000000000E+00 0. -1.
        -12    1    5    5    0    0  0.40534770868E+02  0.20538990422E+02  0.49255089093E+02  0.67014786267E+02  0.00000000000E+00 0.  1.
          5    1    4    4  501    0 -0.36554087977E+02  0.27303427257E+02 -0.11963212379E+03  0.12810540945E+03  0.41800000000E+01 0. -1.
         -5    1    4    4    0  501 -0.38039699252E+02 -0.16613752512E+02  0.22387789211E+02  0.47346816128E+02  0.41800000000E+01 0. -1.
</event>
<event>
11    1  0.6625361E-009  0.1273241E+03  0.7561462E-02  0.1122601E+00
         22   -1    0    0    0    0  0.00000000000E+00  0.00000000000E+00  0.38124599928E+02  0.38124599928E+02  0.00000000000E+00 0.  1.
         22   -1    0    0    0    0 -0.00000000000E+00 -0.00000000000E+00 -0.19839996386E+04  0.19839996386E+04  0.00000000000E+00 0. -1.
        -24    2    1    2    0    0 -0.12346244142E+02 -0.35777768461E+01 -0.16010483413E+04  0.16029363852E+04  0.76707455075E+02 0.  0.
         25    2    1    2    0    0 -0.13795213635E+02  0.25363269381E+01 -0.29551327338E+03  0.32120329360E+03  0.12508685065E+03 0.  0.
         24    2    1    2    0    0  0.26141457777E+02  0.10414499080E+01 -0.49313424050E+02  0.97984559758E+02  0.80527633311E+02 0.  0.
        -11    1    5    5    0    0 -0.18693955026E+02 -0.26178566113E+02 -0.17094399743E+02  0.36428008192E+02  0.00000000000E+00 0.  1.
         12    1    5    5    0    0  0.44835412803E+02  0.27220016021E+02 -0.32219024307E+02  0.61556551566E+02  0.00000000000E+00 0. -1.
         11    1    3    3    0    0 -0.63564051924E+01 -0.36432625485E+02 -0.11747125309E+04  0.11752945462E+04  0.00000000000E+00 0. -1.
        -12    1    3    3    0    0 -0.59898389496E+01  0.32854848639E+02 -0.42633581036E+03  0.42764183898E+03  0.00000000000E+00 0.  1.
          5    1    4    4  501    0 -0.54157694159E+02 -0.31809088488E+02 -0.22017633763E+03  0.22899774234E+03  0.41800000000E+01 0. -1.
         -5    1    4    4    0  501  0.40362480523E+02  0.34345415426E+02 -0.75336935748E+02  0.92205551257E+02  0.41800000000E+01 0. -1.
</event>
<event>
11    1  0.6625361E-009  0.2519087E+03  0.7561462E-02  0.1022887E+00
         22   -1    0    0    0    0  0.00000000000E+00  0.00000000000E+00  0.64543623434E+03  0.64543623434E+03  0.00000000000E+00 0. -1.
         22   -1    0    0    0    0 -0.00000000000E+00 -0.00000000000E+00 -0.34989792543E+03  0.34989792543E+03  0.00000000000E+00 0.  1.
         24    2    1    2    0    0  0.47113729462E+02 -0.20531571982E+03 -0.20385924241E+03  0.30391070014E+03  0.80180263378E+02 0.  0.
         25    2    1    2    0    0 -0.36820471434E+02  0.25242981028E+03  0.13361912024E+03  0.31397362887E+03  0.12509522011E+03 0.  0.
        -24    2    1    2    0    0 -0.10293258028E+02 -0.47114090454E+02  0.36577843107E+03  0.37744983077E+03  0.79679516988E+02 0.  0.
        -11    1    3    3    0    0  0.65979619692E+02 -0.17668092949E+03 -0.15446564806E+03  0.24378083906E+03  0.00000000000E+00 0.  1.
         12    1    3    3    0    0 -0.18865890230E+02 -0.28634790331E+02 -0.49393594348E+02  0.60129861085E+02  0.00000000000E+00 0. -1.
         13    1    5    5    0    0  0.15941711372E+02 -0.59177223642E+02  0.28886009529E+03  0.29529008891E+03  0.00000000000E+00 0. -1.
        -14    1    5    5    0    0 -0.26234969400E+02  0.12063133189E+02  0.76918335781E+02  0.82159741852E+02  0.00000000000E+00 0.  1.
          5    1    4    4  501    0 -0.54658981677E+02  0.24143867841E+03  0.86538842435E+02  0.26227215513E+03  0.41800000000E+01 0.  1.
         -5    1    4    4    0  501  0.17838510243E+02  0.10991131870E+02  0.47080277808E+02  0.51701473731E+02  0.41800000000E+01 0.  1.
</event>
<event>
11    1  0.6625361E-009  0.1705096E+03  0.7561462E-02  0.1077589E+00
         22   -1    0    0    0    0  0.00000000000E+00  0.00000000000E+00  0.10264798824E+04  0.10264798824E+04  0.00000000000E+00 0.  1.
         22   -1    0    0    0    0 -0.00000000000E+00 -0.00000000000E+00 -0.13093156692E+03  0.13093156692E+03  0.00000000000E+00 0. -1.
         24    2    1    2    0    0 -0.91022004055E+02 -0.71524460287E+02 -0.68912429863E+02  0.15535671270E+03  0.77369448429E+02 0.  0.
         25    2    1    2    0    0  0.10217748320E+03  0.60231194604E+02  0.47875096158E+03  0.50883026887E+03  0.12505088734E+03 0.  0.
        -24    2    1    2    0    0 -0.11155479144E+02  0.11293265683E+02  0.48570978373E+03  0.49322446772E+03  0.84287596828E+02 0.  0.
        -13    1    3    3    0    0 -0.18585311277E+02  0.13735454961E+02 -0.27833318746E+02  0.36176928430E+02  0.00000000000E+00 0.  1.
         14    1    3    3    0    0 -0.72436692779E+02 -0.85259915248E+02 -0.41079111117E+02  0.11917978427E+03  0.00000000000E+00 0. -1.
         11    1    5    5    0    0 -0.29891146903E+02  0.18002895989E+01  0.60588648821E+02  0.67584806516E+02  0.00000000000E+00 0. -1.
        -12    1    5    5    0    0  0.18735667758E+02  0.94929760839E+01  0.42512113491E+03  0.42563966121E+03  0.00000000000E+00 0.  1.
          5    1    4    4  501    0  0.55767145297E+02  0.45466985399E+02  0.44157497216E+03  0.44741831623E+03  0.41800000000E+01 0. -1.
         -5    1    4    4    0  501  0.46410337902E+02  0.14764209205E+02  0.37175989420E+02  0.61411952639E+02  0.41800000000E+01 0. -1.
</event>
<event>
11    1  0.6625361E-009  0.1685944E+03  0.7561462E-02  0.1079261E+00
         22   -1    0    0    0    0  0.00000000000E+00  0.00000000000E+00  0.39808441431E+03  0.39808441431E+03  0.00000000000E+00 0.  1.
         22   -1    0    0    0    0 -0.00000000000E+00 -0.00000000000E+00 -0.24698311249E+04  0.24698311249E+04  0.00000000000E+00 0.  1.
         24    2    1    2    0    0 -0.71038910055E+02 -0.30929864340E+02 -0.23599442556E+04  0.23626724760E+04  0.82952734240E+02 0.  0.
         25    2    1    2    0    0  0.35352053718E+02  0.13657411569E+03  0.32575657675E+01  0.18857428312E+03  0.12508953489E+03 0.  0.
        -24    2    1    2    0    0  0.35686856337E+02 -0.10564425135E+03  0.28493997920E+03  0.31666878013E+03  0.81572452503E+02 0.  0.
        -11    1    3    3    0    0 -0.86898516768E+02 -0.20589046997E+02 -0.15983308724E+04  0.16008238001E+04  0.00000000000E+00 0.  1.
         12    1    3    3    0    0  0.15859606713E+02 -0.10340817343E+02 -0.76161338312E+03  0.76184867590E+03  0.00000000000E+00 0. -1.
         11    1    5    5    0    0  0.65743650778E+01 -0.69241568417E+02  0.77836053124E+02  0.10438423367E+03  0.00000000000E+00 0. -1.
        -12    1    5    5    0    0  0.29112491260E+02 -0.36402682936E+02  0.20710392607E+03  0.21228454646E+03  0.00000000000E+00 0.  1.
          5    1    4    4  501    0 -0.40928120366E+02  0.40092680049E+02 -0.24445148493E+02  0.62430535118E+02  0.41800000000E+01 0. -1.
         -5    1    4    4    0  501  0.76280174084E+02  0.96481435644E+02  0.27702714261E+02  0.12614374800E+03  0.41800000000E+01 0. -1.
</event>
<event>
11    1  0.6625361E-009  0.1421188E+03  0.7561462E-02  0.1105215E+00
         22   -1    0    0    0    0  0.00000000000E+00  0.00000000000E+00  0.50588383341E+03  0.50588383341E+03  0.00000000000E+00 0.  1.
         22   -1    0    0    0    0 -0.00000000000E+00 -0.00000000000E+00 -0.33885887332E+03  0.33885887332E+03  0.00000000000E+00 0. -1.
         24    2    1    2    0    0  0.69649326535E+02  0.13767736033E+02 -0.26894140858E+03  0.28941426108E+03  0.79940940858E+02 0.  0.
         25    2    1    2    0    0 -0.39824892234E+02 -0.68536375904E+01  0.22727333728E+02  0.13340832606E+03  0.12509298691E+03 0.  0.
        -24    2    1    2    0    0 -0.29824434301E+02 -0.69140984425E+01  0.41323903494E+03  0.42192011959E+03  0.79453040717E+02 0.  0.
        -13    1    3    3    0    0 -0.17492337327E+02 -0.33333235565E+00 -0.30568279122E+02  0.35220912312E+02  0.00000000000E+00 0.  1.
         14    1    3    3    0    0  0.87141663862E+02  0.14101068389E+02 -0.23837312946E+03  0.25419334877E+03  0.00000000000E+00 0. -1.
         11    1    5    5    0    0 -0.18347965908E+02  0.13420815297E+02  0.28419258566E+02  0.36392587070E+02  0.00000000000E+00 0. -1.
        -12    1    5    5    0    0 -0.11476468393E+02 -0.20334913740E+02  0.38481977638E+03  0.38552753252E+03  0.00000000000E+00 0.  1.
          5    1    4    4  501    0 -0.72336367738E+02  0.17710045750E+02 -0.16829051576E+02  0.76464927875E+02  0.41800000000E+01 0. -1.
         -5    1    4    4    0  501  0.32511475504E+02 -0.24563683341E+02  0.39556385305E+02  0.56943398187E+02  0.41800000000E+01 0. -1.
</event>
<event>
11    1  0.6625361E-009  0.1878809E+03  0.7561462E-02  0.1063441E+00
         22   -1    0    0    0    0  0.00000000000E+00  0.00000000000E+00  0.49775166826E+03  0.49775166826E+03  0.00000000000E+00 0.  1.
         22   -1    0    0    0    0 -0.00000000000E+00 -0.00000000000E+00 -0.73829544773E+03  0.73829544773E+03  0.00000000000E+00 0. -1.
         24    2    1    2    0    0 -0.49189340356E+02 -0.53957616764E+01 -0.61762858373E+03  0.62427686918E+03  0.76209162819E+02 0.  0.
         25    2    1    2    0    0  0.58855174418E+02  0.14385964607E+03 -0.26275888819E+01  0.19953476655E+03  0.12509072513E+03 0.  0.
        -24    2    1    2    0    0 -0.96658340623E+01 -0.13846388439E+03  0.37971239315E+03  0.41223548026E+03  0.80566209072E+02 0.  0.
        -13    1    3    3    0    0  0.13981127070E+02 -0.21407816378E+02 -0.18935615017E+03  0.19107464019E+03  0.00000000000E+00 0.  1.
         14    1    3    3    0    0 -0.63170467426E+02  0.16012054702E+02 -0.42827243356E+03  0.43320222899E+03  0.00000000000E+00 0. -1.
         13    1    5    5    0    0  0.35628184811E+02 -0.55385760375E+02  0.15809216364E+03  0.17126027622E+03  0.00000000000E+00 0. -1.
        -14    1    5    5    0    0 -0.45294018873E+02 -0.83078124018E+02  0.22162022951E+03  0.24097520404E+03  0.00000000000E+00 0.  1.
          5    1    4    4  501    0 -0.25573924167E+02  0.98430988280E+02 -0.14592518288E+02  0.10282557581E+03  0.41800000000E+01 0.  1.
         -5    1    4    4    0  501  0.84429098586E+02  0.45428657789E+02  0.11964929406E+02  0.96709190733E+02  0.41800000000E+01 0.  1.
</event>
<event>
11    1  0.6625361E-009  0.1530670E+03  0.7561462E-02  0.1093785E+00
         22   -1    0    0    0    0  0.00000000000E+00  0.00000000000E+00  0.22176227149E+03  0.22176227149E+03  0.00000000000E+00 0.  1.
         22   -1    0    0    0    0 -0.00000000000E+00 -0.00000000000E+00 -0.10099591050E+04  0.10099591050E+04  0.00000000000E+00 0.  1.
        -24    2    1    2    0    0 -0.44913025530E+02 -0.65269300747E+02 -0.64893079962E+03  0.65864064971E+03  0.80119044383E+02 0.  0.
         25    2    1    2    0    0  0.35243451506E+02  0.14169989602E+03 -0.31242957464E+03  0.36683779300E+03  0.12504705455E+03 0.  0.
         24    2    1    2    0    0  0.96695740243E+01 -0.76430595276E+02  0.17316354071E+03  0.20624293382E+03  0.81335105373E+02 0.  0.
        -11    1    5    5    0    0  0.17390191661E+02 -0.81184695216E+02  0.17767415811E+03  0.19611598600E+03  0.00000000000E+00 0.  1.
         12    1    5    5    0    0 -0.77206176369E+01  0.47540999402E+01 -0.45106174030E+01  0.10126947827E+02  0.00000000000E+00 0. -1.
         11    1    3    3    0    0 -0.13924313007E+02  0.12383671737E+02 -0.41612484968E+02  0.45594305824E+02  0.00000000000E+00 0. -1.
        -12    1    3    3    0    0 -0.30988712523E+02 -0.77652972484E+02 -0.60731831465E+03  0.61304634389E+03  0.00000000000E+00 0.  1.
          5    1    4    4  501    0  0.15626901381E+02 -0.35654616482E+01  0.48908767413E+01  0.17271526824E+02  0.41800000000E+01 0. -1.
         -5    1    4    4    0  501  0.19616550125E+02  0.14526535767E+03 -0.31732045138E+03  0.34956626617E+03  0.41800000000E+01 0. -1.
</event>
<event>
11    1  0.6625361E-009  0.1372286E+03  0.7561462E-02  0.1110693E+00
         22   -1    0    0    0    0  0.00000000000E+00  0.00000000000E+00  0.12171168832E+04  0.12171168832E+04  0.00000000000E+00 0.  1.
         22   -1    0    0    0    0 -0.00000000000E+00 -0.00000000000E+00 -0.29377306220E+03  0.29377306220E+03  0.00000000000E+00 0. -1.
        -24    2    1    2    0    0 -0.26437285580E+02  0.60908842073E+01 -0.25595882956E+03  0.26817275098E+03  0.75270664926E+02 0.  0.
         25    2    1    2    0    0 -0.13929682418E+02  0.35619156880E+02  0.11585262894E+03  0.17473458840E+03  0.12509030483E+03 0.  0.
         24    2    1    2    0    0  0.40366967998E+02 -0.41710041087E+02  0.10634500216E+04  0.10679826060E+04  0.79320102268E+02 0.  0.
        -13    1    5    5    0    0  0.18118220528E+02 -0.42178270475E+02  0.99389067031E+03  0.99495022033E+03  0.00000000000E+00 0.  1.
         14    1    5    5    0    0  0.22248747471E+02  0.46822938784E+00  0.69559351314E+02  0.73032385679E+02  0.00000000000E+00 0. -1.
         11    1    3    3    0    0 -0.42258744545E+02 -0.18604753125E+02 -0.19678456111E+03  0.20212892376E+03  0.00000000000E+00 0. -1.
        -12    1    3    3    0    0  0.15821458965E+02  0.24695637332E+02 -0.59174268453E+02  0.66043827221E+02  0.00000000000E+00 0.  1.
          5    1    4    4  501    0 -0.66832919871E+00  0.72387336077E+02  0.26647632067E+02  0.77252454867E+02  0.41800000000E+01 0.  1.
         -5    1    4    4    0  501 -0.13261353220E+02 -0.36768179198E+02  0.89204996875E+02  0.97482133533E+02  0.41800000000E+01 0.  1.
</event>
<event>
11    1  0.6625361E-009  0.1744295E+03  0.7561462E-02  0.1074240E+00
         22   -1    0    0    0    0  0.00000000000E+00  0.00000000000E+00  0.13618046237E+04  0.13618046237E+04  0.00000000000E+00 0. -1.
         22   -1    0    0    0    0 -0.00000000000E+00 -0.00000000000E+00 -0.96675624928E+03  0.96675624928E+03  0.00000000000E+00 0.  1.
         24    2    1    2    0    0  0.10022068374E+03 -0.68360900126E+02 -0.94004417703E+03  0.95124317071E+03  0.80393513023E+02 0.  0.
         25    2    1    2    0    0 -0.13635294467E+03  0.55296283404E+02  0.47737269227E+03  0.51495794516E+03  0.12508874240E+03 0.  0.
        -24    2    1    2    0    0  0.36132260935E+02  0.13064616721E+02  0.85771985919E+03  0.86235975711E+03  0.80652150329E+02 0.  0.
        -11    1    3    3    0    0  0.49793856805E+02 -0.76992560766E+02 -0.51118530377E+03  0.51934352541E+03  0.00000000000E+00 0.  1.
         12    1    3    3    0    0  0.50426826934E+02  0.86316606404E+01 -0.42885887326E+03  0.43189964530E+03  0.00000000000E+00 0. -1.
         13    1    5    5    0    0  0.44708916648E+00  0.39164618123E+02  0.56083859306E+03  0.56220458435E+03  0.00000000000E+00 0. -1.
        -14    1    5    5    0    0  0.35685171768E+02 -0.26100001402E+02  0.29688126613E+03  0.30015517276E+03  0.00000000000E+00 0.  1.
          5    1    4    4  501    0 -0.27263089920E+02 -0.26001414900E+02  0.33173071667E+02  0.50371368183E+02  0.41800000000E+01 0. -1.
         -5    1    4    4    0  501 -0.10908985475E+03  0.81297698304E+02  0.44419962060E+03  0.46458657697E+03  0.41800000000E+01 0. -1.
</event>
<event>
11    1  0.6625361E-009  0.1668131E+03  0.7561462E-02  0.1080839E+00
         22   -1    0    0    0    0  0.00000000000E+00  0.00000000000E+00  0.16337630683E+04  0.16337630683E+04  0.00000000000E+00 0. -1.
         22   -1    0    0    0    0 -0.00000000000E+00 -0.00000000000E+00 -0.54534934857E+03  0.54534934857E+03  0.00000000000E+00 0. -1.
        -24    2    1    2    0    0  0.30959562343E+02 -0.10215188703E+03 -0.43332880825E+03  0.45336340345E+03  0.79818650750E+02 0.  0.
         25    2    1    2    0    0 -0.64106397677E+02  0.13000236911E+03 -0.95126570737E+01  0.19169871473E+03  0.12509060871E+03 0.  0.
         24    2    1    2    0    0  0.33146835335E+02 -0.27850482075E+02  0.15312551850E+04  0.15340502986E+04  0.81813905205E+02 0.  0.
        -11    1    5    5    0    0  0.26495382328E+02 -0.55549014308E+02  0.86514251643E+03  0.86732881424E+03  0.00000000000E+00 0.  1.
         12    1    5    5    0    0  0.66514530062E+01  0.27698532232E+02  0.66611266858E+03  0.66672148440E+03  0.00000000000E+00 0. -1.
         11    1    3    3    0    0  0.35543354887E+02 -0.10715218203E+03 -0.43192681970E+03  0.44643666714E+03  0.00000000000E+00 0. -1.
        -12    1    3    3    0    0 -0.45837925440E+01  0.50002949945E+01 -0.14019885526E+01  0.69267363181E+01  0.00000000000E+00 0.  1.
          5    1    4    4  501    0 -0.60428042030E+02  0.14544288513E+03  0.19106905504E+02  0.15870641870E+03  0.41800000000E+01 0. -1.
         -5    1    4    4    0  501 -0.36783556475E+01 -0.15440516023E+02 -0.28619562578E+02  0.32992296032E+02  0.41800000000E+01 0. -1.
</event>
<event>
11    1  0.6625361E-009  0.1818064E+03  0.7561462E-02  0.1068191E+00
         22   -1    0    0    0    0  0.00000000000E+00  0.00000000000E+00  0.37140236841E+03  0.37140236841E+03  0.00000000000E+00 0. -1.
         22   -1    0    0    0    0 -0.00000000000E+00 -0.00000000000E+00 -0.28127837938E+03  0.28127837938E+03  0.00000000000E+00 0.  1.
         24    2    1    2    0    0 -0.46348279659E+02  0.60527824916E+02 -0.15484630953E+03  0.18984506547E+03  0.79069518111E+02 0.  0.
         25    2    1    2    0    0  0.14704073572E+03  0.24184793649E+02  0.28083620805E+02  0.19657882238E+03  0.12509460997E+03 0.  0.
        -24    2    1    2    0    0 -0.10069245606E+03 -0.84712618565E+02  0.21688667775E+03  0.26625685994E+03  0.80855958529E+02 0.  0.
        -11    1    3    3    0    0 -0.41306404243E+02  0.23460176318E+02 -0.14287832757E+03  0.15056830807E+03  0.00000000000E+00 0.  1.
         12    1    3    3    0    0 -0.50418754158E+01  0.37067648598E+02 -0.11967981954E+02  0.39276757407E+02  0.00000000000E+00 0. -1.
         11    1    5    5    0    0 -0.31184887791E+02 -0.75035497312E+02  0.89992104787E+02  0.12124933817E+03  0.00000000000E+00 0. -1.
        -12    1    5    5    0    0 -0.69507568272E+02 -0.96771212534E+01  0.12689457296E+03  0.14500752177E+03  0.00000000000E+00 0.  1.
          5    1    4    4  501    0 -0.22420584296E+02 -0.25663959703E+01  0.35035216802E+01  0.23216719247E+02  0.41800000000E+01 0. -1.
         -5    1    4    4    0  501  0.16946132002E+03  0.26751189619E+02  0.24580099125E+02  0.17336210313E+03  0.41800000000E+01 0. -1.
</event>
<event>
11    1  0.6625361E-009  0.2086730E+03  0.7561462E-02  0.1048554E+00
         22   -1    0    0    0    0  0.00000000000E+00  0.00000000000E+00  0.55889823547E+03  0.55889823547E+03  0.00000000000E+00 0.  1.
         22   -1    0    0    0    0 -0.00000000000E+00 -0.00000000000E+00 -0.20722820740E+04  0.20722820740E+04  0.00000000000E+00 0.  1.
        -24    2    1    2    0    0 -0.16101895722E+03  0.81842110036E+01 -0.17354165536E+04  0.17446131260E+04  0.77525859714E+02 0.  0.
         25    2    1    2    0    0  0.24536724867E+03  0.49565034038E+02 -0.26286061558E+03  0.38393335277E+03  0.12508931538E+03 0.  0.
         24    2    1    2    0    0 -0.84348291445E+02 -0.57749245042E+02  0.48489333062E+03  0.50263383076E+03  0.84081009551E+02 0.  0.
        -11    1    5    5    0    0 -0.61807278977E+02 -0.62956131521E+02  0.22447689971E+03  0.24119181731E+03  0.00000000000E+00 0.  1.
         12    1    5    5    0    0 -0.22541012468E+02  0.52068864788E+01  0.26041643091E+03  0.26144201345E+03  0.00000000000E+00 0. -1.
         11    1    3    3    0    0 -0.90676663065E+00 -0.72985171584E+01 -0.32012260952E+03  0.32020708253E+03  0.00000000000E+00 0. -1.
        -12    1    3    3    0    0 -0.16011219059E+03  0.15482728162E+02 -0.14152939441E+04  0.14244060434E+04  0.00000000000E+00 0.  1.
          5    1    4    4  501    0  0.21710856283E+03 -0.47728552718E+01 -0.18924564140E+03  0.28808035925E+03  0.41800000000E+01 0. -1.
         -5    1    4    4    0  501  0.28258685841E+02  0.54337889310E+02 -0.73614974188E+02  0.95852993510E+02  0.41800000000E+01 0. -1.
</event>
<event>
11    1  0.6625361E-009  0.1302463E+03  0.7561462E-02  0.1118967E+00
         22   -1    0    0    0    0  0.00000000000E+00  0.00000000000E+00  0.84353513061E+03  0.84353513061E+03  0.00000000000E+00 0. -1.
         22   -1    0    0    0    0 -0.00000000000E+00 -0.00000000000E+00 -0.43481744120E+03  0.43481744120E+03  0.00000000000E+00 0.  1.
        -24    2    1    2    0    0 -0.27652593278E+02  0.21730990504E+02 -0.36789034778E+03  0.37835464740E+03  0.81068053865E+02 0.  0.
         25    2    1    2    0    0  0.23213199003E+02 -0.56908171028E+02  0.22437561097E+02  0.14116072461E+03  0.12508202703E+03 0.  0.
         24    2    1    2    0    0  0.44393942752E+01  0.35177180523E+02  0.75417047609E+03  0.75883719980E+03  0.76181667965E+02 0.  0.
        -13    1    5    5    0    0  0.25480229164E+02  0.24129511156E+02  0.14436892931E+03  0.14857275368E+03  0.00000000000E+00 0.  1.
         14    1    5    5    0    0 -0.21040834889E+02  0.11047669368E+02  0.60980154678E+03  0.61026444611E+03  0.00000000000E+00 0. -1.
         11    1    3    3    0    0 -0.45622482493E+01  0.95108813563E+01 -0.10671496818E+01  0.10602347934E+02  0.00000000000E+00 0. -1.
        -12    1    3    3    0    0 -0.23090345029E+02  0.12220109148E+02 -0.36682319810E+03  0.36775229947E+03  0.00000000000E+00 0.  1.
          5    1    4    4  501    0 -0.36247303096E+02  0.19173424761E+02 -0.26601460541E+01  0.41304188357E+02  0.41800000000E+01 0. -1.
         -5    1    4    4    0  501  0.59460502099E+02 -0.76081595788E+02  0.25097707151E+02  0.99856536249E+02  0.41800000000E+01 0. -1.
</event>
<event>
11    1  0.6625361E-009  0.1397194E+03  0.7561462E-02  0.1107872E+00
         22   -1    0    0    0    0  0.00000000000E+00  0.00000000000E+00  0.95357514401E+03  0.95357514401E+03  0.00000000000E+00 0. -1.
         22   -1    0    0    0    0 -0.00000000000E+00 -0.00000000000E+00 -0.19410502775E+03  0.19410502775E+03  0.00000000000E+00 0.  1.
         24    2    1    2    0    0  0.41392859226E+02  0.46905592499E+02 -0.16215144689E+03  0.19099864498E+03  0.79207873687E+02 0.  0.
         25    2    1    2    0    0 -0.70793374645E+02 -0.88855774954E+01  0.36456609371E+03  0.39197652585E+03  0.12508598944E+03 0.  0.
        -24    2    1    2    0    0  0.29400515419E+02 -0.38020015003E+02  0.55705546944E+03  0.56470500092E+03  0.79189836326E+02 0.  0.
        -11    1    3    3    0    0  0.58031326631E+01  0.61133220001E+02 -0.11366677855E+03  0.12919397619E+03  0.00000000000E+00 0.  1.
         12    1    3    3    0    0  0.35589726563E+02 -0.14227627502E+02 -0.48484668337E+02  0.61804668795E+02  0.00000000000E+00 0. -1.
         13    1    5    5    0    0  0.47872476862E+02 -0.18658364471E+02  0.48716132379E+03  0.48986331155E+03  0.00000000000E+00 0. -1.
        -14    1    5    5    0    0 -0.18471961444E+02 -0.19361650532E+02  0.69894145655E+02  0.74841689370E+02  0.00000000000E+00 0.  1.
          5    1    4    4  501    0 -0.10389122310E+03  0.13474068095E+00  0.21993714932E+03  0.24327602932E+03  0.41800000000E+01 0.  1.
         -5    1    4    4    0  501  0.33097848456E+02 -0.90203181764E+01  0.14462894439E+03  0.14870049653E+03  0.41800000000E+01 0.  1.
</event>
<event>
11    1  0.6625361E-009  0.6680626E+03  0.7561462E-02  0.9080739E-01
         22   -1    0    0    0    0  0.00000000000E+00  0.00000000000E+00  0.81046163085E+03  0.81046163085E+03  0.00000000000E+00 0.  1.
         22   -1    0    0    0    0 -0.00000000000E+00 -0.00000000000E+00 -0.11315672004E+04  0.11315672004E+04  0.00000000000E+00 0. -1.
        -24    2    1    2    0    0  0.18193485836E+03  0.16460878335E+03 -0.43355150416E+03  0.50486235832E+03  0.81992376727E+02 0.  0.
         25    2    1    2    0    0 -0.18959848479E+03  0.54236146074E+03 -0.24963507229E+03  0.63880241084E+03  0.12508921313E+03 0.  0.
         24    2    1    2    0    0  0.76636264233E+01 -0.70697024409E+03  0.36208100695E+03  0.79836406205E+03  0.80105323021E+02 0.  0.
        -13    1    5    5    0    0 -0.27523958963E+02 -0.53576629650E+03  0.26339024414E+03  0.59764329955E+03  0.00000000000E+00 0.  1.
         14    1    5    5    0    0  0.35187585386E+02 -0.17120394759E+03  0.98690762811E+02  0.20072076250E+03  0.00000000000E+00 0. -1.
         11    1    3    3    0    0  0.97149290640E+02  0.13807028515E+03 -0.30485037348E+03  0.34847544896E+03  0.00000000000E+00 0. -1.
        -12    1    3    3    0    0  0.84785567723E+02  0.26538498193E+02 -0.12870113068E+03  0.15638690936E+03  0.00000000000E+00 0.  1.
          5    1    4    4  501    0  0.15387818963E+02  0.14144803328E+02 -0.11031024551E+02  0.24000340337E+02  0.41800000000E+01 0. -1.
         -5    1    4    4    0  501 -0.20498630375E+03  0.52821665741E+03 -0.23860404774E+03  0.61480207050E+03  0.41800000000E+01 0. -1.
</event>
<event>
11    1  0.6625361E-009  0.1421966E+03  0.7561462E-02  0.1105130E+00
         22   -1    0    0    0    0  0.00000000000E+00  0.00000000000E+00  0.46359004306E+02  0.46359004306E+02  0.00000000000E+00 0. -1.
         22   -1    0    0    0    0 -0.00000000000E+00 -0.00000000000E+00 -0.21963216847E+04  0.21963216847E+04  0.00000000000E+00 0. -1.
        -24    2    1    2    0    0 -0.82832252469E+01 -0.40431917296E+02 -0.15755793178E+04  0.15781446811E+04  0.79919310929E+02 0.  0.
         25    2    1    2    0    0  0.56112778878E+01  0.10319244254E+03 -0.53327181868E+03  0.55741055358E+03  0.12509007156E+03 0.  0.
         24    2    1    2    0    0  0.26719473590E+01 -0.62760525244E+02 -0.41111543964E+02  0.10712545431E+03  0.76417806060E+02 0.  0.
        -11    1    5    5    0    0  0.68163843355E+01  0.14394351913E+02  0.55461532963E+01  0.16864764416E+02  0.00000000000E+00 0.  1.
         12    1    5    5    0    0 -0.41444369765E+01 -0.77154877157E+02 -0.46657697261E+02  0.90260689897E+02  0.00000000000E+00 0. -1.
         11    1    3    3    0    0 -0.19635538070E+02  0.19712389017E+02 -0.60276994974E+03  0.60341175406E+03  0.00000000000E+00 0. -1.
        -12    1    3    3    0    0  0.11352312823E+02 -0.60144306313E+02 -0.97280936804E+03  0.97473292708E+03  0.00000000000E+00 0.  1.
          5    1    4    4  501    0  0.72224111010E+00  0.37371238023E+01  0.64426706862E+01  0.85713553249E+01  0.41800000000E+01 0. -1.
         -5    1    4    4    0  501  0.48890367777E+01  0.99455318738E+02 -0.53971448937E+03  0.54883919825E+03  0.41800000000E+01 0. -1.
</event>
<event>
11    1  0.6625361E-009  0.1295338E+03  0.7561462E-02  0.1119843E+00
         22   -1    0    0    0    0  0.00000000000E+00  0.00000000000E+00  0.15380337685E+03  0.15380337685E+03  0.00000000000E+00 0. -1.
         22   -1    0    0    0    0 -0.00000000000E+00 -0.00000000000E+00 -0.13093846044E+04  0.13093846044E+04  0.00000000000E+00 0.  1.
         24    2    1    2    0    0  0.33011907382E+02  0.73626185919E+01 -0.12091240045E+04  0.12122806083E+04  0.80618985748E+02 0.  0.
         25    2    1    2    0    0 -0.30332012824E+02  0.14662378146E+02 -0.28251809747E+02  0.13259893275E+03  0.12509714576E+03 0.  0.
        -24    2    1    2    0    0 -0.26798945574E+01 -0.22024996737E+02  0.81794586648E+02  0.11830844022E+03  0.82548472471E+02 0.  0.
        -11    1    3    3    0    0 -0.60391953361E+01  0.29986629033E+02 -0.81623727833E+03  0.81681023766E+03  0.00000000000E+00 0.  1.
         12    1    3    3    0    0  0.39051102718E+02 -0.22624010441E+02 -0.39288672615E+03  0.39547037064E+03  0.00000000000E+00 0. -1.
         11    1    5    5    0    0 -0.35726804706E+02 -0.10088010142E+02  0.73291814459E+02  0.82157547369E+02  0.00000000000E+00 0. -1.
        -12    1    5    5    0    0  0.33046910148E+02 -0.11936986595E+02  0.85027721889E+01  0.36150892855E+02  0.00000000000E+00 0.  1.
          5    1    4    4  501    0 -0.78127839936E+02 -0.62792791612E+00 -0.92914915835E+01  0.78791864316E+02  0.41800000000E+01 0.  1.
         -5    1    4    4    0  501  0.47795827111E+02  0.15290306062E+02 -0.18960318163E+02  0.53807068435E+02  0.41800000000E+01 0.  1.
</event>
<event>
11    1  0.6625361E-009  0.1435471E+03  0.7561462E-02  0.1103661E+00
         22   -1    0    0    0    0  0.00000000000E+00  0.00000000000E+00  0.12612394811E+04  0.12612394811E+04  0.00000000000E+00 0. -1.
         22   -1    0    0    0    0 -0.00000000000E+00 -0.00000000000E+00 -0.34682141383E+03  0.34682141383E+03  0.00000000000E+00 0. -1.
         24    2    1    2    0    0 -0.10855639653E+02  0.80261398859E+02 -0.22325495360E+03  0.25052357844E+03  0.79746799230E+02 0.  0.
         25    2    1    2    0    0 -0.31599582891E+02 -0.39880850930E+02 -0.65619165709E+02  0.15014197851E+03  0.12509085855E+03 0.  0.
        -24    2    1    2    0    0  0.42455222544E+02 -0.40380547929E+02  0.12032921865E+04  0.12073953379E+04  0.80364054919E+02 0.  0.
        -11    1    3    3    0    0 -0.13970998736E+01  0.64234824451E+02 -0.65775035288E+02  0.91947919103E+02  0.00000000000E+00 0.  1.
         12    1    3    3    0    0 -0.94585397795E+01  0.16026574409E+02 -0.15747991831E+03  0.15857565933E+03  0.00000000000E+00 0. -1.
         13    1    5    5    0    0  0.15759152135E+02  0.23418005945E+02  0.47085562898E+03  0.47170094045E+03  0.00000000000E+00 0. -1.
        -14    1    5    5    0    0  0.26696070409E+02 -0.63798553874E+02  0.73243655756E+03  0.73569439749E+03  0.00000000000E+00 0.  1.
          5    1    4    4  501    0 -0.49270980645E+02 -0.74976583902E+02 -0.24461505754E+02  0.93085741824E+02  0.41800000000E+01 0.  1.
         -5    1    4    4    0  501  0.17671397754E+02  0.35095732971E+02 -0.41157659955E+02  0.57056236682E+02  0.41800000000E+01 0.  1.
</event>
<event>
11    1  0.6625361E-009  0.1376058E+03  0.7561462E-02  0.1110262E+00
         22   -1    0    0    0    0  0.00000000000E+00  0.00000000000E+00  0.46223280289E+03  0.46223280289E+03  0.00000000000E+00 0.  1.
         22   -1    0    0    0    0 -0.00000000000E+00 -0.00000000000E+00 -0.19595480562E+03  0.19595480562E+03  0.00000000000E+00 0. -1.
         24    2    1    2    0    0  0.46742867736E+02  0.35316653286E+02 -0.14414425596E+03  0.17454516686E+03  0.79096694399E+02 0.  0.
         25    2    1    2    0    0 -0.50394203763E+02 -0.73140315714E+01  0.11964409696E+03  0.18042943579E+03  0.12508797117E+03 0.  0.
        -24    2    1    2    0    0  0.36513360274E+01 -0.28002621715E+02  0.29077815628E+03  0.30321300587E+03  0.81170879524E+02 0.  0.
        -11    1    3    3    0    0 -0.60859819697E+01  0.71403364173E+01  0.71750756581E+01  0.11811235811E+02  0.00000000000E+00 0.  1.
         12    1    3    3    0    0  0.52828849705E+02  0.28176316869E+02 -0.15131933162E+03  0.16273393105E+03  0.00000000000E+00 0. -1.
         13    1    5    5    0    0  0.10982048415E+02 -0.55308819271E+02  0.21688875828E+03  0.22409909492E+03  0.00000000000E+00 0. -1.
        -14    1    5    5    0    0 -0.73307123878E+01  0.27306197556E+02  0.73889398001E+02  0.79113910951E+02  0.00000000000E+00 0.  1.
          5    1    4    4  501    0 -0.19506674236E+02  0.44941792533E+01 -0.24826272685E+02  0.32164020307E+02  0.41800000000E+01 0.  1.
         -5    1    4    4    0  501 -0.30887529527E+02 -0.11808210825E+02  0.14447036964E+03  0.14826541548E+03  0.41800000000E+01 0.  1.
</event>
<event>
11    1  0.6625361E-009  0.1861276E+03  0.7561462E-02  0.1064791E+00
         22   -1    0    0    0    0  0.00000000000E+00  0.00000000000E+00  0.80346449291E+03  0.80346449291E+03  0.00000000000E+00 0. -1.
         22   -1    0    0    0    0 -0.00000000000E+00 -0.00000000000E+00 -0.70570459718E+03  0.70570459718E+03  0.00000000000E+00 0.  1.
        -24    2    1    2    0    0 -0.33352547826E+01  0.11893281438E+02 -0.55257241595E+03  0.55861546145E+03  0.81008547867E+02 0.  0.
         25    2    1    2    0    0  0.13952416830E+03 -0.31077945542E+02 -0.77555818496E+02  0.20517235303E+03  0.12509179520E+03 0.  0.
         24    2    1    2    0    0 -0.13618891352E+03  0.19184664104E+02  0.72788813018E+03  0.74538127562E+03  0.82804857889E+02 0.  0.
        -13    1    5    5    0    0 -0.45235511586E+02 -0.14228050487E+02  0.10781103769E+03  0.11777906765E+03  0.00000000000E+00 0.  1.
         14    1    5    5    0    0 -0.90953401933E+02  0.33412714592E+02  0.62007709248E+03  0.62760220797E+03  0.00000000000E+00 0. -1.
         11    1    3    3    0    0  0.89027177421E+01 -0.20701384232E+02 -0.50057693105E+02  0.54896068451E+02  0.00000000000E+00 0. -1.
        -12    1    3    3    0    0 -0.12237972525E+02  0.32594665670E+02 -0.50251472285E+03  0.50371939300E+03  0.00000000000E+00 0.  1.
          5    1    4    4  501    0  0.68227220729E+02  0.23370703878E+01  0.27586246190E+02  0.73748823212E+02  0.41800000000E+01 0.  1.
         -5    1    4    4    0  501  0.71296947573E+02 -0.33415015930E+02 -0.10514206469E+03  0.13142352982E+03  0.41800000000E+01 0.  1.
</event>
<event>
11    1  0.6625361E-009  0.1631678E+03  0.7561462E-02  0.1084135E+00
         22   -1    0    0    0    0  0.00000000000E+00  0.00000000000E+00  0.12706880257E+04  0.12706880257E+04  0.00000000000E+00 0. -1.
         22   -1    0    0    0    0 -0.00000000000E+00 -0.00000000000E+00 -0.20697428779E+04  0.20697428779E+04  0.00000000000E+00 0.  1.
         24    2    1    2    0    0 -0.51748769221E+02  0.39563575712E+02 -0.20366247293E+04  0.20392632995E+04  0.80692659248E+02 0.  0.
         25    2    1    2    0    0  0.13017937503E+03  0.26517582127E+02  0.27387591974E+03  0.32910475800E+03  0.12510823504E+03 0.  0.
        -24    2    1    2    0    0 -0.78430605814E+02 -0.66081157839E+02  0.96369395731E+03  0.97206284605E+03  0.75379400041E+02 0.  0.
        -13    1    3    3    0    0 -0.11438657760E+02  0.57907652207E+02 -0.12498964620E+04  0.12512894569E+04  0.00000000000E+00 0.  1.
         14    1    3    3    0    0 -0.40310111461E+02 -0.18344076495E+02 -0.78672826725E+03  0.78797384266E+03  0.00000000000E+00 0. -1.
         13    1    5    5    0    0 -0.16355781165E+02 -0.46240326057E+02  0.63983534329E+03  0.64171251028E+03  0.00000000000E+00 0. -1.
        -14    1    5    5    0    0 -0.62074824649E+02 -0.19840831782E+02  0.32385861402E+03  0.33035033576E+03  0.00000000000E+00 0.  1.
          5    1    4    4  501    0  0.50701624105E+01  0.40303610445E+02  0.19480998792E+02  0.45244549679E+02  0.41800000000E+01 0.  1.
         -5    1    4    4    0  501  0.12510921262E+03 -0.13786028318E+02  0.25439492095E+03  0.28386020832E+03  0.41800000000E+01 0.  1.
</event>
<event>
11    1  0.6625361E-009  0.1459252E+03  0.7561462E-02  0.1101117E+00
         22   -1    0    0    0    0  0.00000000000E+00  0.00000000000E+00  0.43110859469E+03  0.43110859469E+03  0.00000000000E+00 0.  1.
         22   -1    0    0    0    0 -0.00000000000E+00 -0.00000000000E+00 -0.12476803928E+04  0.12476803928E+04  0.00000000000E+00 0. -1.
        -24    2    1    2    0    0  0.21891745071E+02  0.27495726757E+02 -0.10866198705E+04  0.10900041781E+04  0.78301352212E+02 0.  0.
         25    2    1    2    0    0  0.78352473459E+01 -0.95629509017E+02 -0.11060384461E+03  0.19257617606E+03  0.12508388804E+03 0.  0.
         24    2    1    2    0    0 -0.29726992417E+02  0.68133782260E+02  0.38065191704E+03  0.39620863332E+03  0.80990695802E+02 0.  0.
        -13    1    5    5    0    0 -0.50122685260E+02  0.73388795758E+02  0.30772170551E+03  0.32029805956E+03  0.00000000000E+00 0.  1.
         14    1    5    5    0    0  0.20395692844E+02 -0.52550134975E+01  0.72930211536E+02  0.75910573757E+02  0.00000000000E+00 0. -1.
         13    1    3    3    0    0 -0.24087524618E+02  0.21079507849E+02 -0.67806973816E+03  0.67882481120E+03  0.00000000000E+00 0. -1.
        -14    1    3    3    0    0  0.45979269689E+02  0.64162189080E+01 -0.40855013237E+03  0.41117936690E+03  0.00000000000E+00 0.  1.
          5    1    4    4  501    0  0.20118935270E+02 -0.11399129177E+03 -0.46798660651E+02  0.12492547056E+03  0.41800000000E+01 0. -1.
         -5    1    4    4    0  501 -0.12283687924E+02  0.18361782753E+02 -0.63805183958E+02  0.67650705501E+02  0.41800000000E+01 0. -1.
</event>
<event>
11    1  0.6625361E-009  0.1369534E+03  0.7561462E-02  0.1111009E+00
         22   -1    0    0    0    0  0.00000000000E+00  0.00000000000E+00  0.14998810641E+04  0.14998810641E+04  0.00000000000E+00 0. -1.
         22   -1    0    0    0    0 -0.00000000000E+00 -0.00000000000E+00 -0.38172527736E+02  0.38172527736E+02  0.00000000000E+00 0.  1.
        -24    2    1    2    0    0  0.35476540929E+02  0.11864372044E+02  0.41432183040E+02  0.97253902083E+02  0.79638856085E+02 0.  0.
         25    2    1    2    0    0  0.29577654085E+02  0.57847243761E+01  0.57905077725E+03  0.59317351919E+03  0.12508685212E+03 0.  0.
         24    2    1    2    0    0 -0.65054195015E+02 -0.17649096420E+02  0.84122557611E+03  0.84762617060E+03  0.79158804270E+02 0.  0.
        -13    1    5    5    0    0  0.58449452156E+01  0.14313142060E+02  0.34473223892E+03  0.34507875329E+03  0.00000000000E+00 0.  1.
         14    1    5    5    0    0 -0.70899140230E+02 -0.31962238480E+02  0.49649333719E+03  0.50254741732E+03  0.00000000000E+00 0. -1.
         11    1    3    3    0    0  0.74211847603E+01  0.13637569054E-01  0.60741352975E+02  0.61193023544E+02  0.00000000000E+00 0. -1.
        -12    1    3    3    0    0  0.28055356169E+02  0.11850734475E+02 -0.19309169936E+02  0.36060878538E+02  0.00000000000E+00 0.  1.
          5    1    4    4  501    0  0.24867772153E+02 -0.50559336522E+02  0.14812757920E+03  0.15853676142E+03  0.41800000000E+01 0. -1.
         -5    1    4    4    0  501  0.47098819327E+01  0.56344060898E+02  0.43092319805E+03  0.43463675777E+03  0.41800000000E+01 0. -1.
</event>
<event>
11    1  0.6625361E-009  0.1506213E+03  0.7561462E-02  0.1096246E+00
         22   -1    0    0    0    0  0.00000000000E+00  0.00000000000E+00  0.25301943072E+03  0.25301943072E+03  0.00000000000E+00 0.  1.
         22   -1    0    0    0    0 -0.00000000000E+00 -0.00000000000E+00 -0.21254471346E+03  0.21254471346E+03  0.00000000000E+00 0. -1.
         24    2    1    2    0    0  0.10351280490E+02 -0.19929667681E+02 -0.79396815127E+02  0.11713568524E+03  0.83141889816E+02 0.  0.
         25    2    1    2    0    0  0.66782344769E+01 -0.65951266066E+02 -0.42116446896E+02  0.14769807195E+03  0.12508699792E+03 0.  0.
        -24    2    1    2    0    0 -0.17029514966E+02  0.85880933748E+02  0.16198797928E+03  0.20073038698E+03  0.79918981895E+02 0.  0.
        -13    1    3    3    0    0 -0.34049549617E+02 -0.20096011495E+02 -0.24431776991E+02  0.46477233502E+02  0.00000000000E+00 0.  1.
         14    1    3    3    0    0  0.44400830106E+02  0.16634381351E+00 -0.54965038136E+02  0.70658451736E+02  0.00000000000E+00 0. -1.
         11    1    5    5    0    0 -0.14816330527E+02  0.59005814204E+02  0.33516027635E+02  0.69458864579E+02  0.00000000000E+00 0. -1.
        -12    1    5    5    0    0 -0.22131844397E+01  0.26875119544E+02  0.12847195164E+03  0.13127152241E+03  0.00000000000E+00 0.  1.
          5    1    4    4  501    0  0.70513004493E+01 -0.32765978048E+02  0.43909869190E+02  0.55397465355E+02  0.41800000000E+01 0. -1.
         -5    1    4    4    0  501 -0.37306597241E+00 -0.33185288018E+02 -0.86026316086E+02  0.92300606598E+02  0.41800000000E+01 0. -1.
</event>
<event>
11    1  0.6625361E-009  0.1685010E+03  0.7561462E-02  0.1079344E+00
         22   -1    0    0    0    0  0.00000000000E+00  0.00000000000E+00  0.36710281615E+03  0.36710281615E+03  0.00000000000E+00 0.  1.
         22   -1    0    0    0    0 -0.00000000000E+00 -0.00000000000E+00 -0.52350533141E+03  0.52350533141E+03  0.00000000000E+00 0. -1.
        -24    2    1    2    0    0  0.11238300331E+03 -0.23487841068E+02 -0.36928851737E+03  0.39508961040E+03  0.80871336542E+02 0.  0.
         25    2    1    2    0    0 -0.10854642275E+03 -0.83249025911E+01 -0.84504016490E+02  0.18611470581E+03  0.12508447153E+03 0.  0.
         24    2    1    2    0    0 -0.38365805534E+01  0.31812743660E+02  0.29739001860E+03  0.30940383135E+03  0.79139987874E+02 0.  0.
        -13    1    5    5    0    0  0.36729494900E+02  0.11453201037E+02  0.16581974562E+03  0.17022461528E+03  0.00000000000E+00 0.  1.
         14    1    5    5    0    0 -0.40566075453E+02  0.20359542623E+02  0.13157027298E+03  0.13917921607E+03  0.00000000000E+00 0. -1.
         11    1    3    3    0    0  0.96417320889E+02 -0.38568520760E+02 -0.35240802259E+03  0.36738977251E+03  0.00000000000E+00 0. -1.
        -12    1    3    3    0    0  0.15965682419E+02  0.15080679691E+02 -0.16880494784E+02  0.27699837891E+02  0.00000000000E+00 0.  1.
          5    1    4    4  501    0 -0.95698345480E+01 -0.55115832014E+02 -0.24670002491E+02  0.61281466160E+02  0.41800000000E+01 0. -1.
         -5    1    4    4    0  501 -0.98976588206E+02  0.46790929423E+02 -0.59834014000E+02  0.12483323965E+03  0.41800000000E+01 0. -1.
</event>
<event>
11    1  0.6625361E-009  0.1992262E+03  0.7561462E-02  0.1055072E+00
         22   -1    0    0    0    0  0.00000000000E+00  0.00000000000E+00  0.31645015455E+03  0.31645015455E+03  0.00000000000E+00 0. -1.
         22   -1    0    0    0    0 -0.00000000000E+00 -0.00000000000E+00 -0.11385770411E+04  0.11385770411E+04  0.00000000000E+00 0.  1.
         24    2    1    2    0    0  0.14900010440E+03  0.65186699434E+02 -0.91810768534E+03  0.93653360763E+03  0.87881394177E+02 0.  0.
         25    2    1    2    0    0 -0.43354236845E+02 -0.15498115385E+03 -0.12906169504E+03  0.24125409846E+03  0.12509145051E+03 0.  0.
        -24    2    1    2    0    0 -0.10564586755E+03  0.89794454421E+02  0.22504249386E+03  0.27723948953E+03  0.83627251166E+02 0.  0.
        -11    1    3    3    0    0  0.15825994823E+03  0.70297411250E+02 -0.83595848375E+03  0.85370634518E+03  0.00000000000E+00 0.  1.
         12    1    3    3    0    0 -0.92598438352E+01 -0.51107118162E+01 -0.82149201589E+02  0.82827262449E+02  0.00000000000E+00 0. -1.
         13    1    5    5    0    0 -0.56351234566E+02  0.89351170906E+02  0.11222479681E+03  0.15412169996E+03  0.00000000000E+00 0. -1.
        -14    1    5    5    0    0 -0.49294632984E+02  0.44328351464E+00  0.11281769705E+03  0.12311778957E+03  0.00000000000E+00 0.  1.
          5    1    4    4  501    0 -0.35746928614E+02 -0.29511603789E+02  0.16042503477E+02  0.49230193797E+02  0.41800000000E+01 0. -1.
         -5    1    4    4    0  501 -0.76073082314E+01 -0.12546955007E+03 -0.14510419852E+03  0.19202390466E+03  0.41800000000E+01 0. -1.
</event>
<event>
11    1  0.6625361E-009  0.1501019E+03  0.7561462E-02  0.1096775E+00
         22   -1    0    0    0    0  0.00000000000E+00  0.00000000000E+00  0.58894030688E+03  0.58894030688E+03  0.00000000000E+00 0. -1.
         22   -1    0    0    0    0 -0.00000000000E+00 -0.00000000000E+00 -0.21842524871E+03  0.21842524871E+03  0.00000000000E+00 0.  1.
         24    2    1    2    0    0  0.37699301202E+02  0.17238975682E+02 -0.10134146658E+03  0.13615112502E+03  0.80923521933E+02 0.  0.
         25    2    1    2    0    0  0.74894210247E+00  0.58641893443E+02 -0.41947664589E+02  0.14438315928E+03  0.12508979789E+03 0.  0.
        -24    2    1    2    0    0 -0.38448243304E+02 -0.75880869124E+02  0.51380418933E+03  0.52683127129E+03  0.79500124043E+02 0.  0.
        -13    1    3    3    0    0  0.34591520427E+02 -0.13526358190E+01 -0.11006506981E+03  0.11538077180E+03  0.00000000000E+00 0.  1.
         14    1    3    3    0    0  0.31077807748E+01  0.18591611501E+02  0.87236032302E+01  0.20770353219E+02  0.00000000000E+00 0. -1.
         13    1    5    5    0    0 -0.23683897928E+02 -0.58671641033E+02  0.48957644772E+03  0.49364803924E+03  0.00000000000E+00 0. -1.
        -14    1    5    5    0    0 -0.14764345376E+02 -0.17209228091E+02  0.24227741617E+02  0.33183232057E+02  0.00000000000E+00 0.  1.
          5    1    4    4  501    0  0.57487641639E+00 -0.39015356002E+02 -0.36895533993E+01  0.39415906575E+02  0.41800000000E+01 0.  1.
         -5    1    4    4    0  501  0.17406568607E+00  0.97657249444E+02 -0.38258111190E+02  0.10496725270E+03  0.41800000000E+01 0.  1.
</event>
<event>
11    1  0.6625361E-009  0.1852425E+03  0.7561462E-02  0.1065479E+00
         22   -1    0    0    0    0  0.00000000000E+00  0.00000000000E+00  0.29071777158E+03  0.29071777158E+03  0.00000000000E+00 0.  1.
         22   -1    0    0    0    0 -0.00000000000E+00 -0.00000000000E+00 -0.45421053523E+03  0.45421053523E+03  0.00000000000E+00 0. -1.
        -24    2    1    2    0    0  0.10886913991E+03 -0.77456936285E+02 -0.30528085228E+03  0.34307772314E+03  0.81571188178E+02 0.  0.
         25    2    1    2    0    0 -0.13401346314E+03  0.68436660750E+02 -0.42915963873E+02  0.20032827638E+03  0.12508578466E+03 0.  0.
         24    2    1    2    0    0  0.25144323227E+02  0.90202755341E+01  0.18470405250E+03  0.20152230729E+03  0.76039798567E+02 0.  0.
        -11    1    5    5    0    0  0.35098021372E+02 -0.26321358434E+02  0.99152847189E+02  0.10842496078E+03  0.00000000000E+00 0.  1.
         12    1    5    5    0    0 -0.99536981449E+01  0.35341633968E+02  0.85551205310E+02  0.93097346516E+02  0.00000000000E+00 0. -1.
         11    1    3    3    0    0  0.10818814561E+03 -0.45329316724E+02 -0.18903248428E+03  0.22246955279E+03  0.00000000000E+00 0. -1.
        -12    1    3    3    0    0  0.68099429969E+00 -0.32127619560E+02 -0.11624836800E+03  0.12060817035E+03  0.00000000000E+00 0.  1.
          5    1    4    4  501    0 -0.82086739539E+02  0.10376684581E+03 -0.34711057786E+02  0.13685072535E+03  0.41800000000E+01 0.  1.
         -5    1    4    4    0  501 -0.51926723599E+02 -0.35330185057E+02 -0.82049060872E+01  0.63477551022E+02  0.41800000000E+01 0.  1.
</event>
<event>
11    1  0.6625361E-009  0.1293967E+03  0.7561462E-02  0.1120013E+00
         22   -1    0    0    0    0  0.00000000000E+00  0.00000000000E+00  0.94755682134E+03  0.94755682134E+03  0.00000000000E+00 0. -1.
         22   -1    0    0    0    0 -0.00000000000E+00 -0.00000000000E+00 -0.32171116721E+02  0.32171116721E+02  0.00000000000E+00 0. -1.
         24    2    1    2    0    0 -0.23681484504E+02 -0.24974575101E+01  0.75737229851E+02  0.11234874968E+03  0.79492537805E+02 0.  0.
         25    2    1    2    0    0  0.35175034524E+02  0.26210273128E+02  0.55832963626E+03  0.57384975332E+03  0.12508914895E+03 0.  0.
        -24    2    1    2    0    0 -0.11493550020E+02 -0.23712815618E+02  0.28131883851E+03  0.29352943507E+03  0.79528869183E+02 0.  0.
        -13    1    3    3    0    0 -0.31302487504E+02  0.13557626786E+01  0.90236645113E+02  0.95521389948E+02  0.00000000000E+00 0.  1.
         14    1    3    3    0    0  0.76210030000E+01 -0.38532201887E+01 -0.14499415262E+02  0.16827359731E+02  0.00000000000E+00 0. -1.
         11    1    5    5    0    0 -0.27266160994E+02 -0.38784914426E+02  0.25487975696E+03  0.25925162224E+03  0.00000000000E+00 0. -1.
        -12    1    5    5    0    0  0.15772610974E+02  0.15072098808E+02  0.26439081546E+02  0.34277812830E+02  0.00000000000E+00 0.  1.
          5    1    4    4  501    0  0.47053178916E+02  0.40846534177E+02  0.12164513751E+03  0.13673862980E+03  0.41800000000E+01 0.  1.
         -5    1    4    4    0  501 -0.11878144392E+02 -0.14636261049E+02  0.43668449875E+03  0.43711112352E+03  0.41800000000E+01 0.  1.
</event>
<event>
11    1  0.6625361E-009  0.1485484E+03  0.7561462E-02  0.1098371E+00
         22   -1    0    0    0    0  0.00000000000E+00  0.00000000000E+00  0.42784478605E+03  0.42784478605E+03  0.00000000000E+00 0.  1.
         22   -1    0    0    0    0 -0.00000000000E+00 -0.00000000000E+00 -0.33973032262E+03  0.33973032262E+03  0.00000000000E+00 0. -1.
         24    2    1    2    0    0  0.65100940262E+02 -0.62287007248E+02 -0.22895217597E+03  0.25838549935E+03  0.78906043489E+02 0.  0.
         25    2    1    2    0    0 -0.29876537141E+02  0.36551360542E+02 -0.40870688268E+02  0.13976745931E+03  0.12504367275E+03 0.  0.
        -24    2    1    2    0    0 -0.35224403121E+02  0.25735646706E+02  0.35793732766E+03  0.36942215000E+03  0.80315081340E+02 0.  0.
        -13    1    3    3    0    0  0.23183169899E+02 -0.17223799300E+02 -0.94031759520E+01  0.30373316362E+02  0.00000000000E+00 0.  1.
         14    1    3    3    0    0  0.41917770364E+02 -0.45063207949E+02 -0.21954900002E+03  0.22801218299E+03  0.00000000000E+00 0. -1.
         13    1    5    5    0    0 -0.10751442788E+02 -0.87627307614E+01  0.62719970401E+01  0.15222250796E+02  0.00000000000E+00 0. -1.
        -14    1    5    5    0    0 -0.24472960333E+02  0.34498377468E+02  0.35166533062E+03  0.35419989921E+03  0.00000000000E+00 0.  1.
          5    1    4    4  501    0  0.35754268284E+02  0.24341882669E+02 -0.56303302052E+02  0.71122634754E+02  0.41800000000E+01 0.  1.
         -5    1    4    4    0  501 -0.65630805425E+02  0.12209477873E+02  0.15432613784E+02  0.68644824560E+02  0.41800000000E+01 0.  1.
</event>
<event>
11    1  0.6625361E-009  0.1461832E+03  0.7561462E-02  0.1100844E+00
         22   -1    0    0    0    0  0.00000000000E+00  0.00000000000E+00  0.31275051477E+03  0.31275051477E+03  0.00000000000E+00 0.  1.
         22   -1    0    0    0    0 -0.00000000000E+00 -0.00000000000E+00 -0.24374204598E+03  0.24374204598E+03  0.00000000000E+00 0. -1.
         24    2    1    2    0    0  0.47420854475E+02  0.49184280125E+02 -0.11965417201E+03  0.15917886378E+03  0.79705451162E+02 0.  0.
         25    2    1    2    0    0 -0.89470801977E+02 -0.53102364024E+02 -0.25352102836E+02  0.16466823852E+03  0.12509202287E+03 0.  0.
        -24    2    1    2    0    0  0.42049947501E+02  0.39180838991E+01  0.21401474363E+03  0.23264545846E+03  0.80858205426E+02 0.  0.
        -13    1    3    3    0    0  0.19724013181E+02  0.60287865493E+02 -0.42231026391E+02  0.76204481572E+02  0.00000000000E+00 0.  1.
         14    1    3    3    0    0  0.27696841295E+02 -0.11103585368E+02 -0.77423145614E+02  0.82974382206E+02  0.00000000000E+00 0. -1.
         11    1    5    5    0    0  0.16349990631E+02  0.24063450433E+02  0.18620155097E+02  0.34541019328E+02  0.00000000000E+00 0. -1.
        -12    1    5    5    0    0  0.25699956871E+02 -0.20145366534E+02  0.19539458853E+03  0.19810443913E+03  0.00000000000E+00 0.  1.
          5    1    4    4  501    0 -0.89610410975E+02 -0.11089834226E+01  0.23989967943E+02  0.92866821639E+02  0.41800000000E+01 0.  1.
         -5    1    4    4    0  501  0.13960899811E+00 -0.51993380601E+02 -0.49342070779E+02  0.71801416879E+02  0.41800000000E+01 0.  1.
</event>
<event>
11    1  0.6625361E-009  0.1453867E+03  0.7561462E-02  0.1101688E+00
         22   -1    0    0    0    0  0.00000000000E+00  0.00000000000E+00  0.80315380694E+03  0.80315380694E+03  0.00000000000E+00 0.  1.
         22   -1    0    0    0    0 -0.00000000000E+00 -0.00000000000E+00 -0.16339086096E+03  0.16339086096E+03  0.00000000000E+00 0. -1.
         24    2    1    2    0    0 -0.50109102483E+02  0.35058694081E+02 -0.10476747643E+03  0.14552511041E+03  0.80382208595E+02 0.  0.
         25    2    1    2    0    0 -0.28947850977E+02 -0.14662835442E+02  0.92767258578E+02  0.15908410185E+03  0.12509600465E+03 0.  0.
        -24    2    1    2    0    0  0.79056953460E+02 -0.20395858639E+02  0.65176316384E+03  0.66193545564E+03  0.81837233315E+02 0.  0.
        -13    1    3    3    0    0 -0.13933475956E+02 -0.37799786325E-01  0.11971430453E+02  0.18370038871E+02  0.00000000000E+00 0.  1.
         14    1    3    3    0    0 -0.36175626527E+02  0.35096493867E+02 -0.11673890689E+03  0.12715507154E+03  0.00000000000E+00 0. -1.
         11    1    5    5    0    0 -0.38960031294E+01  0.21954017867E+02  0.11250470492E+03  0.11469292206E+03  0.00000000000E+00 0. -1.
        -12    1    5    5    0    0  0.82952956590E+02 -0.42349876506E+02  0.53925845891E+03  0.54724253358E+03  0.00000000000E+00 0.  1.
          5    1    4    4  501    0 -0.10140626925E+02 -0.97354592095E+01  0.12246669166E+03  0.12334169792E+03  0.41800000000E+01 0.  1.
         -5    1    4    4    0  501 -0.18807224052E+02 -0.49273762325E+01 -0.29699433083E+02  0.35742403927E+02  0.41800000000E+01 0.  1.
</event>
<event>
11    1  0.6625361E-009  0.1475484E+03  0.7561462E-02  0.1099411E+00
         22   -1    0    0    0    0  0.00000000000E+00  0.00000000000E+00  0.55187719131E+03  0.55187719131E+03  0.00000000000E+00 0.  1.
         22   -1    0    0    0    0 -0.00000000000E+00 -0.00000000000E+00 -0.20660563890E+03  0.20660563890E+03  0.00000000000E+00 0.  1.
        -24    2    1    2    0    0  0.29996867579E+02 -0.23756348161E+02 -0.15939246884E+03  0.18485960103E+03  0.85457222203E+02 0.  0.
         25    2    1    2    0    0 -0.64536752836E+02  0.79560415048E+02  0.26778051209E+03  0.31280838498E+03  0.12509129046E+03 0.  0.
         24    2    1    2    0    0  0.34539885256E+02 -0.55804066888E+02  0.23688350917E+03  0.26081484420E+03  0.87197984407E+02 0.  0.
        -13    1    5    5    0    0  0.24751905622E+01 -0.29023828958E+02  0.20798925016E+03  0.21001913579E+03  0.00000000000E+00 0.  1.
         14    1    5    5    0    0  0.32064694694E+02 -0.26780237929E+02  0.28894259010E+02  0.50795708413E+02  0.00000000000E+00 0. -1.
         13    1    3    3    0    0  0.45745656677E+02  0.93025549956E+01 -0.45353563856E+02  0.65085700340E+02  0.00000000000E+00 0. -1.
        -14    1    3    3    0    0 -0.15748789098E+02 -0.33058903156E+02 -0.11403890499E+03  0.11977390069E+03  0.00000000000E+00 0.  1.
          5    1    4    4  501    0 -0.76283539690E+02  0.78873148197E+02  0.11314208982E+03  0.15766660021E+03  0.41800000000E+01 0. -1.
         -5    1    4    4    0  501  0.11746786855E+02  0.68726685147E+00  0.15463842227E+03  0.15514178477E+03  0.41800000000E+01 0. -1.
</event>
<event>
11    1  0.6625361E-009  0.1326318E+03  0.7561462E-02  0.1116077E+00
         22   -1    0    0    0    0  0.00000000000E+00  0.00000000000E+00  0.67361175806E+03  0.67361175806E+03  0.00000000000E+00 0. -1.
         22   -1    0    0    0    0 -0.00000000000E+00 -0.00000000000E+00 -0.12901657929E+04  0.12901657929E+04  0.00000000000E+00 0.  1.
        -24    2    1    2    0    0  0.10465558092E+02  0.41379189134E+02 -0.10913898266E+04  0.10952223998E+04  0.80985099774E+02 0.  0.
         25    2    1    2    0    0 -0.43211059501E+02 -0.53875808533E+02 -0.16746257327E+03  0.22013782039E+03  0.12508856108E+03 0.  0.
         24    2    1    2    0    0  0.32745501408E+02  0.12496619399E+02  0.64229836495E+03  0.64841733076E+03  0.81666467082E+02 0.  0.
        -13    1    5    5    0    0 -0.24432434247E+02  0.13989443961E+02  0.13498775983E+03  0.13789250773E+03  0.00000000000E+00 0.  1.
         14    1    5    5    0    0  0.57177935656E+02 -0.14928245616E+01  0.50731060513E+03  0.51052482303E+03  0.00000000000E+00 0. -1.
         13    1    3    3    0    0  0.32616249089E+02  0.13795515624E+02 -0.19865328290E+03  0.20178518965E+03  0.00000000000E+00 0. -1.
        -14    1    3    3    0    0 -0.22150690997E+02  0.27583673510E+02 -0.89273654367E+03  0.89343721020E+03  0.00000000000E+00 0.  1.
          5    1    4    4  501    0 -0.34613738244E+02  0.35845734600E+02 -0.40337924038E+02  0.64246774860E+02  0.41800000000E+01 0. -1.
         -5    1    4    4    0  501 -0.85973212570E+01 -0.89721543134E+02 -0.12712464923E+03  0.15589104553E+03  0.41800000000E+01 0. -1.
</event>
<event>
11    1  0.6625361E-009  0.2727643E+03  0.7561462E-02  0.1012426E+00
         22   -1    0    0    0    0  0.00000000000E+00  0.00000000000E+00  0.47205943300E+03  0.47205943300E+03  0.00000000000E+00 0. -1.
         22   -1    0    0    0    0 -0.00000000000E+00 -0.00000000000E+00 -0.10135334759E+04  0.10135334759E+04  0.00000000000E+00 0. -1.
        -24    2    1    2    0    0  0.53572491114E+02 -0.23231150340E+03 -0.88209901144E+03  0.91700582957E+03  0.77216443014E+02 0.  0.
         25    2    1    2    0    0 -0.94853835526E+02  0.29724138528E+03  0.20656460184E+03  0.39454279454E+03  0.12508153641E+03 0.  0.
         24    2    1    2    0    0  0.41281344412E+02 -0.64929881881E+02  0.13406036666E+03  0.17404428484E+03  0.79994951198E+02 0.  0.
        -11    1    5    5    0    0  0.82302788019E+01 -0.54568548131E+02  0.26837049342E+02  0.61365227545E+02  0.00000000000E+00 0.  1.
         12    1    5    5    0    0  0.33051065610E+02 -0.10361333751E+02  0.10722331732E+03  0.11267905729E+03  0.00000000000E+00 0. -1.
         13    1    3    3    0    0  0.28760768766E+01 -0.11583094279E+03 -0.53466908603E+03  0.54707962006E+03  0.00000000000E+00 0. -1.
        -14    1    3    3    0    0  0.50696414237E+02 -0.11648056061E+03 -0.34742992541E+03  0.36992620951E+03  0.00000000000E+00 0.  1.
          5    1    4    4  501    0 -0.64426616557E+02  0.29820220142E+03  0.18263079752E+03  0.35559361982E+03  0.41800000000E+01 0. -1.
         -5    1    4    4    0  501 -0.30427218969E+02 -0.96081614480E+00  0.23933804321E+02  0.38949174716E+02  0.41800000000E+01 0. -1.
</event>
<event>
11    1  0.6625361E-009  0.1663005E+03  0.7561462E-02  0.1081297E+00
         22   -1    0    0    0    0  0.00000000000E+00  0.00000000000E+00  0.93709401616E+03  0.93709401616E+03  0.00000000000E+00 0. -1.
         22   -1    0    0    0    0 -0.00000000000E+00 -0.00000000000E+00 -0.13074235642E+03  0.13074235642E+03  0.00000000000E+00 0.  1.
         24    2    1    2    0    0  0.20608746688E+02  0.43277895220E+02 -0.25119555483E+02  0.94594300024E+02  0.77584746405E+02 0.  0.
         25    2    1    2    0    0  0.30657934070E+02 -0.13743884890E+03  0.71306236627E+02  0.20140122088E+03  0.12509406973E+03 0.  0.
        -24    2    1    2    0    0 -0.51266680758E+02  0.94160953680E+02  0.76016497859E+03  0.77184085168E+03  0.79955912116E+02 0.  0.
        -13    1    3    3    0    0  0.35100391689E+00  0.28263355017E+02 -0.51095535029E+02  0.58392586349E+02  0.00000000000E+00 0.  1.
         14    1    3    3    0    0  0.20257742771E+02  0.15014540203E+02  0.25975979546E+02  0.36201713676E+02  0.00000000000E+00 0. -1.
         11    1    5    5    0    0 -0.49499707106E+02  0.88245460690E+02  0.75880243401E+03  0.76551852766E+03  0.00000000000E+00 0. -1.
        -12    1    5    5    0    0 -0.17669736513E+01  0.59154929897E+01  0.13625445847E+01  0.63223240142E+01  0.00000000000E+00 0.  1.
          5    1    4    4  501    0  0.77008762594E+02 -0.10878137254E+03  0.44906273676E+02  0.14070459248E+03  0.41800000000E+01 0. -1.
         -5    1    4    4    0  501 -0.46350828524E+02 -0.28657476356E+02  0.26399962951E+02  0.60696628405E+02  0.41800000000E+01 0. -1.
</event>
<event>
11    1  0.6625361E-009  0.1826733E+03  0.7561462E-02  0.1067501E+00
         22   -1    0    0    0    0  0.00000000000E+00  0.00000000000E+00  0.14615827480E+04  0.14615827480E+04  0.00000000000E+00 0. -1.
         22   -1    0    0    0    0 -0.00000000000E+00 -0.00000000000E+00 -0.16944256241E+03  0.16944256241E+03  0.00000000000E+00 0.  1.
        -24    2    1    2    0    0 -0.60705969594E+02  0.46457151161E+02 -0.12524642374E+03  0.16733097217E+03  0.80433239097E+02 0.  0.
         25    2    1    2    0    0  0.16656519427E+03 -0.69127125259E+01  0.80307896210E+03  0.82967563575E+03  0.12503636132E+03 0.  0.
         24    2    1    2    0    0 -0.10585922467E+03 -0.39544438635E+02  0.61430764719E+03  0.63401870244E+03  0.10879288383E+03 0.  0.
        -11    1    5    5    0    0  0.21847034050E+01 -0.27994723595E+02  0.30288774815E+03  0.30418656357E+03  0.00000000000E+00 0.  1.
         12    1    5    5    0    0 -0.10804392808E+03 -0.11549715040E+02  0.31141989904E+03  0.32983213887E+03  0.00000000000E+00 0. -1.
         11    1    3    3    0    0 -0.65297895754E+02  0.56195177286E+01 -0.53305782403E+02  0.84480178782E+02  0.00000000000E+00 0. -1.
        -12    1    3    3    0    0  0.45919261603E+01  0.40837633433E+02 -0.71940641333E+02  0.82850793392E+02  0.00000000000E+00 0.  1.
          5    1    4    4  501    0  0.26423752185E+02  0.45649425015E+02  0.13445746634E+03  0.14449348545E+03  0.41800000000E+01 0.  1.
         -5    1    4    4    0  501  0.14014144208E+03 -0.52562137541E+02  0.66862149576E+03  0.68518215029E+03  0.41800000000E+01 0.  1.
</event>
<event>
11    1  0.6625361E-009  0.1306756E+03  0.7561462E-02  0.1118442E+00
         22   -1    0    0    0    0  0.00000000000E+00  0.00000000000E+00  0.80735579831E+03  0.80735579831E+03  0.00000000000E+00 0.  1.
         22   -1    0    0    0    0 -0.00000000000E+00 -0.00000000000E+00 -0.23878814292E+03  0.23878814292E+03  0.00000000000E+00 0.  1.
        -24    2    1    2    0    0  0.35043419454E+02 -0.15696224205E+02 -0.20904921929E+03  0.23401246635E+03  0.97907331794E+02 0.  0.
         25    2    1    2    0    0 -0.32384751459E+02 -0.19649149043E+02  0.31959343983E+03  0.34528505324E+03  0.12508772931E+03 0.  0.
         24    2    1    2    0    0 -0.26586679951E+01  0.35345373249E+02  0.45802343485E+03  0.46684642163E+03  0.83088811483E+02 0.  0.
        -13    1    5    5    0    0 -0.13899498420E+01 -0.23727454609E+02  0.61291589772E+02  0.65738748388E+02  0.00000000000E+00 0.  1.
         14    1    5    5    0    0 -0.12687181531E+01  0.59072827858E+02  0.39673184508E+03  0.40110767324E+03  0.00000000000E+00 0. -1.
         13    1    3    3    0    0 -0.26539758625E+02  0.20330463981E+02 -0.76356746039E+02  0.83354899192E+02  0.00000000000E+00 0. -1.
        -14    1    3    3    0    0  0.61583178079E+02 -0.36026688186E+02 -0.13269247325E+03  0.15065756716E+03  0.00000000000E+00 0.  1.
          5    1    4    4  501    0 -0.46860387393E+02 -0.15083439660E+02  0.32492770929E+03  0.32866228065E+03  0.41800000000E+01 0. -1.
         -5    1    4    4    0  501  0.14475635934E+02 -0.45657093835E+01 -0.53342694600E+01  0.16622772589E+02  0.41800000000E+01 0. -1.
</event>
<event>
11    1  0.6625361E-009  0.1645314E+03  0.7561462E-02  0.1082891E+00
         22   -1    0    0    0    0  0.00000000000E+00  0.00000000000E+00  0.40087815737E+03  0.40087815737E+03  0.00000000000E+00 0.  1.
         22   -1    0    0    0    0 -0.00000000000E+00 -0.00000000000E+00 -0.60294006136E+03  0.60294006136E+03  0.00000000000E+00 0.  1.
        -24    2    1    2    0    0  0.27232293483E+02  0.10000261218E+03 -0.52938257247E+03  0.54553144602E+03  0.81342057506E+02 0.  0.
         25    2    1    2    0    0  0.31894448546E+02  0.30318716540E+02  0.62002178989E+02  0.14638624328E+03  0.12509269204E+03 0.  0.
         24    2    1    2    0    0 -0.59126742029E+02 -0.13032132872E+03  0.26531848949E+03  0.31190052942E+03  0.80052601736E+02 0.  0.
        -13    1    5    5    0    0 -0.78592636156E+02 -0.10748001138E+03  0.22776209682E+03  0.26382632175E+03  0.00000000000E+00 0.  1.
         14    1    5    5    0    0  0.19465894127E+02 -0.22841317342E+02  0.37556392674E+02  0.48074207666E+02  0.00000000000E+00 0. -1.
         13    1    3    3    0    0 -0.11698093643E+02  0.83190048681E+02 -0.27196212786E+03  0.28464157916E+03  0.00000000000E+00 0. -1.
        -14    1    3    3    0    0  0.38930387126E+02  0.16812563499E+02 -0.25742044460E+03  0.26088986687E+03  0.00000000000E+00 0.  1.
          5    1    4    4  501    0  0.41730432992E+02  0.28241646230E+02 -0.26590247865E+02  0.57127342849E+02  0.41800000000E+01 0. -1.
         -5    1    4    4    0  501 -0.98359844463E+01  0.20770703099E+01  0.88592426853E+02  0.89258900435E+02  0.41800000000E+01 0. -1.
</event>
<event>
11    1  0.6625361E-009  0.1444781E+03  0.7561462E-02  0.1102658E+00
         22   -1    0    0    0    0  0.00000000000E+00  0.00000000000E+00  0.54306897420E+03  0.54306897420E+03  0.00000000000E+00 0.  1.
         22   -1    0    0    0    0 -0.00000000000E+00 -0.00000000000E+00 -0.13091436672E+03  0.13091436672E+03  0.00000000000E+00 0.  1.
        -24    2    1    2    0    0 -0.71396116398E+02 -0.39005286430E+02 -0.63461196324E+02  0.13053924341E+03  0.79964697372E+02 0.  0.
         25    2    1    2    0    0  0.36872888991E+02 -0.76851685371E+01  0.13221291026E+03  0.18586188165E+03  0.12508282717E+03 0.  0.
         24    2    1    2    0    0  0.34523227407E+02  0.46690454967E+02  0.34340289354E+03  0.35758221586E+03  0.81040989572E+02 0.  0.
        -11    1    5    5    0    0  0.37186209771E+02  0.64485535560E+02  0.20660516457E+03  0.21960622150E+03  0.00000000000E+00 0.  1.
         12    1    5    5    0    0 -0.26629823641E+01 -0.17795080593E+02  0.13679772897E+03  0.13797599436E+03  0.00000000000E+00 0. -1.
         11    1    3    3    0    0  0.12635862537E+02  0.69025309523E+01 -0.21774040593E+02  0.26103999681E+02  0.00000000000E+00 0. -1.
        -12    1    3    3    0    0 -0.84031978935E+02 -0.45907817382E+02 -0.41687155731E+02  0.10443524373E+03  0.00000000000E+00 0.  1.
          5    1    4    4  501    0  0.81116779039E+01  0.37615530110E+02  0.12584640863E+03  0.13166441580E+03  0.41800000000E+01 0.  1.
         -5    1    4    4    0  501  0.28761211087E+02 -0.45300698648E+02  0.63665016290E+01  0.54197465846E+02  0.41800000000E+01 0.  1.
</event>
<event>
11    1  0.6625361E-009  0.1336432E+03  0.7561462E-02  0.1114872E+00
         22   -1    0    0    0    0  0.00000000000E+00  0.00000000000E+00  0.13046978348E+04  0.13046978348E+04  0.00000000000E+00 0. -1.
         22   -1    0    0    0    0 -0.00000000000E+00 -0.00000000000E+00 -0.43235039671E+03  0.43235039671E+03  0.00000000000E+00 0. -1.
         24    2    1    2    0    0  0.22593985279E+02  0.45203670380E+02 -0.40465804916E+03  0.41583033945E+03  0.81319582338E+02 0.  0.
         25    2    1    2    0    0 -0.34432341294E+02 -0.84930448270E+02  0.28651582667E+03  0.32579060198E+03  0.12509768279E+03 0.  0.
        -24    2    1    2    0    0  0.11838356015E+02  0.39726777890E+02  0.99048966060E+03  0.99542729010E+03  0.89929742353E+02 0.  0.
        -11    1    3    3    0    0  0.46875049432E+02  0.94584781608E+01 -0.14724464097E+03  0.15481510702E+03  0.00000000000E+00 0.  1.
         12    1    3    3    0    0 -0.24281064153E+02  0.35745192219E+02 -0.25741340820E+03  0.26101523244E+03  0.00000000000E+00 0. -1.
         13    1    5    5    0    0  0.49542173210E+02  0.22930085551E+02  0.68324720300E+03  0.68542465389E+03  0.00000000000E+00 0. -1.
        -14    1    5    5    0    0 -0.37703817195E+02  0.16796692338E+02  0.30724245760E+03  0.31000263621E+03  0.00000000000E+00 0.  1.
          5    1    4    4  501    0 -0.67314009779E+02 -0.88245824437E+02  0.15869930212E+03  0.19370452328E+03  0.41800000000E+01 0.  1.
         -5    1    4    4    0  501  0.32881668485E+02  0.33153761668E+01  0.12781652454E+03  0.13208607870E+03  0.41800000000E+01 0.  1.
</event>
<event>
11    1  0.6625361E-009  0.1937299E+03  0.7561462E-02  0.1059048E+00
         22   -1    0    0    0    0  0.00000000000E+00  0.00000000000E+00  0.38464720892E+03  0.38464720892E+03  0.00000000000E+00 0. -1.
         22   -1    0    0    0    0 -0.00000000000E+00 -0.00000000000E+00 -0.31376622241E+03  0.31376622241E+03  0.00000000000E+00 0.  1.
        -24    2    1    2    0    0  0.45611403826E+02 -0.71583685866E+02 -0.19890427784E+03  0.23039155247E+03  0.79452699549E+02 0.  0.
         25    2    1    2    0    0  0.11641520095E+03 -0.30230934376E+02  0.14259902131E+03  0.22460837723E+03  0.12509210142E+03 0.  0.
         24    2    1    2    0    0 -0.16202660478E+03  0.10181462024E+03  0.12718624304E+03  0.24341350162E+03  0.80342733360E+02 0.  0.
        -13    1    5    5    0    0 -0.13541586686E+03  0.11078344664E+03  0.12543503158E+03  0.21527744005E+03  0.00000000000E+00 0.  1.
         14    1    5    5    0    0 -0.26610737911E+02 -0.89688263991E+01  0.17512114612E+01  0.28136061571E+02  0.00000000000E+00 0. -1.
         11    1    3    3    0    0  0.39917585172E+02 -0.22634772392E+02 -0.30932838802E+02  0.55340645493E+02  0.00000000000E+00 0. -1.
        -12    1    3    3    0    0  0.56938186535E+01 -0.48948913474E+02 -0.16797143904E+03  0.17505090698E+03  0.00000000000E+00 0.  1.
          5    1    4    4  501    0  0.12537692000E+02 -0.11106783434E+02  0.11372779451E+03  0.11503059594E+03  0.41800000000E+01 0.  1.
         -5    1    4    4    0  501  0.10387750895E+03 -0.19124150942E+02  0.28871226801E+02  0.10957778129E+03  0.41800000000E+01 0.  1.
</event>
<event>
11    1  0.6625361E-009  0.2202869E+03  0.7561462E-02  0.1041038E+00
         22   -1    0    0    0    0  0.00000000000E+00  0.00000000000E+00  0.35042025193E+03  0.35042025193E+03  0.00000000000E+00 0. -1.
         22   -1    0    0    0    0 -0.00000000000E+00 -0.00000000000E+00 -0.61150296899E+03  0.61150296899E+03  0.00000000000E+00 0.  1.
        -24    2    1    2    0    0 -0.17635805724E+03  0.26539887511E+02 -0.43117367225E+03  0.47353694274E+03  0.80746334363E+02 0.  0.
         25    2    1    2    0    0  0.17614125744E+03 -0.12426303927E+03 -0.30664833956E+02  0.25110799090E+03  0.12509134882E+03 0.  0.
         24    2    1    2    0    0  0.21679980059E+00  0.97723151761E+02  0.20075578916E+03  0.23727828728E+03  0.80300917437E+02 0.  0.
        -11    1    5    5    0    0  0.78021949177E+00  0.99927338202E+02  0.11858383566E+03  0.15507484561E+03  0.00000000000E+00 0.  1.
         12    1    5    5    0    0 -0.56341969117E+00 -0.22041864412E+01  0.82171953499E+02  0.82203441665E+02  0.00000000000E+00 0. -1.
         11    1    3    3    0    0 -0.77168156548E+01 -0.36467351723E+01  0.10484407253E+01  0.85992528292E+01  0.00000000000E+00 0. -1.
        -12    1    3    3    0    0 -0.16864124159E+03  0.30186622683E+02 -0.43222211298E+03  0.46493768991E+03  0.00000000000E+00 0.  1.
          5    1    4    4  501    0  0.93727628271E+02 -0.11483001514E+03  0.26021830679E+02  0.15055035288E+03  0.41800000000E+01 0. -1.
         -5    1    4    4    0  501  0.82413629172E+02 -0.94330241290E+01 -0.56686664636E+02  0.10055763802E+03  0.41800000000E+01 0. -1.
</event>
<event>
11    1  0.6625361E-009  0.1326661E+03  0.7561462E-02  0.1116036E+00
         22   -1    0    0    0    0  0.00000000000E+00  0.00000000000E+00  0.64331668055E+02  0.64331668055E+02  0.00000000000E+00 0.  1.
         22   -1    0    0    0    0 -0.00000000000E+00 -0.00000000000E+00 -0.38697625598E+03  0.38697625598E+03  0.00000000000E+00 0. -1.
        -24    2    1    2    0    0  0.24143569885E+02 -0.25422238059E+01 -0.12689766926E+03  0.15233934387E+03  0.80714821179E+02 0.  0.
         25    2    1    2    0    0  0.11885048512E+02  0.37954090519E+02 -0.99354005273E+02  0.16462212272E+03  0.12508979799E+03 0.  0.
         24    2    1    2    0    0 -0.36028618397E+02 -0.35411866713E+02 -0.96392913391E+02  0.13434645744E+03  0.78773823243E+02 0.  0.
        -11    1    5    5    0    0 -0.18883577886E+02 -0.32330228271E+02 -0.10819610292E+01  0.37456692507E+02  0.00000000000E+00 0.  1.
         12    1    5    5    0    0 -0.17145040510E+02 -0.30816384414E+01 -0.95310952362E+02  0.96889764938E+02  0.00000000000E+00 0. -1.
         11    1    3    3    0    0  0.48806052563E+02  0.17329145137E+02 -0.68130795064E+02  0.85581161911E+02  0.00000000000E+00 0. -1.
        -12    1    3    3    0    0 -0.24662482678E+02 -0.19871368943E+02 -0.58766874193E+02  0.66758181955E+02  0.00000000000E+00 0.  1.
          5    1    4    4  501    0 -0.16633402233E+02  0.96877807578E+01  0.26176510405E+02  0.32759811704E+02  0.41800000000E+01 0.  1.
         -5    1    4    4    0  501  0.28518450745E+02  0.28266309761E+02 -0.12553051568E+03  0.13186231102E+03  0.41800000000E+01 0.  1.
</event>
<event>
11    1  0.6625361E-009  0.1536213E+03  0.7561462E-02  0.1093235E+00
         22   -1    0    0    0    0  0.00000000000E+00  0.00000000000E+00  0.16508653014E+04  0.16508653014E+04  0.00000000000E+00 0.  1.
         22   -1    0    0    0    0 -0.00000000000E+00 -0.00000000000E+00 -0.54383893819E+03  0.54383893819E+03  0.00000000000E+00 0. -1.
        -24    2    1    2    0    0 -0.57608012901E+02 -0.67575772045E+02 -0.46180129994E+03  0.47754026299E+03  0.83060785146E+02 0.  0.
         25    2    1    2    0    0  0.95425528995E+02  0.40145096218E+02  0.17807080529E+02  0.16334986546E+03  0.12509366928E+03 0.  0.
         24    2    1    2    0    0 -0.37817516094E+02  0.27430675827E+02  0.15510205826E+04  0.15538141111E+04  0.80565735547E+02 0.  0.
        -11    1    5    5    0    0 -0.62122439310E+02  0.12498437712E+02  0.94466514550E+03  0.94678806791E+03  0.00000000000E+00 0.  1.
         12    1    5    5    0    0  0.24304923216E+02  0.14932238115E+02  0.60635543711E+03  0.60702604322E+03  0.00000000000E+00 0. -1.
         13    1    3    3    0    0 -0.40920746282E+02  0.30071533380E+01 -0.25745997023E+03  0.26070900775E+03  0.00000000000E+00 0. -1.
        -14    1    3    3    0    0 -0.16687266619E+02 -0.70582925383E+02 -0.20434132971E+03  0.21683125524E+03  0.00000000000E+00 0.  1.
          5    1    4    4  501    0  0.52127851805E+02  0.47551127202E+02 -0.47047522164E+02  0.84907975914E+02  0.41800000000E+01 0. -1.
         -5    1    4    4    0  501  0.43297677190E+02 -0.74060309836E+01  0.64854602694E+02  0.78441889546E+02  0.41800000000E+01 0. -1.
</event>
<event>
11    1  0.6625361E-009  0.1567069E+03  0.7561462E-02  0.1090216E+00
         22   -1    0    0    0    0  0.00000000000E+00  0.00000000000E+00  0.20948919440E+04  0.20948919440E+04  0.00000000000E+00 0.  1.
         22   -1    0    0    0    0 -0.00000000000E+00 -0.00000000000E+00 -0.21800474024E+03  0.21800474024E+03  0.00000000000E+00 0.  1.
         24    2    1    2    0    0  0.48899797620E+01  0.19209942752E+02 -0.19919222686E+03  0.21539314783E+03  0.79521890625E+02 0.  0.
         25    2    1    2    0    0  0.21644871338E+02  0.77019248118E+02  0.70105620086E+03  0.71660869687E+03  0.12509101740E+03 0.  0.
        -24    2    1    2    0    0 -0.26534851100E+02 -0.96229190870E+02  0.13750232298E+04  0.13808948395E+04  0.78851252422E+02 0.  0.
        -11    1    3    3    0    0 -0.15744738999E+02  0.31488567843E+02 -0.18317978350E+03  0.18653219506E+03  0.00000000000E+00 0.  1.
         12    1    3    3    0    0  0.20634718761E+02 -0.12278625091E+02 -0.16012443360E+02  0.28860952771E+02  0.00000000000E+00 0. -1.
         13    1    5    5    0    0 -0.46050669861E+02 -0.84573691980E+02  0.86085892294E+03  0.86622829483E+03  0.00000000000E+00 0. -1.
        -14    1    5    5    0    0  0.19515818762E+02 -0.11655498890E+02  0.51416430681E+03  0.51466654471E+03  0.00000000000E+00 0.  1.
          5    1    4    4  501    0  0.71333918056E+02  0.63847545572E+02  0.41293155082E+03  0.42390444088E+03  0.41800000000E+01 0. -1.
         -5    1    4    4    0  501 -0.49689046718E+02  0.13171702547E+02  0.28812465004E+03  0.29270425599E+03  0.41800000000E+01 0. -1.
</event>
<event>
11    1  0.6625361E-009  0.1751811E+03  0.7561462E-02  0.1073609E+00
         22   -1    0    0    0    0  0.00000000000E+00  0.00000000000E+00  0.23773968296E+03  0.23773968296E+03  0.00000000000E+00 0. -1.
         22   -1    0    0    0    0 -0.00000000000E+00 -0.00000000000E+00 -0.54256459339E+03  0.54256459339E+03  0.00000000000E+00 0.  1.
         24    2    1    2    0    0  0.76199484363E+01 -0.12937713076E+03 -0.44848180386E+03  0.47370419209E+03  0.80394201481E+02 0.  0.
         25    2    1    2    0    0  0.24791764833E+02  0.75715834533E+02  0.23982345398E+02  0.15023379788E+03  0.12509005528E+03 0.  0.
        -24    2    1    2    0    0 -0.32411713269E+02  0.53661296224E+02  0.11967454803E+03  0.15636628639E+03  0.78729690745E+02 0.  0.
        -13    1    3    3    0    0  0.38163052814E+02 -0.77427988799E+02 -0.32549170930E+03  0.33674376738E+03  0.00000000000E+00 0.  1.
         14    1    3    3    0    0 -0.30543104378E+02 -0.51949141958E+02 -0.12299009456E+03  0.13696042471E+03  0.00000000000E+00 0. -1.
         13    1    5    5    0    0 -0.35876096844E+02  0.68409493317E+02  0.11812190703E+03  0.14113730202E+03  0.00000000000E+00 0. -1.
        -14    1    5    5    0    0  0.34643835746E+01 -0.14748197093E+02  0.15526410004E+01  0.15228984376E+02  0.00000000000E+00 0.  1.
          5    1    4    4  501    0 -0.87480333899E+01  0.70423185963E+02  0.65344026870E+02  0.96557068395E+02  0.41800000000E+01 0. -1.
         -5    1    4    4    0  501  0.33539798223E+02  0.52926485696E+01 -0.41361681472E+02  0.53676729482E+02  0.41800000000E+01 0. -1.
</event>
<event>
11    1  0.6625361E-009  0.1647379E+03  0.7561462E-02  0.1082704E+00
         22   -1    0    0    0    0  0.00000000000E+00  0.00000000000E+00  0.21892957066E+04  0.21892957066E+04  0.00000000000E+00 0. -1.
         22   -1    0    0    0    0 -0.00000000000E+00 -0.00000000000E+00 -0.35373132178E+03  0.35373132178E+03  0.00000000000E+00 0.  1.
        -24    2    1    2    0    0  0.84445944739E+02 -0.61379721517E+02 -0.25760350937E+03  0.28918976311E+03  0.79828336159E+02 0.  0.
         25    2    1    2    0    0 -0.82005114824E+02  0.98776332389E+02  0.21836537537E+02  0.18057909567E+03  0.12510144973E+03 0.  0.
         24    2    1    2    0    0 -0.24408299149E+01 -0.37396610871E+02  0.20713313566E+04  0.20732581696E+04  0.81125733265E+02 0.  0.
        -11    1    5    5    0    0  0.50427101197E+01 -0.25772554898E+02  0.18285073969E+03  0.18472695125E+03  0.00000000000E+00 0.  1.
         12    1    5    5    0    0 -0.74835400346E+01 -0.11624055973E+02  0.18884806169E+04  0.18885312183E+04  0.00000000000E+00 0. -1.
         13    1    3    3    0    0  0.52331625428E+02 -0.18288089778E+02 -0.49699259515E+02  0.74451794096E+02  0.00000000000E+00 0. -1.
        -14    1    3    3    0    0  0.32114319311E+02 -0.43091631739E+02 -0.20790424985E+03  0.21473796901E+03  0.00000000000E+00 0.  1.
          5    1    4    4  501    0 -0.18210814357E+01  0.17149668680E+02  0.57881931048E+02  0.60541042403E+02  0.41800000000E+01 0.  1.
         -5    1    4    4    0  501 -0.80184033389E+02  0.81626663709E+02 -0.36045393511E+02  0.12003805327E+03  0.41800000000E+01 0.  1.
</event>
<event>
11    1  0.6625361E-009  0.1496471E+03  0.7561462E-02  0.1097240E+00
         22   -1    0    0    0    0  0.00000000000E+00  0.00000000000E+00  0.94622137403E+03  0.94622137403E+03  0.00000000000E+00 0.  1.
         22   -1    0    0    0    0 -0.00000000000E+00 -0.00000000000E+00 -0.95310433141E+03  0.95310433141E+03  0.00000000000E+00 0.  1.
         24    2    1    2    0    0 -0.19119236331E+02 -0.91826269616E+01 -0.82220852775E+03  0.82625771739E+03  0.78899218066E+02 0.  0.
         25    2    1    2    0    0 -0.48881733817E+02 -0.37945448430E+02 -0.86290177351E+02  0.16408256045E+03  0.12509121064E+03 0.  0.
        -24    2    1    2    0    0  0.68000970149E+02  0.47128075391E+02  0.90161574771E+03  0.90898542759E+03  0.80612428453E+02 0.  0.
        -11    1    3    3    0    0 -0.87570142337E+01  0.23263521633E+02 -0.66209503941E+03  0.66256148240E+03  0.00000000000E+00 0.  1.
         12    1    3    3    0    0 -0.10362222098E+02 -0.32446148595E+02 -0.16011348833E+03  0.16369623499E+03  0.00000000000E+00 0. -1.
         11    1    5    5    0    0  0.47371537965E+02 -0.66755982029E+01  0.23118368150E+03  0.23608159778E+03  0.00000000000E+00 0. -1.
        -12    1    5    5    0    0  0.20629432184E+02  0.53803673594E+02  0.67043206622E+03  0.67290382981E+03  0.00000000000E+00 0.  1.
          5    1    4    4  501    0 -0.17157518481E+02 -0.59687457370E+02 -0.10425947049E+03  0.12142686109E+03  0.41800000000E+01 0. -1.
         -5    1    4    4    0  501 -0.31724215336E+02  0.21742008941E+02  0.17969293141E+02  0.42655699355E+02  0.41800000000E+01 0. -1.
</event>
<event>
11    1  0.6625361E-009  0.1346496E+03  0.7561462E-02  0.1113685E+00
         22   -1    0    0    0    0  0.00000000000E+00  0.00000000000E+00  0.21501174746E+03  0.21501174746E+03  0.00000000000E+00 0. -1.
         22   -1    0    0    0    0 -0.00000000000E+00 -0.00000000000E+00 -0.10123138998E+04  0.10123138998E+04  0.00000000000E+00 0.  1.
         24    2    1    2    0    0 -0.30009927604E+01  0.35047226058E+02 -0.77486868371E+03  0.77953611895E+03  0.77574285324E+02 0.  0.
         25    2    1    2    0    0 -0.17159548467E+01 -0.82831984396E+02 -0.19747810988E+03  0.24800893695E+03  0.12508695690E+03 0.  0.
        -24    2    1    2    0    0  0.47169476071E+01  0.47784758339E+02  0.17504464125E+03  0.19978059135E+03  0.83462719358E+02 0.  0.
        -13    1    3    3    0    0 -0.24959277822E+02  0.44629801782E+02 -0.67076015363E+03  0.67270645043E+03  0.00000000000E+00 0.  1.
         14    1    3    3    0    0  0.21958285061E+02 -0.95825757242E+01 -0.10410853008E+03  0.10682966852E+03  0.00000000000E+00 0. -1.
         11    1    5    5    0    0 -0.24220745070E+02  0.57212781120E+02  0.89229611059E+02  0.10872842455E+03  0.00000000000E+00 0. -1.
        -12    1    5    5    0    0  0.28937692677E+02 -0.94280227810E+01  0.85815030196E+02  0.91052166798E+02  0.00000000000E+00 0.  1.
          5    1    4    4  501    0 -0.42551767510E+02 -0.70905568035E+02 -0.55360493041E+02  0.99601752426E+02  0.41800000000E+01 0.  1.
         -5    1    4    4    0  501  0.40835812663E+02 -0.11926416361E+02 -0.14211761684E+03  0.14840718452E+03  0.41800000000E+01 0.  1.
</event>
<event>
11    1  0.6625361E-009  0.1335259E+03  0.7561462E-02  0.1115011E+00
         22   -1    0    0    0    0  0.00000000000E+00  0.00000000000E+00  0.18916100529E+03  0.18916100529E+03  0.00000000000E+00 0. -1.
         22   -1    0    0    0    0 -0.00000000000E+00 -0.00000000000E+00 -0.78618222337E+03  0.78618222337E+03  0.00000000000E+00 0. -1.
         24    2    1    2    0    0  0.45189956296E+02  0.24836147985E+02 -0.49088285081E+03  0.50001882786E+03  0.79961794634E+02 0.  0.
         25    2    1    2    0    0 -0.38441349192E+02  0.11305813849E+02 -0.26313979945E+03  0.29410226593E+03  0.12509208614E+03 0.  0.
        -24    2    1    2    0    0 -0.67486071044E+01 -0.36141961834E+02  0.15700143218E+03  0.18122213486E+03  0.82705666999E+02 0.  0.
        -11    1    3    3    0    0  0.51933573413E+01 -0.82134367662E+01 -0.42138282454E+01  0.10591876721E+02  0.00000000000E+00 0.  1.
         12    1    3    3    0    0  0.39996598955E+02  0.33049584751E+02 -0.48666902257E+03  0.48942695114E+03  0.00000000000E+00 0. -1.
         13    1    5    5    0    0 -0.20536231066E+02 -0.26863691205E+02  0.16068135952E+03  0.16420077341E+03  0.00000000000E+00 0. -1.
        -14    1    5    5    0    0  0.13787623962E+02 -0.92782706286E+01 -0.36799273395E+01  0.17021361450E+02  0.00000000000E+00 0.  1.
          5    1    4    4  501    0 -0.44944119070E+02 -0.25328265582E+02 -0.34007673315E+02  0.61931325843E+02  0.41800000000E+01 0.  1.
         -5    1    4    4    0  501  0.65027698789E+01  0.36634079432E+02 -0.22913212614E+03  0.23217094008E+03  0.41800000000E+01 0.  1.
</event>
<event>
11    1  0.6625361E-009  0.1350103E+03  0.7561462E-02  0.1113262E+00
         22   -1    0    0    0    0  0.00000000000E+00  0.00000000000E+00  0.57378819889E+02  0.57378819889E+02  0.00000000000E+00 0. -1.
         22   -1    0    0    0    0 -0.00000000000E+00 -0.00000000000E+00 -0.14204261542E+04  0.14204261542E+04  0.00000000000E+00 0. -1.
        -24    2    1    2    0    0 -0.81248898088E+01 -0.37341494953E+02 -0.10686632348E+04  0.10723920348E+04  0.80766117099E+02 0.  0.
         25    2    1    2    0    0  0.40247556771E+02 -0.70965467203E+01 -0.27658443913E+03  0.30629537884E+03  0.12509068841E+03 0.  0.
         24    2    1    2    0    0 -0.32122666962E+02  0.44438041673E+02 -0.17799660400E+02  0.99117560534E+02  0.80627896011E+02 0.  0.
        -11    1    5    5    0    0 -0.48554854092E+01 -0.10184065733E+02 -0.34109257406E+02  0.35926764037E+02  0.00000000000E+00 0.  1.
         12    1    5    5    0    0 -0.27267181553E+02  0.54622107407E+02  0.16309597005E+02  0.63190796496E+02  0.00000000000E+00 0. -1.
         11    1    3    3    0    0  0.59399327820E+01 -0.39522028772E+02 -0.10359020794E+04  0.10366727505E+04  0.00000000000E+00 0. -1.
        -12    1    3    3    0    0 -0.14064822591E+02  0.21805338192E+01 -0.32761155456E+02  0.35719284274E+02  0.00000000000E+00 0.  1.
          5    1    4    4  501    0  0.41641965202E+02 -0.26496415398E+02 -0.27967574038E+02  0.56883836829E+02  0.41800000000E+01 0. -1.
         -5    1    4    4    0  501 -0.13944084312E+01  0.19399868677E+02 -0.24861686509E+03  0.24941154201E+03  0.41800000000E+01 0. -1.
</event>
<event>
11    1  0.6625361E-009  0.1981374E+03  0.7561462E-02  0.1055849E+00
         22   -1    0    0    0    0  0.00000000000E+00  0.00000000000E+00  0.15260630864E+03  0.15260630864E+03  0.00000000000E+00 0. -1.
         22   -1    0    0    0    0 -0.00000000000E+00 -0.00000000000E+00 -0.21605095622E+04  0.21605095622E+04  0.00000000000E+00 0. -1.
        -24    2    1    2    0    0  0.51224217189E+02  0.37197046898E+02 -0.17221699538E+04  0.17252455921E+04  0.81212453364E+02 0.  0.
         25    2    1    2    0    0 -0.10149746800E+03 -0.17450183147E+03 -0.33807351652E+03  0.41315092792E+03  0.12508941392E+03 0.  0.
         24    2    1    2    0    0  0.50273250813E+02  0.13730478457E+03  0.52340216742E+02  0.17471935083E+03  0.80045922139E+02 0.  0.
        -13    1    5    5    0    0  0.26859664876E+02  0.65916028285E+02 -0.16226260999E+02  0.73004492520E+02  0.00000000000E+00 0.  1.
         14    1    5    5    0    0  0.23413585936E+02  0.71388756287E+02  0.68566477741E+02  0.10171485831E+03  0.00000000000E+00 0. -1.
         11    1    3    3    0    0  0.66687930692E+02  0.17460707977E+02 -0.15144127354E+04  0.15159809001E+04  0.00000000000E+00 0. -1.
        -12    1    3    3    0    0 -0.15463713504E+02  0.19736338921E+02 -0.20775721844E+03  0.20926469201E+03  0.00000000000E+00 0.  1.
          5    1    4    4  501    0  0.80062261885E+01 -0.32192117889E+02 -0.14763423913E+03  0.15137296018E+03  0.41800000000E+01 0.  1.
         -5    1    4    4    0  501 -0.10950369419E+03 -0.14230971358E+03 -0.19043927739E+03  0.26177796774E+03  0.41800000000E+01 0.  1.
</event>
<event>
11    1  0.6625361E-009  0.1426951E+03  0.7561462E-02  0.1104586E+00
         22   -1    0    0    0    0  0.00000000000E+00  0.00000000000E+00  0.14677128405E+03  0.14677128405E+03  0.00000000000E+00 0.  1.
         22   -1    0    0    0    0 -0.00000000000E+00 -0.00000000000E+00 -0.88969623543E+03  0.88969623543E+03  0.00000000000E+00 0.  1.
        -24    2    1    2    0    0  0.51307144176E+02  0.45808715704E+02 -0.77953689330E+03  0.78765161540E+03  0.89366871712E+02 0.  0.
         25    2    1    2    0    0 -0.27109890272E+02 -0.68983577575E+02 -0.18039271634E+02  0.14651806102E+03  0.12509375188E+03 0.  0.
         24    2    1    2    0    0 -0.24197253904E+02  0.23174861871E+02  0.54651213548E+02  0.10229784305E+03  0.79721466568E+02 0.  0.
        -11    1    5    5    0    0  0.87671637734E+01 -0.96024478196E+01  0.54273867363E+02  0.55809702054E+02  0.00000000000E+00 0.  1.
         12    1    5    5    0    0 -0.32964417678E+02  0.32777309691E+02  0.37734618410E+00  0.46488140999E+02  0.00000000000E+00 0. -1.
         11    1    3    3    0    0  0.16840778241E+02  0.45325761679E+02 -0.15976258252E+03  0.16691949933E+03  0.00000000000E+00 0. -1.
        -12    1    3    3    0    0  0.34466365935E+02  0.48295402529E+00 -0.61977431077E+03  0.62073211607E+03  0.00000000000E+00 0.  1.
          5    1    4    4  501    0  0.61121625387E+01 -0.89087101660E+02  0.20429045182E+02  0.91698901302E+02  0.41800000000E+01 0.  1.
         -5    1    4    4    0  501 -0.33222052811E+02  0.20103524085E+02 -0.38468316816E+02  0.54819159718E+02  0.41800000000E+01 0.  1.
</event>
<event>
11    1  0.6625361E-009  0.1571086E+03  0.7561462E-02  0.1089829E+00
         22   -1    0    0    0    0  0.00000000000E+00  0.00000000000E+00  0.35401491978E+03  0.35401491978E+03  0.00000000000E+00 0. -1.
         22   -1    0    0    0    0 -0.00000000000E+00 -0.00000000000E+00 -0.51386197286E+03  0.51386197286E+03  0.00000000000E+00 0.  1.
        -24    2    1    2    0    0  0.33678457676E+02 -0.17961851787E+02 -0.43916151978E+03  0.44812194670E+03  0.80582703043E+02 0.  0.
         25    2    1    2    0    0  0.44593796744E+02  0.77848521713E+02  0.58751076406E+02  0.16476729411E+03  0.12509026017E+03 0.  0.
         24    2    1    2    0    0 -0.78272254420E+02 -0.59886669926E+02  0.22056339029E+03  0.25498765183E+03  0.81593715439E+02 0.  0.
        -11    1    5    5    0    0 -0.68313928274E+01 -0.49658022692E+02  0.55206045472E+02  0.74567382965E+02  0.00000000000E+00 0.  1.
         12    1    5    5    0    0 -0.71440861593E+02 -0.10228647234E+02  0.16535734482E+03  0.18042026886E+03  0.00000000000E+00 0. -1.
         13    1    3    3    0    0  0.73359834723E+01  0.18350117175E+02 -0.26647401776E+02  0.33175706100E+02  0.00000000000E+00 0. -1.
        -14    1    3    3    0    0  0.26342474204E+02 -0.36311968962E+02 -0.41251411800E+03  0.41494624060E+03  0.00000000000E+00 0.  1.
          5    1    4    4  501    0  0.25301041719E+02  0.80027844896E+02  0.92895932854E+02  0.12526661731E+03  0.41800000000E+01 0.  1.
         -5    1    4    4    0  501  0.19292755025E+02 -0.21793231828E+01 -0.34144856448E+02  0.39500676802E+02  0.41800000000E+01 0.  1.
</event>
<event>
11    1  0.6625361E-009  0.1294740E+03  0.7561462E-02  0.1119917E+00
         22   -1    0    0    0    0  0.00000000000E+00  0.00000000000E+00  0.42093338023E+03  0.42093338023E+03  0.00000000000E+00 0.  1.
         22   -1    0    0    0    0 -0.00000000000E+00 -0.00000000000E+00 -0.15750646204E+03  0.15750646204E+03  0.00000000000E+00 0.  1.
         24    2    1    2    0    0  0.22151962025E+02 -0.36243568809E+02 -0.65302334801E+02  0.12680890566E+03  0.10005897222E+03 0.  0.
         25    2    1    2    0    0  0.42515833373E+01  0.16112928137E+02  0.16506770569E+02  0.12727180237E+03  0.12509170952E+03 0.  0.
        -24    2    1    2    0    0 -0.26403545362E+02  0.20130640672E+02  0.31222248242E+03  0.32435913424E+03  0.81385376653E+02 0.  0.
        -11    1    3    3    0    0  0.21106244114E+01 -0.64162741353E+02 -0.15065966427E+02  0.65941606424E+02  0.00000000000E+00 0.  1.
         12    1    3    3    0    0  0.20041337614E+02  0.27919172544E+02 -0.50236368374E+02  0.60867299236E+02  0.00000000000E+00 0. -1.
         11    1    5    5    0    0 -0.34853264480E+01  0.36117915528E+01 -0.42812355366E+01  0.65970839308E+01  0.00000000000E+00 0. -1.
        -12    1    5    5    0    0 -0.22918218914E+02  0.16518849119E+02  0.31650371796E+03  0.31776205031E+03  0.00000000000E+00 0.  1.
          5    1    4    4  501    0  0.37044530916E+02  0.55584172261E+02  0.31037179352E+02  0.73774496805E+02  0.41800000000E+01 0. -1.
         -5    1    4    4    0  501 -0.32792947579E+02 -0.39471244124E+02 -0.14530408783E+02  0.53497305567E+02  0.41800000000E+01 0. -1.
</event>
<event>
11    1  0.6625361E-009  0.1380477E+03  0.7561462E-02  0.1109758E+00
         22   -1    0    0    0    0  0.00000000000E+00  0.00000000000E+00  0.12377647458E+03  0.12377647458E+03  0.00000000000E+00 0.  1.
         22   -1    0    0    0    0 -0.00000000000E+00 -0.00000000000E+00 -0.97693383749E+03  0.97693383749E+03  0.00000000000E+00 0. -1.
        -24    2    1    2    0    0  0.76829135313E+01  0.19250321825E+02 -0.81078163565E+03  0.81517107990E+03  0.81898881187E+02 0.  0.
         25    2    1    2    0    0  0.52040042047E+02 -0.19441311704E+02 -0.97706064626E+02  0.16816588516E+03  0.12508860576E+03 0.  0.
         24    2    1    2    0    0 -0.59722955578E+02  0.19098987929E+00  0.55330337368E+02  0.11737334700E+03  0.84546960043E+02 0.  0.
        -13    1    5    5    0    0 -0.38317818774E+02  0.13109521802E+02  0.75217458089E+02  0.85427049573E+02  0.00000000000E+00 0.  1.
         14    1    5    5    0    0 -0.21405136804E+02 -0.12918531922E+02 -0.19887120721E+02  0.31946297426E+02  0.00000000000E+00 0. -1.
         11    1    3    3    0    0  0.68513757925E+01 -0.17346757629E+02 -0.65029735157E+03  0.65056475221E+03  0.00000000000E+00 0. -1.
        -12    1    3    3    0    0  0.83153773878E+00  0.36597079454E+02 -0.16048428408E+03  0.16460632769E+03  0.00000000000E+00 0.  1.
          5    1    4    4  501    0 -0.16156210107E+02 -0.14085363484E+02 -0.97207457454E+02  0.99630230223E+02  0.41800000000E+01 0.  1.
         -5    1    4    4    0  501  0.68196252153E+02 -0.53559482200E+01 -0.49860717169E+00  0.68535654941E+02  0.41800000000E+01 0.  1.
</event>
<event>
11    1  0.6625361E-009  0.2060808E+03  0.7561462E-02  0.1050305E+00
         22   -1    0    0    0    0  0.00000000000E+00  0.00000000000E+00  0.10406631866E+04  0.10406631866E+04  0.00000000000E+00 0.  1.
         22   -1    0    0    0    0 -0.00000000000E+00 -0.00000000000E+00 -0.42108878164E+03  0.42108878164E+03  0.00000000000E+00 0.  1.
         24    2    1    2    0    0 -0.47500171798E+02  0.49538924459E+02 -0.30327579591E+03  0.32166604322E+03  0.82355713974E+02 0.  0.
         25    2    1    2    0    0 -0.11934603707E+03 -0.27980304491E+02 -0.22435752297E+02  0.17656041224E+03  0.12507534603E+03 0.  0.
        -24    2    1    2    0    0  0.16684620887E+03 -0.21558619968E+02  0.94528595319E+03  0.96352551280E+03  0.80705941552E+02 0.  0.
        -13    1    3    3    0    0 -0.22824763739E+02  0.51260548863E+02 -0.28610342713E+03  0.29155408542E+03  0.00000000000E+00 0.  1.
         14    1    3    3    0    0 -0.24675408060E+02 -0.17216244046E+01 -0.17172368777E+02  0.30111957806E+02  0.00000000000E+00 0. -1.
         11    1    5    5    0    0  0.11912893134E+03  0.17728864511E+02  0.51964122316E+03  0.53341636245E+03  0.00000000000E+00 0. -1.
        -12    1    5    5    0    0  0.47717277529E+02 -0.39287484479E+02  0.42564473003E+03  0.43010915035E+03  0.00000000000E+00 0.  1.
          5    1    4    4  501    0 -0.30710455576E+02 -0.25733504818E+02 -0.66278406175E+02  0.77560588426E+02  0.41800000000E+01 0. -1.
         -5    1    4    4    0  501 -0.88635581498E+02 -0.22467996730E+01  0.43842653878E+02  0.98999823814E+02  0.41800000000E+01 0. -1.
</event>
<event>
11    1  0.6625361E-009  0.1377441E+03  0.7561462E-02  0.1110104E+00
         22   -1    0    0    0    0  0.00000000000E+00  0.00000000000E+00  0.32536134008E+03  0.32536134008E+03  0.00000000000E+00 0. -1.
         22   -1    0    0    0    0 -0.00000000000E+00 -0.00000000000E+00 -0.91041380792E+03  0.91041380792E+03  0.00000000000E+00 0. -1.
         24    2    1    2    0    0 -0.11579347861E+02 -0.39759887125E+01 -0.86111327312E+03  0.86498275869E+03  0.80803551332E+02 0.  0.
         25    2    1    2    0    0  0.62963283091E+02  0.20162735878E+02  0.12051403800E+03  0.18585503521E+03  0.12509016677E+03 0.  0.
        -24    2    1    2    0    0 -0.51383935230E+02 -0.16186747166E+02  0.15554676728E+03  0.18493735410E+03  0.84289433178E+02 0.  0.
        -13    1    3    3    0    0 -0.22360445646E+02  0.19336339194E+02 -0.12601637434E+03  0.12943728266E+03  0.00000000000E+00 0.  1.
         14    1    3    3    0    0  0.10781097785E+02 -0.23312327907E+02 -0.73509689878E+03  0.73554547603E+03  0.00000000000E+00 0. -1.
         11    1    5    5    0    0  0.22035499551E+02  0.41373773547E+01  0.23419831669E+02  0.32421746518E+02  0.00000000000E+00 0. -1.
        -12    1    5    5    0    0 -0.73419434782E+02 -0.20324124520E+02  0.13212693561E+03  0.15251560758E+03  0.00000000000E+00 0.  1.
          5    1    4    4  501    0 -0.15043490417E+02 -0.24513924785E+02 -0.68936201170E+01  0.29870278047E+02  0.41800000000E+01 0.  1.
         -5    1    4    4    0  501  0.78006773508E+02  0.44676660663E+02  0.12740765812E+03  0.15598475716E+03  0.41800000000E+01 0.  1.
</event>
<event>
11    1  0.6625361E-009  0.1376607E+03  0.7561462E-02  0.1110199E+00
         22   -1    0    0    0    0  0.00000000000E+00  0.00000000000E+00  0.62259743731E+03  0.62259743731E+03  0.00000000000E+00 0.  1.
         22   -1    0    0    0    0 -0.00000000000E+00 -0.00000000000E+00 -0.12873609929E+03  0.12873609929E+03  0.00000000000E+00 0. -1.
         24    2    1    2    0    0 -0.10346087373E+02 -0.11321308847E+02 -0.27039803599E+02  0.77891573955E+02  0.71419414423E+02 0.  0.
         25    2    1    2    0    0  0.36471600497E+02  0.61522605245E+02  0.48081743953E+00  0.14409813590E+03  0.12509529562E+03 0.  0.
        -24    2    1    2    0    0 -0.26125513124E+02 -0.50201296398E+02  0.52042032418E+03  0.52934382674E+03  0.78516625579E+02 0.  0.
        -13    1    3    3    0    0 -0.11247032823E+02  0.10497812557E+02  0.20467787596E+02  0.25605275724E+02  0.00000000000E+00 0.  1.
         14    1    3    3    0    0  0.90094545020E+00 -0.21819121404E+02 -0.47507591195E+02  0.52286298231E+02  0.00000000000E+00 0. -1.
         13    1    5    5    0    0  0.20627375778E+02 -0.30513004049E+02  0.11480007782E+03  0.12056363430E+03  0.00000000000E+00 0. -1.
        -14    1    5    5    0    0 -0.46752888902E+02 -0.19688292349E+02  0.40562024636E+03  0.40878019244E+03  0.00000000000E+00 0.  1.
          5    1    4    4  501    0  0.52726293190E+02 -0.20965358336E+02 -0.14221349113E+02  0.58645779169E+02  0.41800000000E+01 0. -1.
         -5    1    4    4    0  501 -0.16254692693E+02  0.82487963581E+02  0.14702166552E+02  0.85452356735E+02  0.41800000000E+01 0. -1.
</event>
<event>
11    1  0.6625361E-009  0.1589758E+03  0.7561462E-02  0.1088045E+00
         22   -1    0    0    0    0  0.00000000000E+00  0.00000000000E+00  0.71843464230E+02  0.71843464230E+02  0.00000000000E+00 0.  1.
         22   -1    0    0    0    0 -0.00000000000E+00 -0.00000000000E+00 -0.27898571949E+04  0.27898571949E+04  0.00000000000E+00 0. -1.
         24    2    1    2    0    0 -0.92009392501E+02  0.32627017890E+02 -0.25627055055E+04  0.25658288998E+04  0.80549268425E+02 0.  0.
         25    2    1    2    0    0  0.10470521370E+03 -0.41189505670E+02 -0.11057147760E+03  0.20132634010E+03  0.12508591610E+03 0.  0.
        -24    2    1    2    0    0 -0.12695821201E+02  0.85624877801E+01 -0.44736747544E+02  0.94545419181E+02  0.81871604567E+02 0.  0.
        -11    1    3    3    0    0 -0.10804515748E+02 -0.11194518903E+02 -0.11538220442E+04  0.11539269320E+04  0.00000000000E+00 0.  1.
         12    1    3    3    0    0 -0.81204876753E+02  0.43821536793E+02 -0.14088834613E+04  0.14119019678E+04  0.00000000000E+00 0. -1.
         11    1    5    5    0    0 -0.33985014886E+01  0.25554789130E+02 -0.62908727169E+02  0.67986064850E+02  0.00000000000E+00 0. -1.
        -12    1    5    5    0    0 -0.92973197128E+01 -0.16992301350E+02  0.18171979624E+02  0.26559354331E+02  0.00000000000E+00 0.  1.
          5    1    4    4  501    0  0.11759927245E+03 -0.53159806445E+02 -0.12382867667E+03  0.17890379389E+03  0.41800000000E+01 0. -1.
         -5    1    4    4    0  501 -0.12894058748E+02  0.11970300775E+02  0.13257199066E+02  0.22422546214E+02  0.41800000000E+01 0. -1.
</event>
<event>
11    1  0.6625361E-009  0.4768107E+03  0.7561462E-02  0.9446885E-01
         22   -1    0    0    0    0  0.00000000000E+00  0.00000000000E+00  0.64589961507E+03  0.64589961507E+03  0.00000000000E+00 0.  1.
         22   -1    0    0    0    0 -0.00000000000E+00 -0.00000000000E+00 -0.10393758210E+04  0.10393758210E+04  0.00000000000E+00 0. -1.
         24    2    1    2    0    0  0.42840657545E+03  0.15512120156E+03 -0.67936430143E+03  0.82180761756E+03  0.78975471910E+02 0.  0.
         25    2    1    2    0    0 -0.53078551636E+03  0.56996237239E+02  0.27247817052E+03  0.61226995391E+03  0.12509319573E+03 0.  0.
        -24    2    1    2    0    0  0.10237894091E+03 -0.21211743880E+03  0.13409924972E+02  0.25119786461E+03  0.86286069044E+02 0.  0.
        -13    1    3    3    0    0  0.21719158022E+03  0.11823388043E+03 -0.38665131840E+03  0.45896696506E+03  0.00000000000E+00 0.  1.
         14    1    3    3    0    0  0.21121499523E+03  0.36887321125E+02 -0.29271298303E+03  0.36284065250E+03  0.00000000000E+00 0. -1.
         13    1    5    5    0    0  0.10393254597E+01 -0.57700816426E+02  0.31267493270E+02  0.65636274643E+02  0.00000000000E+00 0. -1.
        -14    1    5    5    0    0  0.10133961545E+03 -0.15441662237E+03 -0.17857568298E+02  0.18556158996E+03  0.00000000000E+00 0.  1.
          5    1    4    4  501    0 -0.25502878182E+03  0.58200352155E+02  0.72103626420E+02  0.27137311195E+03  0.41800000000E+01 0.  1.
         -5    1    4    4    0  501 -0.27575673454E+03 -0.12041149153E+01  0.20037454410E+03  0.34089684196E+03  0.41800000000E+01 0.  1.
</event>
<event>
11    1  0.6625361E-009  0.1292429E+03  0.7561462E-02  0.1120203E+00
         22   -1    0    0    0    0  0.00000000000E+00  0.00000000000E+00  0.20003864280E+03  0.20003864280E+03  0.00000000000E+00 0. -1.
         22   -1    0    0    0    0 -0.00000000000E+00 -0.00000000000E+00 -0.26461326297E+03  0.26461326297E+03  0.00000000000E+00 0. -1.
         24    2    1    2    0    0  0.29304883156E+02 -0.62839702979E+01 -0.12086488354E+03  0.14749648251E+03  0.79048262599E+02 0.  0.
         25    2    1    2    0    0 -0.41441392018E+02 -0.19864626907E+02 -0.81271500472E+02  0.15609222082E+03  0.12509089590E+03 0.  0.
        -24    2    1    2    0    0  0.12136508862E+02  0.26148597205E+02  0.13756176384E+03  0.16106320244E+03  0.78657945102E+02 0.  0.
        -13    1    3    3    0    0 -0.74035481490E+01  0.12658104037E+02  0.46302023033E+01  0.15377870346E+02  0.00000000000E+00 0.  1.
         14    1    3    3    0    0  0.36708431305E+02 -0.18942074335E+02 -0.12549508585E+03  0.13211861217E+03  0.00000000000E+00 0. -1.
         11    1    5    5    0    0  0.35541160554E+02  0.22242742266E+02  0.31666851558E+02  0.52542393975E+02  0.00000000000E+00 0. -1.
        -12    1    5    5    0    0 -0.23404651692E+02  0.39058549389E+01  0.10589491228E+03  0.10852080847E+03  0.00000000000E+00 0.  1.
          5    1    4    4  501    0  0.35166831017E+00  0.50802438736E+02 -0.28434036129E+02  0.58369326385E+02  0.41800000000E+01 0. -1.
         -5    1    4    4    0  501 -0.41793060328E+02 -0.70667065643E+02 -0.52837464342E+02  0.97722894432E+02  0.41800000000E+01 0. -1.
</event>
<event>
11    1  0.6625361E-009  0.1874765E+03  0.7561462E-02  0.1063751E+00
         22   -1    0    0    0    0  0.00000000000E+00  0.00000000000E+00  0.88363584380E+03  0.88363584380E+03  0.00000000000E+00 0. -1.
         22   -1    0    0    0    0 -0.00000000000E+00 -0.00000000000E+00 -0.42000497494E+03  0.42000497494E+03  0.00000000000E+00 0. -1.
         24    2    1    2    0    0  0.46700296388E+02  0.13277489983E+03 -0.36186164677E+03  0.39634730087E+03  0.79606782328E+02 0.  0.
         25    2    1    2    0    0 -0.25684437447E+02 -0.12477606357E+03  0.16953862118E+03  0.24621028803E+03  0.12508958986E+03 0.  0.
        -24    2    1    2    0    0 -0.21015858941E+02 -0.79988362614E+01  0.65595389445E+03  0.66108322984E+03  0.79056166248E+02 0.  0.
        -13    1    3    3    0    0  0.27276849564E+02  0.10670413267E+03 -0.17567782726E+03  0.20734632247E+03  0.00000000000E+00 0.  1.
         14    1    3    3    0    0  0.19423446824E+02  0.26070767158E+02 -0.18618381951E+03  0.18900097840E+03  0.00000000000E+00 0. -1.
         11    1    5    5    0    0 -0.11036402564E+02  0.16202916153E+02  0.58699851401E+03  0.58732579726E+03  0.00000000000E+00 0. -1.
        -12    1    5    5    0    0 -0.99794563768E+01 -0.24201752415E+02  0.68955380441E+02  0.73757432583E+02  0.00000000000E+00 0.  1.
          5    1    4    4  501    0 -0.54525627223E+02 -0.67282545175E+02  0.15871066501E+03  0.18084947469E+03  0.41800000000E+01 0. -1.
         -5    1    4    4    0  501  0.28841189775E+02 -0.57493518395E+02  0.10827956173E+02  0.65360813336E+02  0.41800000000E+01 0. -1.
</event>
<event>
11    1  0.6625361E-009  0.1362048E+03  0.7561462E-02  0.1111872E+00
         22   -1    0    0    0    0  0.00000000000E+00  0.00000000000E+00  0.50704626984E+02  0.50704626984E+02  0.00000000000E+00 0.  1.
         22   -1    0    0    0    0 -0.00000000000E+00 -0.00000000000E+00 -0.90530494852E+03  0.90530494852E+03  0.00000000000E+00 0. -1.
        -24    2    1    2    0    0 -0.22649805010E+02 -0.49265424651E+02 -0.57794163166E+03  0.58606282888E+03  0.80703246865E+02 0.  0.
         25    2    1    2    0    0  0.17478192518E+02  0.49859066748E+02 -0.24531097933E+03  0.28037945273E+03  0.12507496624E+03 0.  0.
         24    2    1    2    0    0  0.51716124920E+01 -0.59364209738E+00 -0.31347710545E+02  0.89567293901E+02  0.83740809607E+02 0.  0.
        -11    1    5    5    0    0 -0.37807486744E+02  0.79903000359E+01 -0.64990125645E+01  0.39185304808E+02  0.00000000000E+00 0.  1.
         12    1    5    5    0    0  0.42979099236E+02 -0.85839421333E+01 -0.24848697981E+02  0.50381989093E+02  0.00000000000E+00 0. -1.
         11    1    3    3    0    0  0.19947128966E+02 -0.16839897734E+01 -0.30879748856E+03  0.30944565390E+03  0.00000000000E+00 0. -1.
        -12    1    3    3    0    0 -0.42596933975E+02 -0.47581434878E+02 -0.26914414309E+03  0.27661717497E+03  0.00000000000E+00 0.  1.
          5    1    4    4  501    0 -0.43880677051E+02  0.91160118120E+01 -0.16629035648E+03  0.17227469503E+03  0.41800000000E+01 0.  1.
         -5    1    4    4    0  501  0.61358869568E+02  0.40743054936E+02 -0.79020622849E+02  0.10810475769E+03  0.41800000000E+01 0.  1.
</event>
<event>
11    1  0.6625361E-009  0.1888076E+03  0.7561462E-02  0.1062733E+00
         22   -1    0    0    0    0  0.00000000000E+00  0.00000000000E+00  0.36423867505E+03  0.36423867505E+03  0.00000000000E+00 0. -1.
         22   -1    0    0    0    0 -0.00000000000E+00 -0.00000000000E+00 -0.96395539328E+03  0.96395539328E+03  0.00000000000E+00 0. -1.
         24    2    1    2    0    0 -0.19492098501E+02 -0.19982105648E+02 -0.86148807740E+03  0.86561331210E+03  0.79658471776E+02 0.  0.
         25    2    1    2    0    0 -0.12068831672E+03 -0.28472728835E+02  0.34491274032E+02  0.17948007825E+03  0.12508830650E+03 0.  0.
        -24    2    1    2    0    0  0.14018041522E+03  0.48454834483E+02  0.22728008515E+03  0.28310067798E+03  0.80568833753E+02 0.  0.
        -13    1    3    3    0    0  0.19406841906E+02 -0.30616538441E+02 -0.23000584771E+03  0.23284477215E+03  0.00000000000E+00 0.  1.
         14    1    3    3    0    0 -0.38898940407E+02  0.10634432793E+02 -0.63148222969E+03  0.63276853994E+03  0.00000000000E+00 0. -1.
         11    1    5    5    0    0  0.11591321343E+03  0.68844706366E+01  0.12834418667E+03  0.17307657044E+03  0.00000000000E+00 0. -1.
        -12    1    5    5    0    0  0.24267201798E+02  0.41570363846E+02  0.98935898474E+02  0.11002410754E+03  0.00000000000E+00 0.  1.
          5    1    4    4  501    0 -0.31385191934E+02 -0.22290561586E+02 -0.45227580354E+02  0.59539111794E+02  0.41800000000E+01 0.  1.
         -5    1    4    4    0  501 -0.89303124789E+02 -0.61821672486E+01  0.79718854386E+02  0.11994096645E+03  0.41800000000E+01 0.  1.
</event>
<event>
11    1  0.6625361E-009  0.1516514E+03  0.7561462E-02  0.1095203E+00
         22   -1    0    0    0    0  0.00000000000E+00  0.00000000000E+00  0.24896829452E+03  0.24896829452E+03  0.00000000000E+00 0. -1.
         22   -1    0    0    0    0 -0.00000000000E+00 -0.00000000000E+00 -0.36241156907E+03  0.36241156907E+03  0.00000000000E+00 0. -1.
        -24    2    1    2    0    0  0.11349355475E+02 -0.97043739583E+01 -0.25815663534E+03  0.27087459623E+03  0.80654917838E+02 0.  0.
         25    2    1    2    0    0 -0.89638296940E+02  0.36656840159E+02  0.35559850484E+01  0.15824422606E+03  0.12509932791E+03 0.  0.
         24    2    1    2    0    0  0.78288941465E+02 -0.26952466201E+02  0.14115737574E+03  0.18226104129E+03  0.80237700967E+02 0.  0.
        -11    1    5    5    0    0  0.73384382150E+01  0.70553776782E+01 -0.84473028087E+01  0.13228301265E+02  0.00000000000E+00 0.  1.
         12    1    5    5    0    0  0.70950503250E+02 -0.34007843879E+02  0.14960467855E+03  0.16903274003E+03  0.00000000000E+00 0. -1.
         13    1    3    3    0    0  0.16693499169E+02 -0.18168189516E+02 -0.25959245818E+03  0.26076234461E+03  0.00000000000E+00 0. -1.
        -14    1    3    3    0    0 -0.53441436942E+01  0.84638155573E+01  0.14358228394E+01  0.10112251621E+02  0.00000000000E+00 0.  1.
          5    1    4    4  501    0 -0.31207837538E+02 -0.23195794397E+02 -0.46434902460E+02  0.60709526172E+02  0.41800000000E+01 0. -1.
         -5    1    4    4    0  501 -0.58430459402E+02  0.59852634556E+02  0.49990887508E+02  0.97534699892E+02  0.41800000000E+01 0. -1.
</event>
<event>
11    1  0.6625361E-009  0.1386278E+03  0.7561462E-02  0.1109100E+00
         22   -1    0    0    0    0  0.00000000000E+00  0.00000000000E+00  0.54565477507E+03  0.54565477507E+03  0.00000000000E+00 0.  1.
         22   -1    0    0    0    0 -0.00000000000E+00 -0.00000000000E+00 -0.18605911051E+03  0.18605911051E+03  0.00000000000E+00 0.  1.
        -24    2    1    2    0    0 -0.49631878379E+02 -0.43434804643E+02 -0.11383538740E+03  0.15341335714E+03  0.78912971793E+02 0.  0.
         25    2    1    2    0    0  0.90690648656E+01  0.36541344390E+02  0.42056744559E+02  0.13724085289E+03  0.12509502049E+03 0.  0.
         24    2    1    2    0    0  0.40562813514E+02  0.68934602537E+01  0.43137430740E+03  0.44105967555E+03  0.82200867844E+02 0.  0.
        -13    1    5    5    0    0  0.59532514159E+02  0.25546252996E+02  0.28309657122E+03  0.29041418685E+03  0.00000000000E+00 0.  1.
         14    1    5    5    0    0 -0.18969700646E+02 -0.18652792742E+02  0.14827773618E+03  0.15064548870E+03  0.00000000000E+00 0. -1.
         13    1    3    3    0    0  0.16981352787E+02 -0.12945114720E+02 -0.56451867374E+02  0.60355245568E+02  0.00000000000E+00 0. -1.
        -14    1    3    3    0    0 -0.66613231166E+02 -0.30489689923E+02 -0.57383520030E+02  0.93058111570E+02  0.00000000000E+00 0.  1.
          5    1    4    4  501    0  0.30031056672E+02 -0.23164050085E+02 -0.24471828758E+02  0.45329685460E+02  0.41800000000E+01 0.  1.
         -5    1    4    4    0  501 -0.20961991807E+02  0.59705394474E+02  0.66528573317E+02  0.91911167425E+02  0.41800000000E+01 0.  1.
</event>
<event>
11    1  0.6625361E-009  0.1721249E+03  0.7561462E-02  0.1076197E+00
         22   -1    0    0    0    0  0.00000000000E+00  0.00000000000E+00  0.85645493143E+02  0.85645493143E+02  0.00000000000E+00 0.  1.
         22   -1    0    0    0    0 -0.00000000000E+00 -0.00000000000E+00 -0.57566547166E+03  0.57566547166E+03  0.00000000000E+00 0. -1.
        -24    2    1    2    0    0  0.80478804313E+02 -0.35318394997E+02 -0.77477635577E+02  0.14302079227E+03  0.82023996725E+02 0.  0.
         25    2    1    2    0    0 -0.13903721076E+03  0.24573048395E+02 -0.35590977818E+03  0.40280707901E+03  0.12508633823E+03 0.  0.
         24    2    1    2    0    0  0.58558406443E+02  0.10745346602E+02 -0.56632564755E+02  0.11548309352E+03  0.81145228200E+02 0.  0.
        -11    1    5    5    0    0  0.37898735707E+02  0.41896589317E+02 -0.53772571502E+02  0.77994408842E+02  0.00000000000E+00 0.  1.
         12    1    5    5    0    0  0.20659670736E+02 -0.31151242714E+02 -0.28599932524E+01  0.37488684679E+02  0.00000000000E+00 0. -1.
         11    1    3    3    0    0  0.64641089680E+02  0.12217391661E+02 -0.62460279829E+02  0.90713955323E+02  0.00000000000E+00 0. -1.
        -12    1    3    3    0    0  0.15837714633E+02 -0.47535786658E+02 -0.15017355748E+02  0.52306836950E+02  0.00000000000E+00 0.  1.
          5    1    4    4  501    0 -0.15819408105E+03  0.32180480698E+02 -0.27222516791E+03  0.31652008634E+03  0.41800000000E+01 0. -1.
         -5    1    4    4    0  501  0.19156870296E+02 -0.76074323028E+01 -0.83684610278E+02  0.86286992665E+02  0.41800000000E+01 0. -1.
</event>
<event>
11    1  0.6625361E-009  0.1500121E+03  0.7561462E-02  0.1096866E+00
         22   -1    0    0    0    0  0.00000000000E+00  0.00000000000E+00  0.15519482713E+03  0.15519482713E+03  0.00000000000E+00 0. -1.
         22   -1    0    0    0    0 -0.00000000000E+00 -0.00000000000E+00 -0.11473887563E+04  0.11473887563E+04  0.00000000000E+00 0.  1.
         24    2    1    2    0    0 -0.79825160279E+02  0.18498366325E+02 -0.94204874385E+03  0.94916215225E+03  0.82089644357E+02 0.  0.
         25    2    1    2    0    0  0.78252965306E+02 -0.62405878186E+02 -0.14856127775E+03  0.21848243888E+03  0.12508438208E+03 0.  0.
        -24    2    1    2    0    0  0.15721949733E+01  0.43907511860E+02  0.98416092439E+02  0.13493899228E+03  0.81193983719E+02 0.  0.
        -11    1    3    3    0    0 -0.54622797171E+02  0.49131774659E+02 -0.70494182144E+03  0.70875986968E+03  0.00000000000E+00 0.  1.
         12    1    3    3    0    0 -0.25202363108E+02 -0.30633408333E+02 -0.23710692241E+03  0.24040228257E+03  0.00000000000E+00 0. -1.
         11    1    5    5    0    0 -0.20849232576E+02  0.18974258171E+02  0.97393672054E+02  0.10139152000E+03  0.00000000000E+00 0. -1.
        -12    1    5    5    0    0  0.22421427550E+02  0.24933253689E+02  0.10224203852E+01  0.33547472279E+02  0.00000000000E+00 0.  1.
          5    1    4    4  501    0  0.86695236711E+02 -0.55646072655E+02 -0.16725804212E+03  0.19648224990E+03  0.41800000000E+01 0.  1.
         -5    1    4    4    0  501 -0.84422714049E+01 -0.67598055308E+01  0.18696764370E+02  0.22000188981E+02  0.41800000000E+01 0.  1.
</event>
<event>
11    1  0.6625361E-009  0.1275976E+03  0.7561462E-02  0.1122256E+00
         22   -1    0    0    0    0  0.00000000000E+00  0.00000000000E+00  0.52367468687E+03  0.52367468687E+03  0.00000000000E+00 0. -1.
         22   -1    0    0    0    0 -0.00000000000E+00 -0.00000000000E+00 -0.95296400180E+02  0.95296400180E+02  0.00000000000E+00 0.  1.
        -24    2    1    2    0    0  0.29667193684E+02  0.30328196626E+01 -0.33697393301E+02  0.88596931907E+02  0.76318815844E+02 0.  0.
         25    2    1    2    0    0 -0.35278952076E+02 -0.25705359780E+02  0.12145929890E+03  0.17973636096E+03  0.12508968055E+03 0.  0.
         24    2    1    2    0    0  0.56117583927E+01  0.22672540117E+02  0.34061638109E+03  0.35063779419E+03  0.79886217431E+02 0.  0.
        -13    1    5    5    0    0 -0.16574200873E+02  0.18779510819E+02  0.29466324273E+02  0.38673484810E+02  0.00000000000E+00 0.  1.
         14    1    5    5    0    0  0.22185959266E+02  0.38930292981E+01  0.31115005682E+03  0.31196430938E+03  0.00000000000E+00 0. -1.
         11    1    3    3    0    0  0.62379469492E+00  0.22253676740E+02  0.16351871025E+02  0.27622435343E+02  0.00000000000E+00 0. -1.
        -12    1    3    3    0    0  0.29043398989E+02 -0.19220857077E+02 -0.50049264326E+02  0.60974496564E+02  0.00000000000E+00 0.  1.
          5    1    4    4  501    0  0.21989877195E+02 -0.35432085381E+02 -0.33134350670E+01  0.42040916087E+02  0.41800000000E+01 0. -1.
         -5    1    4    4    0  501 -0.57268829272E+02  0.97267256012E+01  0.12477273397E+03  0.13769544487E+03  0.41800000000E+01 0. -1.
</event>
<event>
11    1  0.6625361E-009  0.1284736E+03  0.7561462E-02  0.1121159E+00
         22   -1    0    0    0    0  0.00000000000E+00  0.00000000000E+00  0.27215774940E+02  0.27215774940E+02  0.00000000000E+00 0.  1.
         22   -1    0    0    0    0 -0.00000000000E+00 -0.00000000000E+00 -0.12598253916E+04  0.12598253916E+04  0.00000000000E+00 0.  1.
        -24    2    1    2    0    0  0.90528502040E+01 -0.30200270888E+02 -0.79854447374E+03  0.80317422414E+03  0.80134557640E+02 0.  0.
         25    2    1    2    0    0 -0.20219622287E+02  0.98613949477E+01 -0.30564424659E+03  0.33103086043E+03  0.12512771415E+03 0.  0.
         24    2    1    2    0    0  0.11166772083E+02  0.20338875940E+02 -0.12842089629E+03  0.15283608193E+03  0.79552339136E+02 0.  0.
        -13    1    5    5    0    0 -0.22182758245E+02  0.38482026508E+02 -0.77402318453E+02  0.89241582401E+02  0.00000000000E+00 0.  1.
         14    1    5    5    0    0  0.33349530328E+02 -0.18143150568E+02 -0.51018577839E+02  0.63594499529E+02  0.00000000000E+00 0. -1.
         13    1    3    3    0    0 -0.28474160487E+02  0.66711863047E+01 -0.17625000406E+03  0.17865986251E+03  0.00000000000E+00 0. -1.
        -14    1    3    3    0    0  0.37527010691E+02 -0.36871457192E+02 -0.62229446968E+03  0.62451436163E+03  0.00000000000E+00 0.  1.
          5    1    4    4  501    0  0.50865276532E+02  0.12925707268E+02 -0.16757112934E+03  0.17564710659E+03  0.41800000000E+01 0.  1.
         -5    1    4    4    0  501 -0.71084898819E+02 -0.30643123206E+01 -0.13807311725E+03  0.15538375384E+03  0.41800000000E+01 0.  1.
</event>
<event>
11    1  0.6625361E-009  0.1291604E+03  0.7561462E-02  0.1120305E+00
         22   -1    0    0    0    0  0.00000000000E+00  0.00000000000E+00  0.12114565652E+03  0.12114565652E+03  0.00000000000E+00 0.  1.
         22   -1    0    0    0    0 -0.00000000000E+00 -0.00000000000E+00 -0.10291525392E+04  0.10291525392E+04  0.00000000000E+00 0.  1.
        -24    2    1    2    0    0  0.15293233651E+02 -0.15652713440E+02 -0.75444274619E+03  0.75890399264E+03  0.79199257135E+02 0.  0.
         25    2    1    2    0    0  0.15184379002E+02  0.16100283506E+01 -0.23847970045E+03  0.26972652890E+03  0.12508667118E+03 0.  0.
         24    2    1    2    0    0 -0.30477612653E+02  0.14042685089E+02  0.84915563961E+02  0.12166767418E+03  0.80413233116E+02 0.  0.
        -11    1    5    5    0    0 -0.51696851149E+02  0.29110581894E+02  0.69658335656E+02  0.91500131821E+02  0.00000000000E+00 0.  1.
         12    1    5    5    0    0  0.21219238496E+02 -0.15067896805E+02  0.15257228306E+02  0.30167542360E+02  0.00000000000E+00 0. -1.
         11    1    3    3    0    0  0.72594760181E+01 -0.39721459618E+02 -0.20862632048E+03  0.21249808456E+03  0.00000000000E+00 0. -1.
        -12    1    3    3    0    0  0.80337576333E+01  0.24068746179E+02 -0.54581642571E+03  0.54640590808E+03  0.00000000000E+00 0.  1.
          5    1    4    4  501    0  0.34232123791E+02 -0.21756482017E+02 -0.13878760791E+02  0.43072905753E+02  0.41800000000E+01 0.  1.
         -5    1    4    4    0  501 -0.19047744789E+02  0.23366510367E+02 -0.22460093966E+03  0.22665362315E+03  0.41800000000E+01 0.  1.
</event>
<event>
11    1  0.6625361E-009  0.1358020E+03  0.7561462E-02  0.1112339E+00
         22   -1    0    0    0    0  0.00000000000E+00  0.00000000000E+00  0.16219157976E+03  0.16219157976E+03  0.00000000000E+00 0. -1.
         22   -1    0    0    0    0 -0.00000000000E+00 -0.00000000000E+00 -0.85650970197E+03  0.85650970197E+03  0.00000000000E+00 0. -1.
        -24    2    1    2    0    0 -0.10480504711E+02 -0.49606608023E+02 -0.54877884656E+03  0.55713116829E+03  0.81647165933E+02 0.  0.
         25    2    1    2    0    0 -0.39827482814E+02  0.28782398436E+02 -0.27045011530E+03  0.30200218132E+03  0.12508955915E+03 0.  0.
         24    2    1    2    0    0  0.50307987525E+02  0.20824209586E+02  0.12491083966E+03  0.15956793212E+03  0.83034124201E+02 0.  0.
        -13    1    5    5    0    0 -0.10306434476E+02  0.20608560464E+02  0.27628728224E+01  0.23207085604E+02  0.00000000000E+00 0.  1.
         14    1    5    5    0    0  0.60614422001E+02  0.21564912182E+00  0.12214796684E+03  0.13636084651E+03  0.00000000000E+00 0. -1.
         11    1    3    3    0    0  0.22413665302E+02  0.27071021869E+01 -0.29787616970E+03  0.29873050274E+03  0.00000000000E+00 0. -1.
        -12    1    3    3    0    0 -0.32894170014E+02 -0.52313710210E+02 -0.25090267686E+03  0.25840066554E+03  0.00000000000E+00 0.  1.
          5    1    4    4  501    0 -0.55793995452E+02 -0.35856705955E+02 -0.15533400607E+03  0.16895206164E+03  0.41800000000E+01 0. -1.
         -5    1    4    4    0  501  0.15966512638E+02  0.64639104392E+02 -0.11511610923E+03  0.13305011968E+03  0.41800000000E+01 0. -1.
</event>
<event>
11    1  0.6625361E-009  0.1336100E+03  0.7561462E-02  0.1114911E+00
         22   -1    0    0    0    0  0.00000000000E+00  0.00000000000E+00  0.35103814863E+03  0.35103814863E+03  0.00000000000E+00 0. -1.
         22   -1    0    0    0    0 -0.00000000000E+00 -0.00000000000E+00 -0.80132767542E+03  0.80132767542E+03  0.00000000000E+00 0.  1.
        -24    2    1    2    0    0 -0.91591431277E+01  0.44943605169E+02 -0.71504678208E+03  0.72137636179E+03  0.83595079036E+02 0.  0.
         25    2    1    2    0    0  0.11347270855E+02 -0.68697410434E+02 -0.99589205791E+01  0.14351126617E+03  0.12509280020E+03 0.  0.
         24    2    1    2    0    0 -0.21881277269E+01  0.23753805265E+02  0.27471617587E+03  0.28747819608E+03  0.81275486886E+02 0.  0.
        -11    1    5    5    0    0 -0.83239802173E+01 -0.18193317016E+02  0.16870117065E+02  0.26170332067E+02  0.00000000000E+00 0.  1.
         12    1    5    5    0    0  0.61358524904E+01  0.41947122280E+02  0.25784605880E+03  0.26130786401E+03  0.00000000000E+00 0. -1.
         13    1    3    3    0    0  0.24997282902E+02 -0.12754315171E+02 -0.18843571635E+03  0.19051392575E+03  0.00000000000E+00 0. -1.
        -14    1    3    3    0    0 -0.34156426030E+02  0.57697920340E+02 -0.52661106573E+03  0.53086243604E+03  0.00000000000E+00 0.  1.
          5    1    4    4  501    0  0.40268673028E+02  0.78072772139E+01  0.31341714301E+02  0.51790878157E+02  0.41800000000E+01 0. -1.
         -5    1    4    4    0  501 -0.28921402174E+02 -0.76504687648E+02 -0.41300634880E+02  0.91720388013E+02  0.41800000000E+01 0. -1.
</event>
<event>
11    1  0.6625361E-009  0.2157588E+03  0.7561462E-02  0.1043907E+00
         22   -1    0    0    0    0  0.00000000000E+00  0.00000000000E+00  0.87230167809E+03  0.87230167809E+03  0.00000000000E+00 0. -1.
         22   -1    0    0    0    0 -0.00000000000E+00 -0.00000000000E+00 -0.52083541206E+03  0.52083541206E+03  0.00000000000E+00 0. -1.
         24    2    1    2    0    0 -0.25754808966E+01 -0.17616372153E+03 -0.42944670992E+03  0.47124676021E+03  0.81294172347E+02 0.  0.
         25    2    1    2    0    0  0.99728327712E+01  0.17256328273E+03  0.99102433332E+02  0.23525793578E+03  0.12508980819E+03 0.  0.
        -24    2    1    2    0    0 -0.73973518746E+01  0.36004387962E+01  0.68181054262E+03  0.68663239418E+03  0.80813023273E+02 0.  0.
        -11    1    3    3    0    0 -0.36217490312E+02 -0.41217628796E+02 -0.12798271568E+03  0.13924860875E+03  0.00000000000E+00 0.  1.
         12    1    3    3    0    0  0.33642009415E+02 -0.13494609273E+03 -0.30146399425E+03  0.33199815145E+03  0.00000000000E+00 0. -1.
         13    1    5    5    0    0 -0.39584147109E+02  0.20575385146E+02  0.34964840566E+03  0.35248299073E+03  0.00000000000E+00 0. -1.
        -14    1    5    5    0    0  0.32186795235E+02 -0.16974946350E+02  0.33216213696E+03  0.33414940345E+03  0.00000000000E+00 0.  1.
          5    1    4    4  501    0  0.12579702183E+02  0.18966004371E+03  0.72973106095E+02  0.20364608442E+03  0.41800000000E+01 0.  1.
         -5    1    4    4    0  501 -0.26068694121E+01 -0.17096760982E+02  0.26129327237E+02  0.31611851355E+02  0.41800000000E+01 0.  1.
</event>
<event>
11    1  0.6625361E-009  0.2498897E+03  0.7561462E-02  0.1023958E+00
         22   -1    0    0    0    0  0.00000000000E+00  0.00000000000E+00  0.23435938293E+03  0.23435938293E+03  0.00000000000E+00 0.  1.
         22   -1    0    0    0    0 -0.00000000000E+00 -0.00000000000E+00 -0.89054298828E+03  0.89054298828E+03  0.00000000000E+00 0. -1.
         24    2    1    2    0    0 -0.81936290560E+02  0.69831478300E+02 -0.46582018799E+03  0.48455500849E+03  0.78836017436E+02 0.  0.
         25    2    1    2    0    0  0.79524592080E+02 -0.27274439191E+03 -0.26654672723E+03  0.40915568421E+03  0.12509017571E+03 0.  0.
        -24    2    1    2    0    0  0.24116984801E+01  0.20291291361E+03  0.76183309870E+02  0.23119167851E+03  0.80412864102E+02 0.  0.
        -11    1    3    3    0    0 -0.25663880252E+02 -0.14710116462E+02 -0.71742899298E+02  0.77601970823E+02  0.00000000000E+00 0.  1.
         12    1    3    3    0    0 -0.56272410308E+02  0.84541594762E+02 -0.39407728869E+03  0.40695303767E+03  0.00000000000E+00 0. -1.
         13    1    5    5    0    0  0.28296370877E+02  0.36382497655E+02  0.34529175364E+02  0.57590230870E+02  0.00000000000E+00 0. -1.
        -14    1    5    5    0    0 -0.25884672397E+02  0.16653041595E+03  0.41654134506E+02  0.17360144764E+03  0.00000000000E+00 0.  1.
          5    1    4    4  501    0 -0.52152974440E+01 -0.14914572268E+03 -0.18749506904E+03  0.23967377669E+03  0.41800000000E+01 0. -1.
         -5    1    4    4    0  501  0.84739889524E+02 -0.12359866922E+03 -0.79051658193E+02  0.16948190751E+03  0.41800000000E+01 0. -1.
</event>
<event>
11    1  0.6625361E-009  0.2323466E+03  0.7561462E-02  0.1033748E+00
         22   -1    0    0    0    0  0.00000000000E+00  0.00000000000E+00  0.17811650816E+04  0.17811650816E+04  0.00000000000E+00 0.  1.
         22   -1    0    0    0    0 -0.00000000000E+00 -0.00000000000E+00 -0.24588657418E+03  0.24588657418E+03  0.00000000000E+00 0. -1.
        -24    2    1    2    0    0  0.89178254016E+02 -0.20152921326E+02 -0.14425286538E+03  0.18888558314E+03  0.80684404451E+02 0.  0.
         25    2    1    2    0    0 -0.41399417609E+01 -0.16176130706E+03  0.73040936970E+02  0.21717729485E+03  0.12508852603E+03 0.  0.
         24    2    1    2    0    0 -0.85038312255E+02  0.18191422839E+03  0.16064904359E+04  0.16209887778E+04  0.80428827275E+02 0.  0.
        -13    1    5    5    0    0 -0.82391422878E+02  0.91142924069E+02  0.10457520261E+04  0.10529447655E+04  0.00000000000E+00 0.  1.
         14    1    5    5    0    0 -0.26468893778E+01  0.90771304321E+02  0.56073840981E+03  0.56804401233E+03  0.00000000000E+00 0. -1.
         13    1    3    3    0    0  0.24388138748E+02 -0.20886410796E+02 -0.11199203131E+03  0.11650424260E+03  0.00000000000E+00 0. -1.
        -14    1    3    3    0    0  0.64790115268E+02  0.73348946997E+00 -0.32260834066E+02  0.72381340537E+02  0.00000000000E+00 0.  1.
          5    1    4    4  501    0 -0.55112187806E+02 -0.10775643937E+03  0.13406865386E+02  0.12184424447E+03  0.41800000000E+01 0.  1.
         -5    1    4    4    0  501  0.50972246045E+02 -0.54004867694E+02  0.59634071584E+02  0.95333050382E+02  0.41800000000E+01 0.  1.
</event>
<event>
11    1  0.6625361E-009  0.1439474E+03  0.7561462E-02  0.1103229E+00
         22   -1    0    0    0    0  0.00000000000E+00  0.00000000000E+00  0.42383623270E+03  0.42383623270E+03  0.00000000000E+00 0. -1.
         22   -1    0    0    0    0 -0.00000000000E+00 -0.00000000000E+00 -0.84691676914E+03  0.84691676914E+03  0.00000000000E+00 0.  1.
         24    2    1    2    0    0 -0.51618916174E+02 -0.49876678965E+02 -0.79539668188E+03  0.80251514349E+03  0.78882687453E+02 0.  0.
         25    2    1    2    0    0  0.62401780505E+02  0.93498419917E+01  0.78169482242E+02  0.16044913356E+03  0.12510817219E+03 0.  0.
        -24    2    1    2    0    0 -0.10782864331E+02  0.40526836973E+02  0.29414666319E+03  0.30778872479E+03  0.80330224484E+02 0.  0.
        -11    1    3    3    0    0 -0.23929796456E+02 -0.14135121999E+02 -0.64182312582E+03  0.64242459610E+03  0.00000000000E+00 0.  1.
         12    1    3    3    0    0 -0.27689119718E+02 -0.35741556965E+02 -0.15357355606E+03  0.16009054740E+03  0.00000000000E+00 0. -1.
         11    1    5    5    0    0 -0.61845418129E+01  0.28181845129E+02  0.29316200818E+03  0.29457839023E+03  0.00000000000E+00 0. -1.
        -12    1    5    5    0    0 -0.45983225182E+01  0.12344991844E+02  0.98465500674E+00  0.13210334556E+02  0.00000000000E+00 0.  1.
          5    1    4    4  501    0  0.70739075650E+02  0.57249644146E+02  0.55160967669E+02  0.10649762125E+03  0.41800000000E+01 0. -1.
         -5    1    4    4    0  501 -0.83372951452E+01 -0.47899802154E+02  0.23008514574E+02  0.53951512302E+02  0.41800000000E+01 0. -1.
</event>
<event>
11    1  0.6625361E-009  0.1302613E+03  0.7561462E-02  0.1118948E+00
         22   -1    0    0    0    0  0.00000000000E+00  0.00000000000E+00  0.50583641326E+03  0.50583641326E+03  0.00000000000E+00 0. -1.
         22   -1    0    0    0    0 -0.00000000000E+00 -0.00000000000E+00 -0.18279087022E+03  0.18279087022E+03  0.00000000000E+00 0.  1.
         24    2    1    2    0    0 -0.33208709279E+02  0.20489089288E+02 -0.12441795470E+03  0.15364211610E+03  0.81261622165E+02 0.  0.
         25    2    1    2    0    0  0.15260077495E+02 -0.89335163101E+01  0.62610831287E+02  0.14099672091E+03  0.12508909399E+03 0.  0.
        -24    2    1    2    0    0  0.17948631784E+02 -0.11555572977E+02  0.38485266645E+03  0.39398844646E+03  0.81606595457E+02 0.  0.
        -13    1    3    3    0    0 -0.56966209464E+02  0.25311792514E+02 -0.10684767354E+03  0.12370230880E+03  0.00000000000E+00 0.  1.
         14    1    3    3    0    0  0.23757500185E+02 -0.48227032263E+01 -0.17570281163E+02  0.29939807307E+02  0.00000000000E+00 0. -1.
         13    1    5    5    0    0  0.13309430240E+02 -0.40568874204E+02  0.31942954290E+03  0.32227039480E+03  0.00000000000E+00 0. -1.
        -14    1    5    5    0    0  0.46392015442E+01  0.29013301227E+02  0.65423123546E+02  0.71718051658E+02  0.00000000000E+00 0.  1.
          5    1    4    4  501    0 -0.30502847253E+02  0.45048626241E+02  0.19071321988E+02  0.57801298767E+02  0.41800000000E+01 0. -1.
         -5    1    4    4    0  501  0.45762924748E+02 -0.53982142551E+02  0.43539509299E+02  0.83195422145E+02  0.41800000000E+01 0. -1.
</event>
<event>
11    1  0.6625361E-009  0.1497020E+03  0.7561462E-02  0.1097184E+00
         22   -1    0    0    0    0  0.00000000000E+00  0.00000000000E+00  0.39058615251E+03  0.39058615251E+03  0.00000000000E+00 0.  1.
         22   -1    0    0    0    0 -0.00000000000E+00 -0.00000000000E+00 -0.78532602611E+03  0.78532602611E+03  0.00000000000E+00 0. -1.
         24    2    1    2    0    0 -0.42688125910E+02 -0.37335457951E+01 -0.69377385323E+03  0.69978861650E+03  0.80905703745E+02 0.  0.
         25    2    1    2    0    0  0.43932309929E+02 -0.78705436025E+02  0.13671732970E+01  0.15419054144E+03  0.12509300696E+03 0.  0.
        -24    2    1    2    0    0 -0.12441840185E+01  0.82438981820E+02  0.29766680633E+03  0.32193302068E+03  0.90761272010E+02 0.  0.
        -11    1    3    3    0    0 -0.58799318467E+02 -0.16413683851E+02 -0.34113587568E+03  0.34655512483E+03  0.00000000000E+00 0.  1.
         12    1    3    3    0    0  0.16111192556E+02  0.12680138056E+02 -0.35263797754E+03  0.35323349166E+03  0.00000000000E+00 0. -1.
         13    1    5    5    0    0 -0.35151935916E+01 -0.16751157793E+02  0.92081114649E+02  0.93658366142E+02  0.00000000000E+00 0. -1.
        -14    1    5    5    0    0  0.22710095731E+01  0.99190139613E+02  0.20558569168E+03  0.22827465454E+03  0.00000000000E+00 0.  1.
          5    1    4    4  501    0  0.45838734633E+02 -0.74905440175E+02 -0.50897026309E+02  0.10158737248E+03  0.41800000000E+01 0. -1.
         -5    1    4    4    0  501 -0.19064247042E+01 -0.37999958499E+01  0.52264199606E+02  0.52603168955E+02  0.41800000000E+01 0. -1.
</event>
<event>
11    1  0.6625361E-009  0.1813869E+03  0.7561462E-02  0.1068526E+00
         22   -1    0    0    0    0  0.00000000000E+00  0.00000000000E+00  0.38849382658E+03  0.38849382658E+03  0.00000000000E+00 0. -1.
         22   -1    0    0    0    0 -0.00000000000E+00 -0.00000000000E+00 -0.10170210476E+04  0.10170210476E+04  0.00000000000E+00 0. -1.
        -24    2    1    2    0    0 -0.11433260081E+03 -0.59059021631E+02 -0.90101417493E+03  0.91403726037E+03  0.84128819585E+02 0.  0.
         25    2    1    2    0    0 -0.34431707605E+02  0.90307505551E+02 -0.12427006306E+02  0.15855993598E+03  0.12508331129E+03 0.  0.
         24    2    1    2    0    0  0.14876430842E+03 -0.31248483920E+02  0.28491396019E+03  0.33291767785E+03  0.80937805184E+02 0.  0.
        -13    1    5    5    0    0  0.12130530460E+02 -0.33254043120E+02  0.52809471086E+02  0.63575320601E+02  0.00000000000E+00 0.  1.
         14    1    5    5    0    0  0.13663377796E+03  0.20055592008E+01  0.23210448910E+03  0.26934235725E+03  0.00000000000E+00 0. -1.
         11    1    3    3    0    0 -0.40459602463E+01 -0.39713378742E+02 -0.30446537922E+03  0.30707114711E+03  0.00000000000E+00 0. -1.
        -12    1    3    3    0    0 -0.11028664057E+03 -0.19345642889E+02 -0.59654879571E+03  0.60696611326E+03  0.00000000000E+00 0.  1.
          5    1    4    4  501    0  0.45231117904E+02  0.52725400136E+02 -0.66436038814E+00  0.69596951234E+02  0.41800000000E+01 0.  1.
         -5    1    4    4    0  501 -0.79662825509E+02  0.37582105415E+02 -0.11762645918E+02  0.88962984743E+02  0.41800000000E+01 0.  1.
</event>
<event>
11    1  0.6625361E-009  0.1713062E+03  0.7561462E-02  0.1076900E+00
         22   -1    0    0    0    0  0.00000000000E+00  0.00000000000E+00  0.72554593706E+03  0.72554593706E+03  0.00000000000E+00 0. -1.
         22   -1    0    0    0    0 -0.00000000000E+00 -0.00000000000E+00 -0.23585372029E+03  0.23585372029E+03  0.00000000000E+00 0.  1.
        -24    2    1    2    0    0  0.65446457354E+02 -0.96300515472E+02 -0.15409619782E+03  0.20947441200E+03  0.81097860868E+02 0.  0.
         25    2    1    2    0    0  0.15964245659E+02  0.15225037055E+03  0.16846137049E+03  0.25973324543E+03  0.12508834064E+03 0.  0.
         24    2    1    2    0    0 -0.81410703014E+02 -0.55949855073E+02  0.47532704410E+03  0.49219199993E+03  0.80988129332E+02 0.  0.
        -11    1    5    5    0    0 -0.23257852497E+02  0.11761502717E+02  0.39529351951E+02  0.47347970544E+02  0.00000000000E+00 0.  1.
         12    1    5    5    0    0 -0.58152850517E+02 -0.67711357790E+02  0.43579769215E+03  0.44484402939E+03  0.00000000000E+00 0. -1.
         13    1    3    3    0    0  0.32057769494E+01  0.12090829530E+02 -0.20950985889E+01  0.12682846789E+02  0.00000000000E+00 0. -1.
        -14    1    3    3    0    0  0.62240680405E+02 -0.10839134500E+03 -0.15200109923E+03  0.19679156521E+03  0.00000000000E+00 0.  1.
          5    1    4    4  501    0  0.28379203932E+02  0.25418384708E+01  0.80744127308E+02  0.85725880884E+02  0.41800000000E+01 0. -1.
         -5    1    4    4    0  501 -0.12414958273E+02  0.14970853207E+03  0.87717243184E+02  0.17400736455E+03  0.41800000000E+01 0. -1.
</event>
<event>
11    1  0.6625361E-009  0.1879289E+03  0.7561462E-02  0.1063404E+00
         22   -1    0    0    0    0  0.00000000000E+00  0.00000000000E+00  0.30511422650E+03  0.30511422650E+03  0.00000000000E+00 0. -1.
         22   -1    0    0    0    0 -0.00000000000E+00 -0.00000000000E+00 -0.46261679733E+03  0.46261679733E+03  0.00000000000E+00 0.  1.
        -24    2    1    2    0    0 -0.13004991554E+03 -0.59393855748E+02 -0.34781613462E+03  0.38253284376E+03  0.70104938637E+02 0.  0.
         25    2    1    2    0    0  0.10974981158E+03  0.63128962515E+02  0.10690164382E+01  0.17799506548E+03  0.12510321135E+03 0.  0.
         24    2    1    2    0    0  0.20300103963E+02 -0.37351067680E+01  0.18924454736E+03  0.20720311458E+03  0.81814343139E+02 0.  0.
        -13    1    5    5    0    0 -0.98708704333E+01  0.13219889852E+02  0.18068605348E+01  0.16597117696E+02  0.00000000000E+00 0.  1.
         14    1    5    5    0    0  0.30170974397E+02 -0.16954996620E+02  0.18743768682E+03  0.19060599689E+03  0.00000000000E+00 0. -1.
         13    1    3    3    0    0 -0.14374328484E+02  0.61052250256E+01 -0.78037466195E+01  0.17458337644E+02  0.00000000000E+00 0. -1.
        -14    1    3    3    0    0 -0.11567558706E+03 -0.65499080773E+02 -0.34001238800E+03  0.36507450612E+03  0.00000000000E+00 0.  1.
          5    1    4    4  501    0  0.93324135279E+02  0.65383705537E+02  0.51225801672E+02  0.12500391327E+03  0.41800000000E+01 0. -1.
         -5    1    4    4    0  501  0.16425676303E+02 -0.22547430212E+01 -0.50156785234E+02  0.52991152215E+02  0.41800000000E+01 0. -1.
</event>
<event>
11    1  0.6625361E-009  0.1504827E+03  0.7561462E-02  0.1096387E+00
         22   -1    0    0    0    0  0.00000000000E+00  0.00000000000E+00  0.69650484550E+03  0.69650484550E+03  0.00000000000E+00 0. -1.
         22   -1    0    0    0    0 -0.00000000000E+00 -0.00000000000E+00 -0.69358698210E+03  0.69358698210E+03  0.00000000000E+00 0.  1.
        -24    2    1    2    0    0  0.16254725556E+02 -0.50035878587E+01 -0.66408802673E+03  0.66943887961E+03  0.82742095024E+02 0.  0.
         25    2    1    2    0    0  0.30323020834E+02  0.76162256918E+02  0.29352476557E+03  0.32942773527E+03  0.12508265184E+03 0.  0.
         24    2    1    2    0    0 -0.46577746390E+02 -0.71158669059E+02  0.37348112456E+03  0.39122521273E+03  0.79598831845E+02 0.  0.
        -13    1    5    5    0    0  0.17381417740E+01 -0.30494215944E+00  0.17500176583E+03  0.17501066302E+03  0.00000000000E+00 0.  1.
         14    1    5    5    0    0 -0.48315888164E+02 -0.70853726900E+02  0.19847935873E+03  0.21621454971E+03  0.00000000000E+00 0. -1.
         13    1    3    3    0    0  0.32287472497E+02  0.18797830823E+02 -0.15115902807E+03  0.15570771045E+03  0.00000000000E+00 0. -1.
        -14    1    3    3    0    0 -0.16032746941E+02 -0.23801418682E+02 -0.51292899866E+03  0.51373116916E+03  0.00000000000E+00 0.  1.
          5    1    4    4  501    0  0.17386592177E+02 -0.17088257539E+02  0.41303030343E+01  0.25076561495E+02  0.41800000000E+01 0.  1.
         -5    1    4    4    0  501  0.12936428657E+02  0.93250514457E+02  0.28939446254E+03  0.30435117378E+03  0.41800000000E+01 0.  1.
</event>
<event>
11    1  0.6625361E-009  0.2406675E+03  0.7561462E-02  0.1028992E+00
         22   -1    0    0    0    0  0.00000000000E+00  0.00000000000E+00  0.27307453614E+04  0.27307453614E+04  0.00000000000E+00 0. -1.
         22   -1    0    0    0    0 -0.00000000000E+00 -0.00000000000E+00 -0.14367304780E+03  0.14367304780E+03  0.00000000000E+00 0.  1.
        -24    2    1    2    0    0 -0.12449180884E+03  0.16110737992E+03  0.48020861759E+02  0.23146405207E+03  0.99074749059E+02 0.  0.
         25    2    1    2    0    0  0.16974883136E+03 -0.13132198709E+03  0.25197760042E+03  0.35383584327E+03  0.12508782045E+03 0.  0.
         24    2    1    2    0    0 -0.45257022519E+02 -0.29785392832E+02  0.22870738514E+04  0.22891185138E+04  0.80133644226E+02 0.  0.
        -11    1    5    5    0    0  0.45851527936E+01 -0.36502619362E+02  0.50641044509E+03  0.50774501843E+03  0.00000000000E+00 0.  1.
         12    1    5    5    0    0 -0.49842175312E+02  0.67172265305E+01  0.17806634063E+04  0.17813734954E+04  0.00000000000E+00 0. -1.
         11    1    3    3    0    0 -0.78385727025E+01  0.10307823356E+02  0.38448962457E+02  0.40571137011E+02  0.00000000000E+00 0. -1.
        -12    1    3    3    0    0 -0.11665323614E+03  0.15079955656E+03  0.95718993026E+01  0.19089291506E+03  0.00000000000E+00 0.  1.
          5    1    4    4  501    0  0.11033741909E+03 -0.11658035571E+03  0.24381558151E+03  0.29193978073E+03  0.41800000000E+01 0. -1.
         -5    1    4    4    0  501  0.59411412277E+02 -0.14741631382E+02  0.81620189120E+01  0.61896062535E+02  0.41800000000E+01 0. -1.
</event>
<event>
11    1  0.6625361E-009  0.1446595E+03  0.7561462E-02  0.1102464E+00
         22   -1    0    0    0    0  0.00000000000E+00  0.00000000000E+00  0.11135169465E+04  0.11135169465E+04  0.00000000000E+00 0.  1.
         22   -1    0    0    0    0 -0.00000000000E+00 -0.00000000000E+00 -0.12868951127E+03  0.12868951127E+03  0.00000000000E+00 0. -1.
         24    2    1    2    0    0  0.34256598750E+01  0.68525893531E+02 -0.66800611327E+02  0.12816230082E+03  0.85180516831E+02 0.  0.
         25    2    1    2    0    0  0.28420321559E+02 -0.10497770422E+03  0.21118171127E+03  0.26846333639E+03  0.12508722856E+03 0.  0.
        -24    2    1    2    0    0 -0.31845981434E+02  0.36451810691E+02  0.84044633529E+03  0.84558082056E+03  0.79460559779E+02 0.  0.
        -13    1    3    3    0    0 -0.11521731886E+02  0.22046200828E+02  0.17728143343E+02  0.30546232877E+02  0.00000000000E+00 0.  1.
         14    1    3    3    0    0  0.14947391761E+02  0.46479692703E+02 -0.84528754670E+02  0.97616067941E+02  0.00000000000E+00 0. -1.
         13    1    5    5    0    0 -0.71230158023E+01  0.20184767538E+02  0.47701833550E+02  0.52284100056E+02  0.00000000000E+00 0. -1.
        -14    1    5    5    0    0 -0.24722965631E+02  0.16267043152E+02  0.79274450174E+03  0.79329672051E+03  0.00000000000E+00 0.  1.
          5    1    4    4  501    0  0.10588870256E+02 -0.11549793257E+03  0.21740586085E+03  0.24644406533E+03  0.41800000000E+01 0.  1.
         -5    1    4    4    0  501  0.17831451303E+02  0.10520228348E+02 -0.62241495829E+01  0.22019271062E+02  0.41800000000E+01 0.  1.
</event>
<event>
11    1  0.6625361E-009  0.2099289E+03  0.7561462E-02  0.1047716E+00
         22   -1    0    0    0    0  0.00000000000E+00  0.00000000000E+00  0.52579512820E+03  0.52579512820E+03  0.00000000000E+00 0. -1.
         22   -1    0    0    0    0 -0.00000000000E+00 -0.00000000000E+00 -0.69651274895E+03  0.69651274895E+03  0.00000000000E+00 0.  1.
        -24    2    1    2    0    0  0.97427301184E+02 -0.44122469927E+02 -0.40300800908E+03  0.42695797862E+03  0.91862880213E+02 0.  0.
         25    2    1    2    0    0 -0.75595865831E+02  0.20901063656E+03 -0.20046859807E+03  0.32441096606E+03  0.12511848369E+03 0.  0.
         24    2    1    2    0    0 -0.21831435354E+02 -0.16488816663E+03  0.43275898639E+03  0.47093893248E+03  0.82694732318E+02 0.  0.
        -13    1    5    5    0    0  0.22269420761E+02 -0.41334907976E+02  0.62818460453E+02  0.78426148012E+02  0.00000000000E+00 0.  1.
         14    1    5    5    0    0 -0.44100856115E+02 -0.12355325866E+03  0.36994052594E+03  0.39251278447E+03  0.00000000000E+00 0. -1.
         13    1    3    3    0    0  0.10235383782E+03 -0.15378410565E+02 -0.24008181082E+03  0.26144230628E+03  0.00000000000E+00 0. -1.
        -14    1    3    3    0    0 -0.49265366345E+01 -0.28744059362E+02 -0.16292619826E+03  0.16551567234E+03  0.00000000000E+00 0.  1.
          5    1    4    4  501    0 -0.13419669556E+02  0.10041388764E+03 -0.17788055715E+02  0.10294136044E+03  0.41800000000E+01 0.  1.
         -5    1    4    4    0  501 -0.62176196274E+02  0.10859674892E+03 -0.18268054235E+03  0.22146960562E+03  0.41800000000E+01 0.  1.
</event>
<event>
11    1  0.6625361E-009  0.1400060E+03  0.7561462E-02  0.1107552E+00
         22   -1    0    0    0    0  0.00000000000E+00  0.00000000000E+00  0.58765399377E+02  0.58765399377E+02  0.00000000000E+00 0.  1.
         22   -1    0    0    0    0 -0.00000000000E+00 -0.00000000000E+00 -0.88485473333E+03  0.88485473333E+03  0.00000000000E+00 0.  1.
        -24    2    1    2    0    0  0.22452669826E+02  0.37209155340E+02 -0.54972353953E+03  0.55724599550E+03  0.80240176727E+02 0.  0.
         25    2    1    2    0    0 -0.44355120438E+02  0.28055260780E+02 -0.23782180955E+03  0.27379050321E+03  0.12509017620E+03 0.  0.
         24    2    1    2    0    0  0.21902450612E+02 -0.65264416120E+02 -0.38543984866E+02  0.11258363400E+03  0.80313601093E+02 0.  0.
        -11    1    5    5    0    0  0.47485990246E+02 -0.16893946797E+02 -0.12221615931E+02  0.51862246423E+02  0.00000000000E+00 0.  1.
         12    1    5    5    0    0 -0.25583539634E+02 -0.48370469323E+02 -0.26322368935E+02  0.60721387576E+02  0.00000000000E+00 0. -1.
         11    1    3    3    0    0 -0.20860344454E+02  0.40653650886E+02 -0.34101592773E+03  0.34406356429E+03  0.00000000000E+00 0. -1.
        -12    1    3    3    0    0  0.43313014280E+02 -0.34444955458E+01 -0.20870761180E+03  0.21318243121E+03  0.00000000000E+00 0.  1.
          5    1    4    4  501    0  0.25915040895E+02  0.53779584397E+02 -0.90437476222E+02  0.10844465200E+03  0.41800000000E+01 0.  1.
         -5    1    4    4    0  501 -0.70270161334E+02 -0.25724323617E+02 -0.14738433333E+03  0.16534585120E+03  0.41800000000E+01 0.  1.
</event>
<event>
11    1  0.6625361E-009  0.1737240E+03  0.7561462E-02  0.1074836E+00
         22   -1    0    0    0    0  0.00000000000E+00  0.00000000000E+00  0.30695572658E+04  0.30695572658E+04  0.00000000000E+00 0.  1.
         22   -1    0    0    0    0 -0.00000000000E+00 -0.00000000000E+00 -0.69069210151E+03  0.69069210151E+03  0.00000000000E+00 0. -1.
        -24    2    1    2    0    0  0.12467748477E+03  0.24989481915E+02 -0.58001975704E+03  0.59909527995E+03  0.79519095099E+02 0.  0.
         25    2    1    2    0    0 -0.85421620142E+02  0.24631184412E+02 -0.41507290517E+02  0.15897579830E+03  0.12508757271E+03 0.  0.
         24    2    1    2    0    0 -0.39255864630E+02 -0.49620666327E+02  0.30003922119E+04  0.30021782891E+04  0.81962313671E+02 0.  0.
        -13    1    5    5    0    0 -0.48406692038E+01 -0.50746718641E+02  0.25355807067E+04  0.25360930940E+04  0.00000000000E+00 0.  1.
         14    1    5    5    0    0 -0.34415195426E+02  0.11260523136E+01  0.46481150520E+03  0.46608519505E+03  0.00000000000E+00 0. -1.
         13    1    3    3    0    0  0.11647824136E+03  0.32075912283E+02 -0.57424344162E+03  0.58681477069E+03  0.00000000000E+00 0. -1.
        -14    1    3    3    0    0  0.81992434079E+01 -0.70864303681E+01 -0.57763154253E+01  0.12280509261E+02  0.00000000000E+00 0.  1.
          5    1    4    4  501    0 -0.25364137073E+02  0.42498421946E+02  0.34431001984E+02  0.60435267973E+02  0.41800000000E+01 0. -1.
         -5    1    4    4    0  501 -0.60057483069E+02 -0.17867237534E+02 -0.75938292501E+02  0.98540530330E+02  0.41800000000E+01 0. -1.
</event>
<event>
11    1  0.6625361E-009  0.1317397E+03  0.7561462E-02  0.1117150E+00
         22   -1    0    0    0    0  0.00000000000E+00  0.00000000000E+00  0.41425753139E+03  0.41425753139E+03  0.00000000000E+00 0.  1.
         22   -1    0    0    0    0 -0.00000000000E+00 -0.00000000000E+00 -0.16628344985E+03  0.16628344985E+03  0.00000000000E+00 0. -1.
         24    2    1    2    0    0  0.32949128822E+02 -0.19871178819E+02 -0.97587842808E+02  0.13146924454E+03  0.79248131576E+02 0.  0.
         25    2    1    2    0    0 -0.43730604576E+02  0.41240134977E+02  0.59756265182E+02  0.15110211221E+03  0.12509165670E+03 0.  0.
        -24    2    1    2    0    0  0.10781475754E+02 -0.21368956158E+02  0.28580565917E+03  0.29796962449E+03  0.80796966525E+02 0.  0.
        -13    1    3    3    0    0 -0.18189566035E+02  0.25678714811E+01  0.74507130735E+00  0.18385032165E+02  0.00000000000E+00 0.  1.
         14    1    3    3    0    0  0.51138694856E+02 -0.22439050301E+02 -0.98332914116E+02  0.11308421238E+03  0.00000000000E+00 0. -1.
         11    1    5    5    0    0  0.48622393340E+01 -0.27472668404E+02  0.26353948772E+02  0.38378633332E+02  0.00000000000E+00 0. -1.
        -12    1    5    5    0    0  0.59192364201E+01  0.61037122459E+01  0.25945171039E+03  0.25959099116E+03  0.00000000000E+00 0.  1.
          5    1    4    4  501    0 -0.68144757003E+02  0.72043552735E+02  0.43167525511E+02  0.10823534107E+03  0.41800000000E+01 0. -1.
         -5    1    4    4    0  501  0.24414152427E+02 -0.30803417758E+02  0.16588739670E+02  0.42866771142E+02  0.41800000000E+01 0. -1.
</event>
<event>
11    1  0.6625361E-009  0.2251896E+03  0.7561462E-02  0.1038014E+00
         22   -1    0    0    0    0  0.00000000000E+00  0.00000000000E+00  0.20399150894E+03  0.20399150894E+03  0.00000000000E+00 0.  1.
         22   -1    0    0    0    0 -0.00000000000E+00 -0.00000000000E+00 -0.18273355138E+04  0.18273355138E+04  0.00000000000E+00 0. -1.
         24    2    1    2    0    0 -0.66526823575E+02  0.17433219437E+03 -0.16769973489E+04  0.16893258873E+04  0.81757649126E+02 0.  0.
         25    2    1    2    0    0  0.29482072091E+02 -0.20359825218E+03  0.16435262308E+02  0.24132748769E+03  0.12508955832E+03 0.  0.
        -24    2    1    2    0    0  0.37044751484E+02  0.29266057812E+02  0.37218081723E+02  0.10067364771E+03  0.80753835725E+02 0.  0.
        -13    1    3    3    0    0 -0.22087971022E+02 -0.11087987753E+01 -0.14530808792E+03  0.14698145568E+03  0.00000000000E+00 0.  1.
         14    1    3    3    0    0 -0.44438852553E+02  0.17544099314E+03 -0.15316892609E+04  0.15423444316E+04  0.00000000000E+00 0. -1.
         11    1    5    5    0    0  0.21195435996E+02  0.14201577442E+02 -0.24392572924E+02  0.35297718379E+02  0.00000000000E+00 0. -1.
        -12    1    5    5    0    0  0.15849315488E+02  0.15064480370E+02  0.61610654646E+02  0.65375929333E+02  0.00000000000E+00 0.  1.
          5    1    4    4  501    0  0.78555128159E+02 -0.12053832617E+03  0.42705881340E+01  0.14400037000E+03  0.41800000000E+01 0.  1.
         -5    1    4    4    0  501 -0.49073056068E+02 -0.83059926012E+02  0.12164674174E+02  0.97327117695E+02  0.41800000000E+01 0.  1.
</event>
<event>
11    1  0.6625361E-009  0.2197026E+03  0.7561462E-02  0.1041404E+00
         22   -1    0    0    0    0  0.00000000000E+00  0.00000000000E+00  0.16927255189E+03  0.16927255189E+03  0.00000000000E+00 0. -1.
         22   -1    0    0    0    0 -0.00000000000E+00 -0.00000000000E+00 -0.85098678505E+03  0.85098678505E+03  0.00000000000E+00 0.  1.
         24    2    1    2    0    0  0.14756908050E+03 -0.12956161574E+03 -0.30737609416E+03  0.37344390498E+03  0.80108932768E+02 0.  0.
         25    2    1    2    0    0 -0.11945572514E+03  0.12104096956E+03 -0.47204925814E+03  0.51710560505E+03  0.12508844105E+03 0.  0.
        -24    2    1    2    0    0 -0.28113355359E+02  0.85206461854E+01  0.97711119132E+02  0.12970982691E+03  0.80088789693E+02 0.  0.
        -13    1    3    3    0    0  0.15572008149E+03 -0.11502908612E+03 -0.29427729735E+03  0.35224928981E+03  0.00000000000E+00 0.  1.
         14    1    3    3    0    0 -0.81510009924E+01 -0.14532529618E+02 -0.13098796813E+02  0.21194615170E+02  0.00000000000E+00 0. -1.
         11    1    5    5    0    0 -0.15457867933E+02  0.30446471559E+01  0.11007043629E+03  0.11119225019E+03  0.00000000000E+00 0. -1.
        -12    1    5    5    0    0 -0.12655487426E+02  0.54759990295E+01 -0.12359317153E+02  0.18517576727E+02  0.00000000000E+00 0.  1.
          5    1    4    4  501    0 -0.41958602088E+02  0.11731776164E+03 -0.21455363537E+03  0.24814253230E+03  0.41800000000E+01 0. -1.
         -5    1    4    4    0  501 -0.77497123056E+02  0.37232079187E+01 -0.25749562277E+03  0.26896307275E+03  0.41800000000E+01 0. -1.
</event>
<event>
11    1  0.6625361E-009  0.1925452E+03  0.7561462E-02  0.1059924E+00
         22   -1    0    0    0    0  0.00000000000E+00  0.00000000000E+00  0.12572893272E+04  0.12572893272E+04  0.00000000000E+00 0.  1.
         22   -1    0    0    0    0 -0.00000000000E+00 -0.00000000000E+00 -0.80901069935E+03  0.80901069935E+03  0.00000000000E+00 0. -1.
         24    2    1    2    0    0  0.13109101821E+03  0.69561616925E+02 -0.72405194045E+03  0.74353420463E+03  0.81044601204E+02 0.  0.
         25    2    1    2    0    0 -0.14043284127E+03  0.10071157758E+02  0.49846931427E+02  0.19483063386E+03  0.12510574804E+03 0.  0.
        -24    2    1    2    0    0  0.93418230651E+01 -0.79632774683E+02  0.11224836369E+04  0.11279351880E+04  0.76417438525E+02 0.  0.
        -13    1    3    3    0    0  0.46026414018E+02  0.95754325268E+01 -0.95748333550E+02  0.10666706649E+03  0.00000000000E+00 0.  1.
         14    1    3    3    0    0  0.85064604189E+02  0.59986184398E+02 -0.62830360690E+03  0.63686713815E+03  0.00000000000E+00 0. -1.
         11    1    5    5    0    0  0.13119101943E+02 -0.38174516362E+00  0.32250026481E+02  0.34818397051E+02  0.00000000000E+00 0. -1.
        -12    1    5    5    0    0 -0.37772788779E+01 -0.79251029520E+02  0.10902336104E+04  0.10931167910E+04  0.00000000000E+00 0.  1.
          5    1    4    4  501    0 -0.14150790211E+03 -0.31225333862E+02  0.49867154523E+02  0.15330920825E+03  0.41800000000E+01 0. -1.
         -5    1    4    4    0  501  0.10750608365E+01  0.41296491620E+02 -0.20223096230E-01  0.41521425612E+02  0.41800000000E+01 0. -1.
</event>
<event>
11    1  0.6625361E-009  0.1406487E+03  0.7561462E-02  0.1106836E+00
         22   -1    0    0    0    0  0.00000000000E+00  0.00000000000E+00  0.98277456029E+03  0.98277456029E+03  0.00000000000E+00 0. -1.
         22   -1    0    0    0    0 -0.00000000000E+00 -0.00000000000E+00 -0.15709978679E+04  0.15709978679E+04  0.00000000000E+00 0. -1.
         24    2    1    2    0    0  0.60488631564E+02 -0.51495418461E+01 -0.15111343312E+04  0.15145370256E+04  0.81302169303E+02 0.  0.
         25    2    1    2    0    0 -0.10624108718E+03  0.46114749137E+02  0.77983912895E+02  0.18746348644E+03  0.12508928565E+03 0.  0.
        -24    2    1    2    0    0  0.45752455620E+02 -0.40965207291E+02  0.84492711070E+03  0.85177191610E+03  0.88555853905E+02 0.  0.
        -13    1    3    3    0    0  0.49605926225E+02  0.31107320619E+02 -0.67084442308E+03  0.67339487175E+03  0.00000000000E+00 0.  1.
         14    1    3    3    0    0  0.10882705339E+02 -0.36256862465E+02 -0.84028990811E+03  0.84114215387E+03  0.00000000000E+00 0. -1.
         11    1    5    5    0    0 -0.51206692789E+01 -0.40775658232E+02  0.61082196640E+03  0.61220286686E+03  0.00000000000E+00 0. -1.
        -12    1    5    5    0    0  0.50873124899E+02 -0.18954905876E+00  0.23410514431E+03  0.23956904925E+03  0.00000000000E+00 0.  1.
          5    1    4    4  501    0 -0.16682984935E+02  0.49953724614E+02 -0.18237363949E+02  0.55890700773E+02  0.41800000000E+01 0. -1.
         -5    1    4    4    0  501 -0.89558102249E+02 -0.38389754769E+01  0.96221276844E+02  0.13157278567E+03  0.41800000000E+01 0. -1.
</event>
<event>
11    1  0.6625361E-009  0.1512732E+03  0.7561462E-02  0.1095585E+00
         22   -1    0    0    0    0  0.00000000000E+00  0.00000000000E+00  0.36882663218E+03  0.36882663218E+03  0.00000000000E+00 0.  1.
         22   -1    0    0    0    0 -0.00000000000E+00 -0.00000000000E+00 -0.93610711052E+03  0.93610711052E+03  0.00000000000E+00 0.  1.
         24    2    1    2    0    0 -0.27162259135E+02  0.80043801510E+02 -0.84547688113E+03  0.85348952404E+03  0.80426442447E+02 0.  0.
         25    2    1    2    0    0  0.43929424069E+02 -0.85892846742E+02 -0.31891465235E+01  0.15800206549E+03  0.12508839524E+03 0.  0.
        -24    2    1    2    0    0 -0.16767164934E+02  0.58490452324E+01  0.28138554932E+03  0.29344215317E+03  0.81333392529E+02 0.  0.
        -11    1    3    3    0    0 -0.41270298694E+02  0.90261710398E+02 -0.71591782830E+03  0.72276465796E+03  0.00000000000E+00 0.  1.
         12    1    3    3    0    0  0.14108039559E+02 -0.10217908888E+02 -0.12955905283E+03  0.13072486608E+03  0.00000000000E+00 0. -1.
         11    1    5    5    0    0 -0.16411590379E+02 -0.10887403338E+02  0.11038035412E+02  0.22576848229E+02  0.00000000000E+00 0. -1.
        -12    1    5    5    0    0 -0.35557455482E+00  0.16736448570E+02  0.27034751391E+03  0.27086530494E+03  0.00000000000E+00 0.  1.
          5    1    4    4  501    0 -0.79436790896E+01  0.29789755302E+02 -0.48725567915E-02  0.31112762368E+02  0.41800000000E+01 0. -1.
         -5    1    4    4    0  501  0.51873103159E+02 -0.11568260204E+03 -0.31842739667E+01  0.12688930313E+03  0.41800000000E+01 0. -1.
</event>
<event>
11    1  0.6625361E-009  0.1311509E+03  0.7561462E-02  0.1117863E+00
         22   -1    0    0    0    0  0.00000000000E+00  0.00000000000E+00  0.82163816580E+02  0.82163816580E+02  0.00000000000E+00 0. -1.
         22   -1    0    0    0    0 -0.00000000000E+00 -0.00000000000E+00 -0.13743254887E+04  0.13743254887E+04  0.00000000000E+00 0.  1.
        -24    2    1    2    0    0 -0.78795025696E-01  0.33871741455E+02 -0.91918212146E+03  0.92324701820E+03  0.79636568966E+02 0.  0.
         25    2    1    2    0    0 -0.36069273177E+02 -0.47426658008E+02 -0.41184491774E+03  0.43452431624E+03  0.12507943388E+03 0.  0.
         24    2    1    2    0    0  0.36148068202E+02  0.13554916553E+02  0.38865367107E+02  0.98717970815E+02  0.82123701840E+02 0.  0.
        -13    1    5    5    0    0  0.11164693108E+02 -0.25701347353E+02 -0.11372313512E+02  0.30241348227E+02  0.00000000000E+00 0.  1.
         14    1    5    5    0    0  0.24983375094E+02  0.39256263907E+02  0.50237680620E+02  0.68476622588E+02  0.00000000000E+00 0. -1.
         13    1    3    3    0    0 -0.27591615779E+02 -0.52430775021E+00 -0.13304450896E+03  0.13587646420E+03  0.00000000000E+00 0. -1.
        -14    1    3    3    0    0  0.27512820753E+02  0.34396049205E+02 -0.78613761251E+03  0.78737055400E+03  0.00000000000E+00 0.  1.
          5    1    4    4  501    0  0.19580481568E+02  0.23475589532E+02 -0.33393942439E+02  0.45465661261E+02  0.41800000000E+01 0. -1.
         -5    1    4    4    0  501 -0.55649754744E+02 -0.70902247540E+02 -0.37845097530E+03  0.38905865498E+03  0.41800000000E+01 0. -1.
</event>
<event>
11    1  0.6625361E-009  0.1550634E+03  0.7561462E-02  0.1091814E+00
         22   -1    0    0    0    0  0.00000000000E+00  0.00000000000E+00  0.17329469283E+03  0.17329469283E+03  0.00000000000E+00 0. -1.
         22   -1    0    0    0    0 -0.00000000000E+00 -0.00000000000E+00 -0.27250300844E+04  0.27250300844E+04  0.00000000000E+00 0.  1.
         24    2    1    2    0    0 -0.52547619684E+02 -0.70808682707E+02 -0.23205887081E+04  0.23236547099E+04  0.80399857355E+02 0.  0.
         25    2    1    2    0    0  0.12686035136E+03  0.93531544865E+02 -0.35678232908E+03  0.40961174775E+03  0.12508579022E+03 0.  0.
        -24    2    1    2    0    0 -0.74312731676E+02 -0.22722862157E+02  0.12563564556E+03  0.16505831958E+03  0.73628954050E+02 0.  0.
        -11    1    3    3    0    0 -0.27368178052E+02 -0.26090816439E+02 -0.18297101237E+04  0.18301007854E+04  0.00000000000E+00 0.  1.
         12    1    3    3    0    0 -0.25179441632E+02 -0.44717866268E+02 -0.49087858442E+03  0.49355392460E+03  0.00000000000E+00 0. -1.
         11    1    5    5    0    0 -0.60131028619E+02 -0.20886202081E+01  0.12642068915E+03  0.14000819113E+03  0.00000000000E+00 0. -1.
        -12    1    5    5    0    0 -0.14181703056E+02 -0.20634241949E+02 -0.78504358713E+00  0.25050128459E+02  0.00000000000E+00 0.  1.
          5    1    4    4  501    0  0.30533108096E+02  0.85320925816E+02 -0.24772627236E+03  0.26381377805E+03  0.41800000000E+01 0.  1.
         -5    1    4    4    0  501  0.96327243263E+02  0.82106190485E+01 -0.10905605673E+03  0.14579796970E+03  0.41800000000E+01 0.  1.
</event>
<event>
11    1  0.6625361E-009  0.1312560E+03  0.7561462E-02  0.1117735E+00
         22   -1    0    0    0    0  0.00000000000E+00  0.00000000000E+00  0.21610723419E+04  0.21610723419E+04  0.00000000000E+00 0.  1.
         22   -1    0    0    0    0 -0.00000000000E+00 -0.00000000000E+00 -0.29095896526E+03  0.29095896526E+03  0.00000000000E+00 0. -1.
         24    2    1    2    0    0  0.40788509568E+02 -0.16655746890E+02 -0.20000429464E+03  0.21923824701E+03  0.78246882746E+02 0.  0.
         25    2    1    2    0    0 -0.97737284417E+01  0.20737802330E+02 -0.30249016442E+02  0.13071732968E+03  0.12508571090E+03 0.  0.
        -24    2    1    2    0    0 -0.31014781127E+02 -0.40820554397E+01  0.21003666877E+04  0.21020757304E+04  0.78762769990E+02 0.  0.
        -11    1    3    3    0    0  0.11961498643E+02 -0.28776275859E+02 -0.21130885935E+02  0.37651903570E+02  0.00000000000E+00 0.  1.
         12    1    3    3    0    0  0.28827010925E+02  0.12120528969E+02 -0.17887340870E+03  0.18158634344E+03  0.00000000000E+00 0. -1.
         11    1    5    5    0    0 -0.41701769541E+01 -0.18741964262E+02  0.12445805499E+03  0.12593037383E+03  0.00000000000E+00 0. -1.
        -12    1    5    5    0    0 -0.26844604172E+02  0.14659908823E+02  0.19759086327E+04  0.19761453566E+04  0.00000000000E+00 0.  1.
          5    1    4    4  501    0  0.57324592452E+02  0.15024483279E+02 -0.97616874770E+01  0.60204708620E+02  0.41800000000E+01 0. -1.
         -5    1    4    4    0  501 -0.67098320894E+02  0.57133190504E+01 -0.20487328965E+02  0.70512621065E+02  0.41800000000E+01 0. -1.
</event>
<event>
11    1  0.6625361E-009  0.1643325E+03  0.7561462E-02  0.1083072E+00
         22   -1    0    0    0    0  0.00000000000E+00  0.00000000000E+00  0.58067588080E+03  0.58067588080E+03  0.00000000000E+00 0. -1.
         22   -1    0    0    0    0 -0.00000000000E+00 -0.00000000000E+00 -0.51738958040E+03  0.51738958040E+03  0.00000000000E+00 0.  1.
         24    2    1    2    0    0  0.48016016974E+01 -0.12227595901E+02 -0.46431887607E+03  0.47181298361E+03  0.82721843242E+02 0.  0.
         25    2    1    2    0    0 -0.10449297661E+03  0.43963339039E+02  0.15039195059E+03  0.22608916199E+03  0.12508802112E+03 0.  0.
        -24    2    1    2    0    0  0.99691374917E+02 -0.31735743138E+02  0.37721322587E+03  0.40016331559E+03  0.83038146334E+02 0.  0.
        -13    1    3    3    0    0  0.24980291812E+01 -0.33171001711E+02 -0.43170802624E+03  0.43298773126E+03  0.00000000000E+00 0.  1.
         14    1    3    3    0    0  0.23035725162E+01  0.20943405810E+02 -0.32610849827E+02  0.38825252345E+02  0.00000000000E+00 0. -1.
         11    1    5    5    0    0  0.71384111339E+02 -0.51837094522E+02  0.32981543954E+03  0.34141031016E+03  0.00000000000E+00 0. -1.
        -12    1    5    5    0    0  0.28307263578E+02  0.20101351384E+02  0.47397786332E+02  0.58753005437E+02  0.00000000000E+00 0.  1.
          5    1    4    4  501    0 -0.12130809720E+03  0.27881519470E+02  0.15806622720E+03  0.20123478366E+03  0.41800000000E+01 0. -1.
         -5    1    4    4    0  501  0.16815120582E+02  0.16081819569E+02 -0.76742766105E+01  0.24854378333E+02  0.41800000000E+01 0. -1.
</event>
<event>
11    1  0.6625361E-009  0.1484614E+03  0.7561462E-02  0.1098461E+00
         22   -1    0    0    0    0  0.00000000000E+00  0.00000000000E+00  0.66578802798E+03  0.66578802798E+03  0.00000000000E+00 0. -1.
         22   -1    0    0    0    0 -0.00000000000E+00 -0.00000000000E+00 -0.35225439950E+03  0.35225439950E+03  0.00000000000E+00 0. -1.
         24    2    1    2    0    0  0.71448902722E+02  0.27188443088E+02 -0.27470384407E+03  0.29624142695E+03  0.80328226395E+02 0.  0.
         25    2    1    2    0    0 -0.10096052753E+03 -0.72126572336E+02  0.61977505010E+02  0.18677258339E+03  0.12509003247E+03 0.  0.
        -24    2    1    2    0    0  0.29511624808E+02  0.44938129248E+02  0.52625996754E+03  0.53502841714E+03  0.80096705613E+02 0.  0.
        -13    1    3    3    0    0  0.11911145269E+02  0.49771966053E+01  0.13392697437E+01  0.12978501882E+02  0.00000000000E+00 0.  1.
         14    1    3    3    0    0  0.59537757453E+02  0.22211246482E+02 -0.27604311382E+03  0.28326292507E+03  0.00000000000E+00 0. -1.
         13    1    5    5    0    0 -0.74847358241E+01  0.37692337203E+02  0.42899947840E+03  0.43071717637E+03  0.00000000000E+00 0. -1.
        -14    1    5    5    0    0  0.36996360632E+02  0.72457920454E+01  0.97260489149E+02  0.10431124077E+03  0.00000000000E+00 0.  1.
          5    1    4    4  501    0 -0.12441061677E+03 -0.33705745262E+02  0.33143777276E+02  0.13315427594E+03  0.41800000000E+01 0.  1.
         -5    1    4    4    0  501  0.23450089244E+02 -0.38420827074E+02  0.28833727733E+02  0.53618307448E+02  0.41800000000E+01 0.  1.
</event>
<event>
11    1  0.6625361E-009  0.1431574E+03  0.7561462E-02  0.1104083E+00
         22   -1    0    0    0    0  0.00000000000E+00  0.00000000000E+00  0.13734334977E+04  0.13734334977E+04  0.00000000000E+00 0.  1.
         22   -1    0    0    0    0 -0.00000000000E+00 -0.00000000000E+00 -0.63643620369E+03  0.63643620369E+03  0.00000000000E+00 0.  1.
         24    2    1    2    0    0 -0.14735578575E+02  0.67820209390E+01 -0.54339189647E+03  0.54958021066E+03  0.80625812952E+02 0.  0.
         25    2    1    2    0    0 -0.20062141271E+02  0.53894505484E+02 -0.33754023305E+02  0.14174966252E+03  0.12508607238E+03 0.  0.
        -24    2    1    2    0    0  0.34797719846E+02 -0.60676526423E+02  0.13141432138E+04  0.13185398282E+04  0.81745764933E+02 0.  0.
        -11    1    3    3    0    0  0.19441869499E+02 -0.40209700240E+01 -0.43423934050E+03  0.43469294833E+03  0.00000000000E+00 0.  1.
         12    1    3    3    0    0 -0.34177448074E+02  0.10802990963E+02 -0.10915255597E+03  0.11488726233E+03  0.00000000000E+00 0. -1.
         13    1    5    5    0    0  0.83196097325E+01 -0.70691671457E+02  0.66903675376E+03  0.67281253422E+03  0.00000000000E+00 0. -1.
        -14    1    5    5    0    0  0.26478110114E+02  0.10015145034E+02  0.64510646001E+03  0.64572729398E+03  0.00000000000E+00 0.  1.
          5    1    4    4  501    0  0.18955818600E+02 -0.23456521748E+02 -0.44953725177E+02  0.54294026178E+02  0.41800000000E+01 0.  1.
         -5    1    4    4    0  501 -0.39017959871E+02  0.77351027232E+02  0.11199701873E+02  0.87455636344E+02  0.41800000000E+01 0.  1.
</event>
<event>
11    1  0.6625361E-009  0.2073577E+03  0.7561462E-02  0.1049439E+00
         22   -1    0    0    0    0  0.00000000000E+00  0.00000000000E+00  0.55225772833E+03  0.55225772833E+03  0.00000000000E+00 0.  1.
         22   -1    0    0    0    0 -0.00000000000E+00 -0.00000000000E+00 -0.10729668092E+04  0.10729668092E+04  0.00000000000E+00 0. -1.
        -24    2    1    2    0    0 -0.27087216942E+02 -0.15936047419E+02 -0.10005262855E+04  0.10042680150E+04  0.80707639796E+02 0.  0.
         25    2    1    2    0    0  0.17590072217E+03  0.37430512696E+02  0.31428547204E+03  0.38309999425E+03  0.12509252703E+03 0.  0.
         24    2    1    2    0    0 -0.14881350523E+03 -0.21494465277E+02  0.16553173251E+03  0.23785652832E+03  0.81040127219E+02 0.  0.
        -11    1    5    5    0    0 -0.14732111352E+03 -0.14807758874E+02  0.17300792514E+03  0.22771588081E+03  0.00000000000E+00 0.  1.
         12    1    5    5    0    0 -0.14923917061E+01 -0.66867064026E+01 -0.74761926331E+01  0.10140647504E+02  0.00000000000E+00 0. -1.
         13    1    3    3    0    0  0.14674053052E+02  0.15350371258E+02 -0.59756749889E+03  0.59794471104E+03  0.00000000000E+00 0. -1.
        -14    1    3    3    0    0 -0.41761269994E+02 -0.31286418677E+02 -0.40295878658E+03  0.40632330397E+03  0.00000000000E+00 0.  1.
          5    1    4    4  501    0  0.21221400863E+02 -0.12867158916E+01 -0.83248918365E+01  0.23211628906E+02  0.41800000000E+01 0. -1.
         -5    1    4    4    0  501  0.15467932131E+03  0.38717228588E+02  0.32261036388E+03  0.35988836535E+03  0.41800000000E+01 0. -1.
</event>
<event>
11    1  0.6625361E-009  0.1727316E+03  0.7561462E-02  0.1075679E+00
         22   -1    0    0    0    0  0.00000000000E+00  0.00000000000E+00  0.40703592367E+03  0.40703592367E+03  0.00000000000E+00 0. -1.
         22   -1    0    0    0    0 -0.00000000000E+00 -0.00000000000E+00 -0.82023937649E+03  0.82023937649E+03  0.00000000000E+00 0.  1.
         24    2    1    2    0    0 -0.56821358548E+02 -0.58467043110E+02 -0.74106489343E+03  0.74976011954E+03  0.79473257538E+02 0.  0.
         25    2    1    2    0    0  0.15961823328E+03  0.41267862414E+02  0.14740763994E+03  0.25408173798E+03  0.12508996921E+03 0.  0.
        -24    2    1    2    0    0 -0.10279687474E+03  0.17199180695E+02  0.18045380067E+03  0.22343344264E+03  0.80597269464E+02 0.  0.
        -13    1    3    3    0    0 -0.75753086234E+02 -0.56078676889E+02 -0.58710956374E+03  0.59462676354E+03  0.00000000000E+00 0.  1.
         14    1    3    3    0    0  0.18931727686E+02 -0.23883662201E+01 -0.15395532968E+03  0.15513335600E+03  0.00000000000E+00 0. -1.
         11    1    5    5    0    0 -0.62726547809E+02 -0.15852407914E+02  0.14966675994E+03  0.16305231574E+03  0.00000000000E+00 0. -1.
        -12    1    5    5    0    0 -0.40070326927E+02  0.33051588609E+02  0.30787040722E+02  0.60381126902E+02  0.00000000000E+00 0.  1.
          5    1    4    4  501    0  0.90947872489E+02  0.17867500533E+02  0.15538480739E+03  0.18097699813E+03  0.41800000000E+01 0. -1.
         -5    1    4    4    0  501  0.68670360796E+02  0.23400361882E+02 -0.79771674483E+01  0.73104739850E+02  0.41800000000E+01 0. -1.
</event>
<event>
11    1  0.9977829E-009  0.2103096E+03  0.7561462E-02  0.1047463E+00
         22   -1    0    0    0    0  0.00000000000E+00  0.00000000000E+00  0.14052411441E+04  0.14052411441E+04  0.00000000000E+00 0.  1.
         22   -1    0    0    0    0 -0.00000000000E+00 -0.00000000000E+00 -0.48512796671E+03  0.48512796671E+03  0.00000000000E+00 0.  1.
        -24    2    1    2    0    0  0.43576258275E+01  0.88911474639E+02 -0.30803604879E+03  0.32981415068E+03  0.77245889237E+02 0.  0.
         25    2    1    2    0    0 -0.65335528652E+00 -0.25436541112E+03 -0.33613035910E+02  0.28544845688E+03  0.12509514822E+03 0.  0.
         24    2    1    2    0    0 -0.37042705410E+01  0.16545393648E+03  0.12617622621E+04  0.12751065032E+04  0.80398145871E+02 0.  0.
        -11    1    5    5    0    0 -0.70955244734E+01  0.15997502136E+03  0.95912840054E+03  0.97240405318E+03  0.00000000000E+00 0.  1.
         12    1    5    5    0    0  0.33912539324E+01  0.54789151135E+01  0.30263386153E+03  0.30270245004E+03  0.00000000000E+00 0. -1.
         11    1    3    3    0    0  0.34503316664E+02  0.46465850020E+02 -0.10173180913E+03  0.11704236441E+03  0.00000000000E+00 0. -1.
        -12    1    3    3    0    0 -0.30145690836E+02  0.42445624619E+02 -0.20630423967E+03  0.21277178626E+03  0.00000000000E+00 0.  1.
          5    1    4    4  501    0 -0.46242265998E+02 -0.20072725130E+03 -0.52168379252E+02  0.21252950095E+03  0.41800000000E+01 0. -1.
         -5    1    4    4    0  501  0.45588910711E+02 -0.53638159815E+02  0.18555343342E+02  0.72918955935E+02  0.41800000000E+01 0. -1.
</event>
<event>
11    1  0.6807314E-009  0.1809213E+03  0.7561462E-02  0.1068900E+00
         22   -1    0    0    0    0  0.00000000000E+00  0.00000000000E+00  0.15930916322E+04  0.15930916322E+04  0.00000000000E+00 0.  1.
         22   -1    0    0    0    0 -0.00000000000E+00 -0.00000000000E+00 -0.26198123149E+03  0.26198123149E+03  0.00000000000E+00 0.  1.
         24    2    1    2    0    0  0.41377640862E+02 -0.52045721320E+02 -0.18281066290E+03  0.20828474593E+03  0.74444144461E+02 0.  0.
         25    2    1    2    0    0 -0.10157083068E+03  0.16349647986E+03  0.14901723639E+03  0.27368083265E+03  0.12508928350E+03 0.  0.
        -24    2    1    2    0    0  0.60193189819E+02 -0.11145075854E+03  0.13649038272E+04  0.13731072851E+04  0.80104102063E+02 0.  0.
        -13    1    3    3    0    0  0.56802172860E+02 -0.59085823018E+02 -0.13982572989E+03  0.16207669809E+03  0.00000000000E+00 0.  1.
         14    1    3    3    0    0 -0.15424531998E+02  0.70401016981E+01 -0.42984933010E+02  0.46208047840E+02  0.00000000000E+00 0. -1.
         11    1    5    5    0    0  0.28817962924E+02 -0.62809967030E+02  0.36215757923E+03  0.36869184848E+03  0.00000000000E+00 0. -1.
        -12    1    5    5    0    0  0.31375226895E+02 -0.48640791508E+02  0.10027462480E+04  0.10044154366E+04  0.00000000000E+00 0.  1.
          5    1    4    4  501    0 -0.95514832585E+01  0.12982772269E+03  0.70865882957E+02  0.14827647884E+03  0.41800000000E+01 0. -1.
         -5    1    4    4    0  501 -0.92019347422E+02  0.33668757170E+02  0.78151353431E+02  0.12540435380E+03  0.41800000000E+01 0. -1.
</event>
<event>
11    1  0.6625361E-009  0.1479781E+03  0.7561462E-02  0.1098963E+00
         22   -1    0    0    0    0  0.00000000000E+00  0.00000000000E+00  0.22899022788E+04  0.22899022788E+04  0.00000000000E+00 0. -1.
         22   -1    0    0    0    0 -0.00000000000E+00 -0.00000000000E+00 -0.13853728459E+03  0.13853728459E+03  0.00000000000E+00 0. -1.
         24    2    1    2    0    0  0.14531414406E+02 -0.80192571933E+02 -0.95706045889E+02  0.15047665189E+03  0.82713753066E+02 0.  0.
         25    2    1    2    0    0 -0.56792259690E+02  0.37018505649E+02  0.34501615976E+03  0.37319254011E+03  0.12506314793E+03 0.  0.
        -24    2    1    2    0    0  0.42260845284E+02  0.43174066284E+02  0.19020548803E+04  0.19047703714E+04  0.81776652584E+02 0.  0.
        -13    1    3    3    0    0 -0.17631571487E+02 -0.42253806282E+01 -0.56118145299E+02  0.58974336676E+02  0.00000000000E+00 0.  1.
         14    1    3    3    0    0  0.32162985893E+02 -0.75967191304E+02 -0.39587900590E+02  0.91502315213E+02  0.00000000000E+00 0. -1.
         13    1    5    5    0    0  0.59377270745E+02  0.54185687571E+02  0.14033659783E+04  0.14056663253E+04  0.00000000000E+00 0. -1.
        -14    1    5    5    0    0 -0.17116425461E+02 -0.11011621287E+02  0.49868890201E+03  0.49910404608E+03  0.00000000000E+00 0.  1.
          5    1    4    4  501    0  0.20548896359E+01  0.71199757271E+02  0.21259028823E+03  0.22424480162E+03  0.41800000000E+01 0. -1.
         -5    1    4    4    0  501 -0.58847149326E+02 -0.34181251622E+02  0.13242587154E+03  0.14894773848E+03  0.41800000000E+01 0. -1.
</event>
<event>
11    1  0.6625361E-009  0.2493346E+03  0.7561462E-02  0.1024254E+00
         22   -1    0    0    0    0  0.00000000000E+00  0.00000000000E+00  0.65518090911E+03  0.65518090911E+03  0.00000000000E+00 0. -1.
         22   -1    0    0    0    0 -0.00000000000E+00 -0.00000000000E+00 -0.11697143235E+04  0.11697143235E+04  0.00000000000E+00 0. -1.
        -24    2    1    2    0    0 -0.85835084039E+02 -0.17106132642E+02 -0.93448776266E+03  0.94215229626E+03  0.81995666734E+02 0.  0.
         25    2    1    2    0    0  0.26452449192E+03  0.12154599998E+03 -0.85882658584E+02  0.32828297543E+03  0.12508894424E+03 0.  0.
         24    2    1    2    0    0 -0.17868940788E+03 -0.10443986734E+03  0.50583700680E+03  0.55445996097E+03  0.93365842223E+02 0.  0.
        -11    1    5    5    0    0 -0.50164671728E+02 -0.43678262619E+02  0.27849134348E+03  0.28632448954E+03  0.00000000000E+00 0.  1.
         12    1    5    5    0    0 -0.12852473616E+03 -0.60761604719E+02  0.22734566332E+03  0.26813547143E+03  0.00000000000E+00 0. -1.
         11    1    3    3    0    0 -0.40280636899E+02 -0.47569157082E+02 -0.59685173999E+03  0.60009778698E+03  0.00000000000E+00 0. -1.
        -12    1    3    3    0    0 -0.45554447140E+02  0.30463024440E+02 -0.33763602267E+03  0.34205450927E+03  0.00000000000E+00 0.  1.
          5    1    4    4  501    0  0.20596036326E+02  0.28577405009E+02 -0.54913595818E+02  0.65374614301E+02  0.41800000000E+01 0. -1.
         -5    1    4    4    0  501  0.24392845560E+03  0.92968594971E+02 -0.30969062766E+02  0.26290836113E+03  0.41800000000E+01 0. -1.
</event>
<event>
11    1  0.6625361E-009  0.1489163E+03  0.7561462E-02  0.1097991E+00
         22   -1    0    0    0    0  0.00000000000E+00  0.00000000000E+00  0.11095715227E+04  0.11095715227E+04  0.00000000000E+00 0.  1.
         22   -1    0    0    0    0 -0.00000000000E+00 -0.00000000000E+00 -0.81160961063E+02  0.81160961063E+02  0.00000000000E+00 0.  1.
        -24    2    1    2    0    0  0.67154080592E+02  0.44277758881E+02 -0.19490029961E+02  0.11455990523E+03  0.79208081324E+02 0.  0.
         25    2    1    2    0    0 -0.86572571927E+02 -0.22567269684E+02  0.55565482993E+03  0.57654494759E+03  0.12509074587E+03 0.  0.
         24    2    1    2    0    0  0.19418491334E+02 -0.21710489197E+02  0.49224576165E+03  0.49962763092E+03  0.80457793708E+02 0.  0.
        -11    1    5    5    0    0  0.26512486837E+02  0.21591408560E+02  0.32229845284E+03  0.32410707117E+03  0.00000000000E+00 0.  1.
         12    1    5    5    0    0 -0.70939955026E+01 -0.43301897756E+02  0.16994730882E+03  0.17552055975E+03  0.00000000000E+00 0. -1.
         13    1    3    3    0    0  0.16413338511E+02  0.39682426254E+02  0.22552315426E+02  0.48504634475E+02  0.00000000000E+00 0. -1.
        -14    1    3    3    0    0  0.50740742082E+02  0.45953326265E+01 -0.42042345387E+02  0.66055270756E+02  0.00000000000E+00 0.  1.
          5    1    4    4  501    0 -0.94856533094E+02  0.23139025921E+02  0.27074011190E+03  0.28783824795E+03  0.41800000000E+01 0. -1.
         -5    1    4    4    0  501  0.82839611670E+01 -0.45706295605E+02  0.28491471803E+03  0.28870669964E+03  0.41800000000E+01 0. -1.
</event>
<event>
11    1  0.6625361E-009  0.1491408E+03  0.7561462E-02  0.1097760E+00
         22   -1    0    0    0    0  0.00000000000E+00  0.00000000000E+00  0.58775572003E+03  0.58775572003E+03  0.00000000000E+00 0.  1.
         22   -1    0    0    0    0 -0.00000000000E+00 -0.00000000000E+00 -0.92188298473E+02  0.92188298473E+02  0.00000000000E+00 0. -1.
         24    2    1    2    0    0  0.46215836409E+02 -0.86347882479E+01 -0.22999538040E+02  0.90697253441E+02  0.74071249001E+02 0.  0.
         25    2    1    2    0    0 -0.30530692376E+02  0.87344775657E+02  0.21451335128E+03  0.26499871155E+03  0.12508839368E+03 0.  0.
        -24    2    1    2    0    0 -0.15685144033E+02 -0.78709987409E+02  0.30405360832E+03  0.32424805352E+03  0.79037444389E+02 0.  0.
        -11    1    3    3    0    0  0.23126085423E+02  0.31630495759E+02 -0.20481728927E+02  0.44213180261E+02  0.00000000000E+00 0.  1.
         12    1    3    3    0    0  0.23089750986E+02 -0.40265284007E+02 -0.25178091133E+01  0.46484073181E+02  0.00000000000E+00 0. -1.
         13    1    5    5    0    0 -0.14920097942E+02  0.81932299417E+01  0.15967372230E+02  0.23338708521E+02  0.00000000000E+00 0. -1.
        -14    1    5    5    0    0 -0.76504609154E+00 -0.86903217351E+02  0.28808623609E+03  0.30090934500E+03  0.00000000000E+00 0.  1.
          5    1    4    4  501    0 -0.39407520652E+02  0.10387056753E+02  0.17143161565E+03  0.17625865901E+03  0.41800000000E+01 0. -1.
         -5    1    4    4    0  501  0.88768282761E+01  0.76957718904E+02  0.43081735626E+02  0.88740052534E+02  0.41800000000E+01 0. -1.
</event>
<event>
11    1  0.6625361E-009  0.1402293E+03  0.7561462E-02  0.1107303E+00
         22   -1    0    0    0    0  0.00000000000E+00  0.00000000000E+00  0.82006847727E+02  0.82006847727E+02  0.00000000000E+00 0. -1.
         22   -1    0    0    0    0 -0.00000000000E+00 -0.00000000000E+00 -0.14490744428E+04  0.14490744428E+04  0.00000000000E+00 0.  1.
         24    2    1    2    0    0  0.15744612771E+02 -0.50752307186E+02 -0.73956841654E+03  0.74584379516E+03  0.80609146592E+02 0.  0.
         25    2    1    2    0    0 -0.76022241021E+01  0.11107497945E+03 -0.65908664041E+03  0.68002675615E+03  0.12508295101E+03 0.  0.
        -24    2    1    2    0    0 -0.81423886690E+01 -0.60322672260E+02  0.31587461883E+02  0.10521073922E+03  0.79789777650E+02 0.  0.
        -13    1    3    3    0    0  0.14715337397E+02 -0.12688668516E+02 -0.62115350468E+03  0.62145733549E+03  0.00000000000E+00 0.  1.
         14    1    3    3    0    0  0.10292753743E+01 -0.38063638670E+02 -0.11841491186E+03  0.12438645967E+03  0.00000000000E+00 0. -1.
         11    1    5    5    0    0  0.74341700592E+01 -0.32421924735E+02  0.55907270915E+02  0.65054369793E+02  0.00000000000E+00 0. -1.
        -12    1    5    5    0    0 -0.15576558728E+02 -0.27900747526E+02 -0.24319809032E+02  0.40156369429E+02  0.00000000000E+00 0.  1.
          5    1    4    4  501    0 -0.50703881042E+02  0.79633875115E+02 -0.24664921752E+03  0.26413206265E+03  0.41800000000E+01 0.  1.
         -5    1    4    4    0  501  0.43101656940E+02  0.31441104331E+02 -0.41243742290E+03  0.41589469350E+03  0.41800000000E+01 0.  1.
</event>
<event>
11    1  0.6625361E-009  0.1780102E+03  0.7561462E-02  0.1071264E+00
         22   -1    0    0    0    0  0.00000000000E+00  0.00000000000E+00  0.24362877781E+04  0.24362877781E+04  0.00000000000E+00 0.  1.
         22   -1    0    0    0    0 -0.00000000000E+00 -0.00000000000E+00 -0.77575234339E+03  0.77575234339E+03  0.00000000000E+00 0.  1.
         24    2    1    2    0    0  0.24103198882E+02 -0.96258615285E+02 -0.75687494180E+03  0.76736090555E+03  0.78335155777E+02 0.  0.
         25    2    1    2    0    0 -0.12101892130E+03  0.14176799374E+03  0.12776257344E+04  0.12971961761E+04  0.12508660469E+03 0.  0.
        -24    2    1    2    0    0  0.96915722422E+02 -0.45509378456E+02  0.11397846422E+04  0.11474830399E+04  0.78387088059E+02 0.  0.
        -13    1    3    3    0    0  0.33682017805E+02 -0.48482594544E+02 -0.60470631676E+03  0.60758108087E+03  0.00000000000E+00 0.  1.
         14    1    3    3    0    0 -0.95788189225E+01 -0.47776020740E+02 -0.15216862504E+03  0.15977982468E+03  0.00000000000E+00 0. -1.
         11    1    5    5    0    0  0.64801199192E+01  0.19353944896E+02  0.23359471262E+03  0.23448466240E+03  0.00000000000E+00 0. -1.
        -12    1    5    5    0    0  0.90435602503E+02 -0.64863323353E+02  0.90618992954E+03  0.91299837750E+03  0.00000000000E+00 0.  1.
          5    1    4    4  501    0 -0.58567926511E+02  0.64664516729E+02  0.97029133778E+03  0.97421478860E+03  0.41800000000E+01 0.  1.
         -5    1    4    4    0  501 -0.62450994793E+02  0.77103477012E+02  0.30733439660E+03  0.32298138747E+03  0.41800000000E+01 0.  1.
</event>
<event>
11    1  0.6625361E-009  0.1934776E+03  0.7561462E-02  0.1059234E+00
         22   -1    0    0    0    0  0.00000000000E+00  0.00000000000E+00  0.92613181838E+03  0.92613181838E+03  0.00000000000E+00 0.  1.
         22   -1    0    0    0    0 -0.00000000000E+00 -0.00000000000E+00 -0.14586821522E+03  0.14586821522E+03  0.00000000000E+00 0.  1.
        -24    2    1    2    0    0  0.23578555671E+02  0.72436038243E+01 -0.91846601855E+02  0.12364006853E+03  0.79010443555E+02 0.  0.
         25    2    1    2    0    0 -0.79810166974E+02 -0.13298238638E+03  0.60804253245E+03  0.63985746991E+03  0.12509149733E+03 0.  0.
         24    2    1    2    0    0  0.56231611303E+02  0.12573878255E+03  0.26406767256E+03  0.30850249515E+03  0.80435180584E+02 0.  0.
        -11    1    5    5    0    0  0.36222923647E+02  0.13209153897E+03  0.21240326862E+03  0.25273587673E+03  0.00000000000E+00 0.  1.
         12    1    5    5    0    0  0.20008687657E+02 -0.63527564171E+01  0.51664403944E+02  0.55766618427E+02  0.00000000000E+00 0. -1.
         11    1    3    3    0    0  0.20214301688E+02 -0.25512998108E+02 -0.79421790002E+01  0.33505361846E+02  0.00000000000E+00 0. -1.
        -12    1    3    3    0    0  0.33642539828E+01  0.32756601932E+02 -0.83904422855E+02  0.90134706687E+02  0.00000000000E+00 0.  1.
          5    1    4    4  501    0  0.16375713060E+01 -0.13304167804E+02  0.29060384526E+03  0.29094286347E+03  0.41800000000E+01 0.  1.
         -5    1    4    4    0  501 -0.81447738280E+02 -0.11967821857E+03  0.31743868718E+03  0.34891460645E+03  0.41800000000E+01 0.  1.
</event>
<event>
11    1  0.6625361E-009  0.1292744E+03  0.7561462E-02  0.1120164E+00
         22   -1    0    0    0    0  0.00000000000E+00  0.00000000000E+00  0.73307200740E+03  0.73307200740E+03  0.00000000000E+00 0.  1.
         22   -1    0    0    0    0 -0.00000000000E+00 -0.00000000000E+00 -0.11446623888E+03  0.11446623888E+03  0.00000000000E+00 0. -1.
         24    2    1    2    0    0  0.46715695974E+01  0.37924361597E+01 -0.73968980196E+02  0.11049278778E+03  0.81859880199E+02 0.  0.
         25    2    1    2    0    0  0.25944569380E+02 -0.16402410194E+02  0.20783293283E+03  0.24450860313E+03  0.12509104402E+03 0.  0.
        -24    2    1    2    0    0 -0.30616138977E+02  0.12609974035E+02  0.48474181589E+03  0.49253685538E+03  0.80756215992E+02 0.  0.
        -13    1    3    3    0    0 -0.20557481803E+02 -0.32011280469E+02 -0.30211429499E+02  0.48580475582E+02  0.00000000000E+00 0.  1.
         14    1    3    3    0    0  0.25229051401E+02  0.35803716629E+02 -0.43757550698E+02  0.61912312201E+02  0.00000000000E+00 0. -1.
         11    1    5    5    0    0 -0.49039438855E+02 -0.16931532988E+02  0.26152072592E+03  0.26661701644E+03  0.00000000000E+00 0. -1.
        -12    1    5    5    0    0  0.18423299878E+02  0.29541507022E+02  0.22322108997E+03  0.22591983893E+03  0.00000000000E+00 0.  1.
          5    1    4    4  501    0  0.26458760151E+02 -0.49461658513E+02  0.20322415550E+03  0.21086500760E+03  0.41800000000E+01 0.  1.
         -5    1    4    4    0  501 -0.51419077100E+00  0.33059248318E+02  0.46087773329E+01  0.33643595528E+02  0.41800000000E+01 0.  1.
</event>
<event>
11    1  0.6625361E-009  0.2163154E+03  0.7561462E-02  0.1043550E+00
         22   -1    0    0    0    0  0.00000000000E+00  0.00000000000E+00  0.15444519425E+03  0.15444519425E+03  0.00000000000E+00 0.  1.
         22   -1    0    0    0    0 -0.00000000000E+00 -0.00000000000E+00 -0.25991996393E+04  0.25991996393E+04  0.00000000000E+00 0.  1.
        -24    2    1    2    0    0 -0.88651553002E+02 -0.15337160796E+02 -0.21136771352E+04  0.21171087292E+04  0.80149941776E+02 0.  0.
         25    2    1    2    0    0  0.13371745121E+02 -0.15272100637E+03 -0.38189492948E+03  0.43010946830E+03  0.12509159927E+03 0.  0.
         24    2    1    2    0    0  0.75279807881E+02  0.16805816716E+03  0.50817619648E+02  0.20642663600E+03  0.78223580568E+02 0.  0.
        -11    1    5    5    0    0  0.26062956980E+02  0.11690575925E+03  0.61500516187E+02  0.13464229560E+03  0.00000000000E+00 0.  1.
         12    1    5    5    0    0  0.49216850901E+02  0.51152407913E+02 -0.10682896540E+02  0.71784340399E+02  0.00000000000E+00 0. -1.
         11    1    3    3    0    0 -0.59446290005E+02 -0.12180602437E+02 -0.58295099583E+03  0.58610075244E+03  0.00000000000E+00 0. -1.
        -12    1    3    3    0    0 -0.29205262997E+02 -0.31565583597E+01 -0.15307261394E+04  0.15310079768E+04  0.00000000000E+00 0.  1.
          5    1    4    4  501    0 -0.25680708624E+02 -0.13554572533E+03 -0.19847958442E+03  0.24175144318E+03  0.41800000000E+01 0. -1.
         -5    1    4    4    0  501  0.39052453745E+02 -0.17175281038E+02 -0.18341534506E+03  0.18835802512E+03  0.41800000000E+01 0. -1.
</event>
<event>
11    1  0.6625361E-009  0.1345433E+03  0.7561462E-02  0.1113809E+00
         22   -1    0    0    0    0  0.00000000000E+00  0.00000000000E+00  0.74886093125E+02  0.74886093125E+02  0.00000000000E+00 0.  1.
         22   -1    0    0    0    0 -0.00000000000E+00 -0.00000000000E+00 -0.14902096233E+04  0.14902096233E+04  0.00000000000E+00 0.  1.
         24    2    1    2    0    0 -0.56519029061E+02 -0.19725048975E+02 -0.63395822897E+03  0.64184774904E+03  0.80510984732E+02 0.  0.
         25    2    1    2    0    0  0.32572280890E+02  0.15941154671E+02 -0.81883878780E+03  0.82913154834E+03  0.12508832939E+03 0.  0.
        -24    2    1    2    0    0  0.23946748171E+02  0.37838943038E+01  0.37473486601E+02  0.94116419042E+02  0.82860566805E+02 0.  0.
        -11    1    3    3    0    0 -0.12159168172E+02 -0.41678219343E+02 -0.42006506391E+03  0.42230270808E+03  0.00000000000E+00 0.  1.
         12    1    3    3    0    0 -0.44359860890E+02  0.21953170369E+02 -0.21389316506E+03  0.21954504095E+03  0.00000000000E+00 0. -1.
         11    1    5    5    0    0 -0.28097770942E+02  0.16024008188E+02  0.91611761595E+01  0.33618160553E+02  0.00000000000E+00 0. -1.
        -12    1    5    5    0    0  0.52044519114E+02 -0.12240113884E+02  0.28312310441E+02  0.60498258489E+02  0.00000000000E+00 0.  1.
          5    1    4    4  501    0 -0.37430812345E+02  0.23584443523E+02 -0.14621837544E+03  0.15282204489E+03  0.41800000000E+01 0.  1.
         -5    1    4    4    0  501  0.70003093235E+02 -0.76432888526E+01 -0.67262041236E+03  0.67630950345E+03  0.41800000000E+01 0.  1.
</event>
<event>
11    1  0.6625361E-009  0.1313786E+03  0.7561462E-02  0.1117587E+00
         22   -1    0    0    0    0  0.00000000000E+00  0.00000000000E+00  0.30850672238E+03  0.30850672238E+03  0.00000000000E+00 0. -1.
         22   -1    0    0    0    0 -0.00000000000E+00 -0.00000000000E+00 -0.36243184113E+03  0.36243184113E+03  0.00000000000E+00 0.  1.
         24    2    1    2    0    0  0.27673072936E+01 -0.55832376153E+01 -0.30777927167E+03  0.31643335116E+03  0.73233565572E+02 0.  0.
         25    2    1    2    0    0  0.39000565396E+02  0.55951799059E+01  0.22314376811E+03  0.25883240983E+03  0.12509486398E+03 0.  0.
        -24    2    1    2    0    0 -0.41767872690E+02 -0.11942290617E-01  0.30710384808E+02  0.95672802513E+02  0.80408967622E+02 0.  0.
        -11    1    3    3    0    0  0.26114436504E+01 -0.11252235655E+02 -0.31009322782E+03  0.31030830216E+03  0.00000000000E+00 0.  1.
         12    1    3    3    0    0  0.15586364323E+00  0.56689980395E+01  0.23139561536E+01  0.61250490062E+01  0.00000000000E+00 0. -1.
         13    1    5    5    0    0 -0.28145972199E+02 -0.15222739691E+02  0.55189879047E+02  0.63795378390E+02  0.00000000000E+00 0. -1.
        -14    1    5    5    0    0 -0.13621900491E+02  0.15210797400E+02 -0.24479494239E+02  0.31877424123E+02  0.00000000000E+00 0.  1.
          5    1    4    4  501    0 -0.30146128119E+02  0.28374742347E+02  0.27077833544E+02  0.49644702771E+02  0.41800000000E+01 0.  1.
         -5    1    4    4    0  501  0.69146693515E+02 -0.22779562441E+02  0.19606593457E+03  0.20918770706E+03  0.41800000000E+01 0.  1.
</event>
<event>
11    1  0.6625361E-009  0.1728426E+03  0.7561462E-02  0.1075584E+00
         22   -1    0    0    0    0  0.00000000000E+00  0.00000000000E+00  0.18528177759E+04  0.18528177759E+04  0.00000000000E+00 0.  1.
         22   -1    0    0    0    0 -0.00000000000E+00 -0.00000000000E+00 -0.43001587251E+03  0.43001587251E+03  0.00000000000E+00 0.  1.
        -24    2    1    2    0    0 -0.89625084232E+02 -0.78999609009E+02 -0.40131311401E+03  0.42545164914E+03  0.75387640472E+02 0.  0.
         25    2    1    2    0    0  0.83419732053E+02  0.74907226765E+02  0.43985220043E+03  0.47083569417E+03  0.12508536430E+03 0.  0.
         24    2    1    2    0    0  0.62053521788E+01  0.40923822438E+01  0.13842628170E+04  0.13865463051E+04  0.79195048642E+02 0.  0.
        -13    1    5    5    0    0  0.30143335264E+02  0.14759319786E+01  0.12337722673E+04  0.12341413236E+04  0.00000000000E+00 0.  1.
         14    1    5    5    0    0 -0.23937983085E+02  0.26164502653E+01  0.15049054965E+03  0.15240498148E+03  0.00000000000E+00 0. -1.
         11    1    3    3    0    0 -0.43554727928E+01  0.11348416330E+00  0.26338339362E+01  0.50911789507E+01  0.00000000000E+00 0. -1.
        -12    1    3    3    0    0 -0.85269611439E+02 -0.79113093173E+02 -0.40394694794E+03  0.42036047019E+03  0.00000000000E+00 0.  1.
          5    1    4    4  501    0  0.10537217207E+03  0.18193608807E+02  0.28222914539E+03  0.30183615581E+03  0.41800000000E+01 0. -1.
         -5    1    4    4    0  501 -0.21952440016E+02  0.56713617958E+02  0.15762305505E+03  0.16899953836E+03  0.41800000000E+01 0. -1.
</event>
<event>
11    1  0.6625361E-009  0.2223355E+03  0.7561462E-02  0.1039764E+00
         22   -1    0    0    0    0  0.00000000000E+00  0.00000000000E+00  0.94881270903E+03  0.94881270903E+03  0.00000000000E+00 0.  1.
         22   -1    0    0    0    0 -0.00000000000E+00 -0.00000000000E+00 -0.48912554776E+03  0.48912554776E+03  0.00000000000E+00 0. -1.
        -24    2    1    2    0    0  0.13187450165E+03  0.90442801068E+02 -0.24611146297E+02  0.18128125149E+03  0.81770405206E+02 0.  0.
         25    2    1    2    0    0 -0.33534615624E+02 -0.24543544799E+03 -0.32245312700E+03  0.42542516929E+03  0.12508967172E+03 0.  0.
         24    2    1    2    0    0 -0.98339886029E+02  0.15499264693E+03  0.80675143457E+03  0.83123183601E+03  0.80031457789E+02 0.  0.
        -13    1    5    5    0    0 -0.10805911271E+03  0.11855051691E+03  0.60022671388E+03  0.62129148148E+03  0.00000000000E+00 0.  1.
         14    1    5    5    0    0  0.97192266787E+01  0.36442130012E+02  0.20652472069E+03  0.20994035454E+03  0.00000000000E+00 0. -1.
         11    1    3    3    0    0  0.70744734024E+02  0.72124341503E+02 -0.49847983073E+02  0.11265682157E+03  0.00000000000E+00 0. -1.
        -12    1    3    3    0    0  0.61129767629E+02  0.18318459565E+02  0.25236836776E+02  0.68624429919E+02  0.00000000000E+00 0.  1.
          5    1    4    4  501    0 -0.14934996154E+02 -0.67429529463E+02 -0.16796007904E+02  0.71199535359E+02  0.41800000000E+01 0. -1.
         -5    1    4    4    0  501 -0.18599619470E+02 -0.17800591853E+03 -0.30565711910E+03  0.35422563393E+03  0.41800000000E+01 0. -1.
</event>
<event>
11    1  0.6625361E-009  0.1589647E+03  0.7561462E-02  0.1088055E+00
         22   -1    0    0    0    0  0.00000000000E+00  0.00000000000E+00  0.61163686219E+03  0.61163686219E+03  0.00000000000E+00 0. -1.
         22   -1    0    0    0    0 -0.00000000000E+00 -0.00000000000E+00 -0.73572775118E+03  0.73572775118E+03  0.00000000000E+00 0. -1.
        -24    2    1    2    0    0 -0.62033975075E+02  0.25664175193E+02 -0.69083160557E+03  0.69873046132E+03  0.80430630754E+02 0.  0.
         25    2    1    2    0    0  0.88599263644E+02  0.69292960310E+02  0.20543700896E+03  0.26552510206E+03  0.12509145179E+03 0.  0.
         24    2    1    2    0    0 -0.26565288569E+02 -0.94957135504E+02  0.36130370762E+03  0.38310904999E+03  0.80682110183E+02 0.  0.
        -11    1    5    5    0    0  0.48690568321E+01 -0.68163217834E+00 -0.28198026855E+01  0.56677706416E+01  0.00000000000E+00 0.  1.
         12    1    5    5    0    0 -0.31434345401E+02 -0.94275503325E+02  0.36412351031E+03  0.37744127935E+03  0.00000000000E+00 0. -1.
         13    1    3    3    0    0 -0.42715598001E+02  0.12908581859E+02 -0.65197707317E+03  0.65350237776E+03  0.00000000000E+00 0. -1.
        -14    1    3    3    0    0 -0.19318377075E+02  0.12755593334E+02 -0.38854532401E+02  0.45228083557E+02  0.00000000000E+00 0.  1.
          5    1    4    4  501    0  0.56196746506E+02 -0.24484522535E+02  0.11876167895E+03  0.13371377995E+03  0.41800000000E+01 0. -1.
         -5    1    4    4    0  501  0.32402517138E+02  0.93777482845E+02  0.86675330010E+02  0.13181132212E+03  0.41800000000E+01 0. -1.
</event>
<event>
11    1  0.6625361E-009  0.1251949E+03  0.7561462E-02  0.1125318E+00
         22   -1    0    0    0    0  0.00000000000E+00  0.00000000000E+00  0.31168185952E+03  0.31168185952E+03  0.00000000000E+00 0.  1.
         22   -1    0    0    0    0 -0.00000000000E+00 -0.00000000000E+00 -0.14551276615E+04  0.14551276615E+04  0.00000000000E+00 0.  1.
        -24    2    1    2    0    0 -0.96736166983E+01  0.62259140843E+01 -0.12868096109E+04  0.12893701145E+04  0.80398858566E+02 0.  0.
         25    2    1    2    0    0  0.57185235503E+01 -0.93310362985E+01 -0.13148862379E+03  0.18182230089E+03  0.12510124366E+03 0.  0.
         24    2    1    2    0    0  0.39550931480E+01  0.31051222143E+01  0.27485243269E+03  0.29561710570E+03  0.10872133590E+03 0.  0.
        -11    1    5    5    0    0 -0.32415011990E+02  0.43004785076E+02  0.11730607304E+03  0.12907695114E+03  0.00000000000E+00 0.  1.
         12    1    5    5    0    0  0.36370105138E+02 -0.39899662861E+02  0.15754635965E+03  0.16654015457E+03  0.00000000000E+00 0. -1.
         13    1    3    3    0    0 -0.15575132516E+02 -0.35265038410E+02 -0.52927110303E+03  0.53067325935E+03  0.00000000000E+00 0. -1.
        -14    1    3    3    0    0  0.59015158179E+01  0.41490952494E+02 -0.75753850789E+03  0.75869685512E+03  0.00000000000E+00 0.  1.
          5    1    4    4  501    0 -0.50422208929E+02 -0.36850493763E+02 -0.72234744392E+02  0.95580796927E+02  0.41800000000E+01 0. -1.
         -5    1    4    4    0  501  0.56140732479E+02  0.27519457465E+02 -0.59253879400E+02  0.86241503966E+02  0.41800000000E+01 0. -1.
</event>
<event>
11    1  0.6625361E-009  0.1620278E+03  0.7561462E-02  0.1085185E+00
         22   -1    0    0    0    0  0.00000000000E+00  0.00000000000E+00  0.50729829632E+03  0.50729829632E+03  0.00000000000E+00 0.  1.
         22   -1    0    0    0    0 -0.00000000000E+00 -0.00000000000E+00 -0.44265691387E+03  0.44265691387E+03  0.00000000000E+00 0.  1.
         24    2    1    2    0    0  0.59303646493E+02  0.11667392492E+03 -0.32110081443E+03  0.35582748913E+03  0.79860764769E+02 0.  0.
         25    2    1    2    0    0 -0.53505706988E+02  0.62546911369E+01 -0.41320293238E+02  0.14232450882E+03  0.12508763862E+03 0.  0.
        -24    2    1    2    0    0 -0.57979395048E+01 -0.12292861606E+03  0.42706249011E+03  0.45180321225E+03  0.81232452809E+02 0.  0.
        -13    1    3    3    0    0  0.50258215944E+02  0.61611140362E+02 -0.26511977011E+03  0.27678568133E+03  0.00000000000E+00 0.  1.
         14    1    3    3    0    0  0.90454305493E+01  0.55062784557E+02 -0.55981044319E+02  0.79041807798E+02  0.00000000000E+00 0. -1.
         11    1    5    5    0    0  0.15128103027E+02 -0.91494062566E+01  0.13167522546E+02  0.22044382188E+02  0.00000000000E+00 0. -1.
        -12    1    5    5    0    0 -0.20926042532E+02 -0.11377920980E+03  0.41389496757E+03  0.42975883006E+03  0.00000000000E+00 0.  1.
          5    1    4    4  501    0  0.25388879500E+02  0.34212841886E+02 -0.39879210840E+02  0.58505876708E+02  0.41800000000E+01 0.  1.
         -5    1    4    4    0  501 -0.78894586489E+02 -0.27958150749E+02 -0.14410823982E+01  0.83818632111E+02  0.41800000000E+01 0.  1.
</event>
<event>
11    1  0.6625361E-009  0.1296645E+03  0.7561462E-02  0.1119682E+00
         22   -1    0    0    0    0  0.00000000000E+00  0.00000000000E+00  0.27102481625E+03  0.27102481625E+03  0.00000000000E+00 0.  1.
         22   -1    0    0    0    0 -0.00000000000E+00 -0.00000000000E+00 -0.10724095225E+04  0.10724095225E+04  0.00000000000E+00 0.  1.
         24    2    1    2    0    0  0.32224758780E+02 -0.99846192365E+01 -0.10207354248E+04  0.10245120974E+04  0.81154805861E+02 0.  0.
         25    2    1    2    0    0 -0.64061052712E+02  0.58630903363E+01  0.10227967527E+03  0.17391757378E+03  0.12509195095E+03 0.  0.
        -24    2    1    2    0    0  0.31836293933E+02  0.41215289002E+01  0.11707104334E+03  0.14500466753E+03  0.79310704220E+02 0.  0.
        -11    1    3    3    0    0 -0.51230515142E+01  0.21316297699E+02 -0.67537687927E+03  0.67573260929E+03  0.00000000000E+00 0.  1.
         12    1    3    3    0    0  0.37347810294E+02 -0.31300916936E+02 -0.34535854556E+03  0.34877948811E+03  0.00000000000E+00 0. -1.
         11    1    5    5    0    0 -0.18145549419E+02  0.17055937391E+02  0.11384784462E+02  0.27382097824E+02  0.00000000000E+00 0. -1.
        -12    1    5    5    0    0  0.49981843351E+02 -0.12934408490E+02  0.10568625888E+03  0.11762256971E+03  0.00000000000E+00 0.  1.
          5    1    4    4  501    0  0.85950608445E+01  0.44346918061E+02  0.37472506592E+01  0.45519649602E+02  0.41800000000E+01 0.  1.
         -5    1    4    4    0  501 -0.72656113557E+02 -0.38483827724E+02  0.98532424613E+02  0.12839792418E+03  0.41800000000E+01 0.  1.
</event>
<event>
11    1  0.6625361E-009  0.2137213E+03  0.7561462E-02  0.1045223E+00
         22   -1    0    0    0    0  0.00000000000E+00  0.00000000000E+00  0.51137863901E+03  0.51137863901E+03  0.00000000000E+00 0. -1.
         22   -1    0    0    0    0 -0.00000000000E+00 -0.00000000000E+00 -0.34870010799E+03  0.34870010799E+03  0.00000000000E+00 0. -1.
        -24    2    1    2    0    0  0.77217314703E+02 -0.15498345655E+03 -0.22764779055E+03  0.29726150528E+03  0.80984569419E+02 0.  0.
         25    2    1    2    0    0 -0.77119507117E+02  0.15580999785E+03  0.68875542092E+02  0.22498049331E+03  0.12509279861E+03 0.  0.
         24    2    1    2    0    0 -0.97807585886E-01 -0.82654129892E+00  0.32145077948E+03  0.33783674840E+03  0.10393446112E+03 0.  0.
        -13    1    5    5    0    0 -0.20333789548E+01 -0.23480983541E+02  0.10075026163E+02  0.25631959937E+02  0.00000000000E+00 0.  1.
         14    1    5    5    0    0  0.19355713689E+01  0.22654442242E+02  0.31137575331E+03  0.31220478846E+03  0.00000000000E+00 0. -1.
         13    1    3    3    0    0  0.76732847468E+02 -0.15740147878E+03 -0.23294314033E+03  0.29142007829E+03  0.00000000000E+00 0. -1.
        -14    1    3    3    0    0  0.48446723441E+00  0.24180222289E+01  0.52953497797E+01  0.58414269909E+01  0.00000000000E+00 0.  1.
          5    1    4    4  501    0  0.31377592348E+02  0.11709795155E+02  0.10866128472E+02  0.35457266562E+02  0.41800000000E+01 0. -1.
         -5    1    4    4    0  501 -0.10849709946E+03  0.14410020270E+03  0.58009413621E+02  0.18952322675E+03  0.41800000000E+01 0. -1.
</event>
<event>
11    1  0.6625361E-009  0.1377939E+03  0.7561462E-02  0.1110047E+00
         22   -1    0    0    0    0  0.00000000000E+00  0.00000000000E+00  0.21173560001E+04  0.21173560001E+04  0.00000000000E+00 0.  1.
         22   -1    0    0    0    0 -0.00000000000E+00 -0.00000000000E+00 -0.28989337247E+04  0.28989337247E+04  0.00000000000E+00 0. -1.
         24    2    1    2    0    0  0.74174183559E+01 -0.51556234164E+02 -0.28838175786E+04  0.28854282823E+04  0.81114007483E+02 0.  0.
         25    2    1    2    0    0 -0.63943145886E+02  0.38624577097E+02  0.40070147492E+03  0.42636743909E+03  0.12508771823E+03 0.  0.
        -24    2    1    2    0    0  0.56525727530E+02  0.12931657066E+02  0.17015383791E+04  0.17044940034E+04  0.81881417792E+02 0.  0.
        -13    1    3    3    0    0  0.35596387349E+02 -0.26007430380E+02 -0.76492387721E+03  0.76619320484E+03  0.00000000000E+00 0.  1.
         14    1    3    3    0    0 -0.28178968993E+02 -0.25548803784E+02 -0.21188937014E+04  0.21192350774E+04  0.00000000000E+00 0. -1.
         11    1    5    5    0    0  0.48286062511E+02  0.95210219854E+01  0.41261961245E+03  0.41554438785E+03  0.00000000000E+00 0. -1.
        -12    1    5    5    0    0  0.82396650189E+01  0.34106350809E+01  0.12889187666E+04  0.12889496156E+04  0.00000000000E+00 0.  1.
          5    1    4    4  501    0  0.28593451592E+02  0.24374988452E+02  0.21562716932E+03  0.21891613482E+03  0.41800000000E+01 0.  1.
         -5    1    4    4    0  501 -0.92536597478E+02  0.14249588645E+02  0.18507430560E+03  0.20745130427E+03  0.41800000000E+01 0.  1.
</event>
<event>
11    1  0.6625361E-009  0.1290005E+03  0.7561462E-02  0.1120503E+00
         22   -1    0    0    0    0  0.00000000000E+00  0.00000000000E+00  0.50863146672E+03  0.50863146672E+03  0.00000000000E+00 0. -1.
         22   -1    0    0    0    0 -0.00000000000E+00 -0.00000000000E+00 -0.13136950110E+03  0.13136950110E+03  0.00000000000E+00 0. -1.
        -24    2    1    2    0    0  0.96861750233E+01 -0.21253163059E+02 -0.53469324158E+02  0.99301247851E+02  0.80350795094E+02 0.  0.
         25    2    1    2    0    0 -0.25871362533E+02  0.61942648390E+02  0.49053814848E+02  0.15019641865E+03  0.12508584386E+03 0.  0.
         24    2    1    2    0    0  0.16185187509E+02 -0.40689485332E+02  0.38167747492E+03  0.39050330132E+03  0.69982418995E+02 0.  0.
        -11    1    5    5    0    0 -0.86172019567E+01 -0.95443981792E+01  0.89773934180E+01  0.15682643232E+02  0.00000000000E+00 0.  1.
         12    1    5    5    0    0  0.24802389466E+02 -0.31145087152E+02  0.37270008151E+03  0.37482065809E+03  0.00000000000E+00 0. -1.
         11    1    3    3    0    0 -0.11577040080E+02 -0.36815144827E+02 -0.60743226674E+02  0.71966119337E+02  0.00000000000E+00 0. -1.
        -12    1    3    3    0    0  0.21263215103E+02  0.15561981769E+02  0.72739025156E+01  0.27335128514E+02  0.00000000000E+00 0.  1.
          5    1    4    4  501    0  0.18539610632E+02  0.78871221792E+02  0.60413085756E+02  0.10115137231E+03  0.41800000000E+01 0. -1.
         -5    1    4    4    0  501 -0.44410973165E+02 -0.16928573401E+02 -0.11359270908E+02  0.49045046339E+02  0.41800000000E+01 0. -1.
</event>
<event>
11    1  0.6625361E-009  0.1343962E+03  0.7561462E-02  0.1113982E+00
         22   -1    0    0    0    0  0.00000000000E+00  0.00000000000E+00  0.63017535188E+03  0.63017535188E+03  0.00000000000E+00 0. -1.
         22   -1    0    0    0    0 -0.00000000000E+00 -0.00000000000E+00 -0.35537502243E+03  0.35537502243E+03  0.00000000000E+00 0. -1.
        -24    2    1    2    0    0  0.30434916924E+00 -0.13374509144E+02 -0.22622999537E+03  0.23838758064E+03  0.73957134045E+02 0.  0.
         25    2    1    2    0    0 -0.89412612171E+00 -0.36170224635E+02 -0.83740925736E+02  0.15482095826E+03  0.12509157390E+03 0.  0.
         24    2    1    2    0    0  0.58977695247E+00  0.49544733779E+02  0.58477125056E+03  0.59234183541E+03  0.80351764242E+02 0.  0.
        -11    1    5    5    0    0  0.33750784281E+02  0.50934632922E+02  0.39228560652E+03  0.39701567898E+03  0.00000000000E+00 0.  1.
         12    1    5    5    0    0 -0.33161007329E+02 -0.13898991429E+01  0.19248564404E+03  0.19532615644E+03  0.00000000000E+00 0. -1.
         13    1    3    3    0    0  0.10701332093E+02 -0.36696719044E+01 -0.22364629949E+03  0.22393224930E+03  0.00000000000E+00 0. -1.
        -14    1    3    3    0    0 -0.10396982924E+02 -0.97048372400E+01 -0.25836958770E+01  0.14455331341E+02  0.00000000000E+00 0.  1.
          5    1    4    4  501    0 -0.28359314130E-02 -0.81634932690E+02 -0.37846160188E+02  0.90078113237E+02  0.41800000000E+01 0. -1.
         -5    1    4    4    0  501 -0.89129019030E+00  0.45464708055E+02 -0.45894765548E+02  0.64742845021E+02  0.41800000000E+01 0. -1.
</event>
<event>
11    1  0.6625361E-009  0.1620126E+03  0.7561462E-02  0.1085199E+00
         22   -1    0    0    0    0  0.00000000000E+00  0.00000000000E+00  0.84386104485E+03  0.84386104485E+03  0.00000000000E+00 0. -1.
         22   -1    0    0    0    0 -0.00000000000E+00 -0.00000000000E+00 -0.17310985897E+03  0.17310985897E+03  0.00000000000E+00 0. -1.
        -24    2    1    2    0    0  0.10298289341E+03  0.24546299155E+02 -0.11050160961E+03  0.17225787473E+03  0.79083326594E+02 0.  0.
         25    2    1    2    0    0 -0.90780439927E+02  0.56642749314E+02  0.23783269402E+03  0.28924287574E+03  0.12509021343E+03 0.  0.
         24    2    1    2    0    0 -0.12202453480E+02 -0.81189048469E+02  0.54342010147E+03  0.55547015334E+03  0.80629542454E+02 0.  0.
        -13    1    5    5    0    0  0.40024090410E+01  0.97785685149E+01  0.11632158088E+02  0.15714540468E+02  0.00000000000E+00 0.  1.
         14    1    5    5    0    0 -0.16204862521E+02 -0.90967616984E+02  0.53178794338E+03  0.53975561288E+03  0.00000000000E+00 0. -1.
         13    1    3    3    0    0  0.11291005829E+03  0.17017347610E+02 -0.11170808760E+03  0.15974031494E+03  0.00000000000E+00 0. -1.
        -14    1    3    3    0    0 -0.99271648845E+01  0.75289515448E+01  0.12064779892E+01  0.12517559792E+02  0.00000000000E+00 0.  1.
          5    1    4    4  501    0 -0.26233769636E+02  0.28436324380E+02 -0.22753528587E+01  0.38980570086E+02  0.41800000000E+01 0.  1.
         -5    1    4    4    0  501 -0.64546670291E+02  0.28206424933E+02  0.24010804688E+03  0.25026230565E+03  0.41800000000E+01 0.  1.
</event>
<event>
11    1  0.6625361E-009  0.1364303E+03  0.7561462E-02  0.1111611E+00
         22   -1    0    0    0    0  0.00000000000E+00  0.00000000000E+00  0.27304202454E+03  0.27304202454E+03  0.00000000000E+00 0. -1.
         22   -1    0    0    0    0 -0.00000000000E+00 -0.00000000000E+00 -0.27179712645E+03  0.27179712645E+03  0.00000000000E+00 0. -1.
         24    2    1    2    0    0  0.42066668427E+01 -0.58470664932E+02 -0.21162967026E+03  0.23390579793E+03  0.80549924065E+02 0.  0.
         25    2    1    2    0    0 -0.10582167652E+02  0.78951426173E+01  0.90114124114E+02  0.15473287343E+03  0.12508953276E+03 0.  0.
        -24    2    1    2    0    0  0.63755008095E+01  0.50575522315E+02  0.12276044423E+03  0.15620047963E+03  0.82036167024E+02 0.  0.
        -13    1    3    3    0    0  0.48459010425E+01  0.31266608430E+00  0.64318655631E+01  0.80591197792E+01  0.00000000000E+00 0.  1.
         14    1    3    3    0    0 -0.63923419981E+00 -0.58783331016E+02 -0.21806153582E+03  0.22584667815E+03  0.00000000000E+00 0. -1.
         11    1    5    5    0    0 -0.22505700870E+02 -0.10115084582E+01  0.80329361358E+02  0.83428628283E+02  0.00000000000E+00 0. -1.
        -12    1    5    5    0    0  0.28881201679E+02  0.51587030773E+02  0.42431082876E+02  0.72771851347E+02  0.00000000000E+00 0.  1.
          5    1    4    4  501    0 -0.22681499747E+02 -0.50704596521E+02  0.13291241514E+02  0.57267233564E+02  0.41800000000E+01 0.  1.
         -5    1    4    4    0  501  0.12099332095E+02  0.58599739138E+02  0.76822882600E+02  0.97465639869E+02  0.41800000000E+01 0.  1.
</event>
<event>
11    1  0.6625361E-009  0.1346715E+03  0.7561462E-02  0.1113659E+00
         22   -1    0    0    0    0  0.00000000000E+00  0.00000000000E+00  0.47922582694E+02  0.47922582694E+02  0.00000000000E+00 0. -1.
         22   -1    0    0    0    0 -0.00000000000E+00 -0.00000000000E+00 -0.11453766223E+04  0.11453766223E+04  0.00000000000E+00 0. -1.
        -24    2    1    2    0    0 -0.37014661557E+02 -0.12794069137E+02 -0.75953248016E+03  0.76464967553E+03  0.79156582125E+02 0.  0.
         25    2    1    2    0    0  0.42838926733E+02  0.58395974224E+02 -0.29141162661E+03  0.32529667805E+03  0.12510767035E+03 0.  0.
         24    2    1    2    0    0 -0.58242651750E+01 -0.45601905088E+02 -0.46509932807E+02  0.10335285138E+03  0.80032382359E+02 0.  0.
        -13    1    5    5    0    0  0.25291108352E+02 -0.18222546084E+02 -0.52915393804E+02  0.61414495430E+02  0.00000000000E+00 0.  1.
         14    1    5    5    0    0 -0.31115373527E+02 -0.27379359003E+02  0.64054609967E+01  0.41938355950E+02  0.00000000000E+00 0. -1.
         11    1    3    3    0    0 -0.43128583348E+02  0.18737712905E+02 -0.26996443297E+03  0.27402914380E+03  0.00000000000E+00 0. -1.
        -12    1    3    3    0    0  0.61139217909E+01 -0.31531782042E+02 -0.48956804719E+03  0.49062053173E+03  0.00000000000E+00 0.  1.
          5    1    4    4  501    0  0.74858585313E+02 -0.19168600867E+01 -0.13187627622E+03  0.15171126121E+03  0.41800000000E+01 0. -1.
         -5    1    4    4    0  501 -0.32019658581E+02  0.60312834311E+02 -0.15953535039E+03  0.17358541684E+03  0.41800000000E+01 0. -1.
</event>
<event>
11    1  0.6625361E-009  0.1487820E+03  0.7561462E-02  0.1098130E+00
         22   -1    0    0    0    0  0.00000000000E+00  0.00000000000E+00  0.13398396584E+03  0.13398396584E+03  0.00000000000E+00 0.  1.
         22   -1    0    0    0    0 -0.00000000000E+00 -0.00000000000E+00 -0.92880649341E+03  0.92880649341E+03  0.00000000000E+00 0.  1.
        -24    2    1    2    0    0 -0.68923166424E+02  0.31574695007E+02 -0.48163543345E+03  0.49430664563E+03  0.81357267152E+02 0.  0.
         25    2    1    2    0    0  0.95523030577E+02 -0.55929546867E+01 -0.40911969199E+03  0.43838940843E+03  0.12510164080E+03 0.  0.
         24    2    1    2    0    0 -0.26599864153E+02 -0.25981740321E+02  0.95932597875E+02  0.13009440520E+03  0.79617129603E+02 0.  0.
        -13    1    5    5    0    0 -0.17862409294E+02 -0.91475359163E+01  0.10650561842E+03  0.10837984053E+03  0.00000000000E+00 0.  1.
         14    1    5    5    0    0 -0.87374548595E+01 -0.16834204404E+02 -0.10573020543E+02  0.21714564668E+02  0.00000000000E+00 0. -1.
         13    1    3    3    0    0  0.74284325835E+00 -0.20442721540E+02 -0.15313977806E+03  0.15449999451E+03  0.00000000000E+00 0. -1.
        -14    1    3    3    0    0 -0.69666009683E+02  0.52017416548E+02 -0.32849565539E+03  0.33980665112E+03  0.00000000000E+00 0.  1.
          5    1    4    4  501    0  0.21900014983E+02  0.47413301167E+02 -0.24766253241E+03  0.25314390007E+03  0.41800000000E+01 0. -1.
         -5    1    4    4    0  501  0.73623015595E+02 -0.53006255853E+02 -0.16145715958E+03  0.18524550835E+03  0.41800000000E+01 0. -1.
</event>
<event>
11    1  0.6625361E-009  0.1373566E+03  0.7561462E-02  0.1110547E+00
         22   -1    0    0    0    0  0.00000000000E+00  0.00000000000E+00  0.83764783627E+03  0.83764783627E+03  0.00000000000E+00 0.  1.
         22   -1    0    0    0    0 -0.00000000000E+00 -0.00000000000E+00 -0.85328027854E+02  0.85328027854E+02  0.00000000000E+00 0.  1.
        -24    2    1    2    0    0 -0.20355969634E+02  0.26941459886E+02 -0.16798489114E+02  0.88393438134E+02  0.79943748399E+02 0.  0.
         25    2    1    2    0    0  0.30126268197E+02  0.31584216188E+02  0.12256421329E+03  0.18048711591E+03  0.12509379634E+03 0.  0.
         24    2    1    2    0    0 -0.97702985630E+01 -0.58525676074E+02  0.64655408424E+03  0.65409531008E+03  0.79295506372E+02 0.  0.
        -13    1    5    5    0    0  0.19328867343E+02 -0.37391838265E+02  0.53995205735E+03  0.54159023156E+03  0.00000000000E+00 0.  1.
         14    1    5    5    0    0 -0.29099165906E+02 -0.21133837809E+02  0.10660202689E+03  0.11250507852E+03  0.00000000000E+00 0. -1.
         13    1    3    3    0    0  0.31008223305E+02  0.11798545121E+02 -0.79670008735E+01  0.34120209296E+02  0.00000000000E+00 0. -1.
        -14    1    3    3    0    0 -0.51364192939E+02  0.15142914766E+02 -0.88314882409E+01  0.54273228838E+02  0.00000000000E+00 0.  1.
          5    1    4    4  501    0 -0.15451711155E+02  0.21920809534E+02  0.13027935127E+03  0.13307689144E+03  0.41800000000E+01 0. -1.
         -5    1    4    4    0  501  0.45577979352E+02  0.96634066536E+01 -0.77151379797E+01  0.47410224467E+02  0.41800000000E+01 0. -1.
</event>
<event>
11    1  0.6625361E-009  0.1295500E+03  0.7561462E-02  0.1119823E+00
         22   -1    0    0    0    0  0.00000000000E+00  0.00000000000E+00  0.26137505383E+03  0.26137505383E+03  0.00000000000E+00 0.  1.
         22   -1    0    0    0    0 -0.00000000000E+00 -0.00000000000E+00 -0.59929347272E+03  0.59929347272E+03  0.00000000000E+00 0. -1.
         24    2    1    2    0    0 -0.24930300467E+02  0.44440730152E+01 -0.32173301142E+03  0.33193948968E+03  0.77655807932E+02 0.  0.
         25    2    1    2    0    0  0.61231156763E+02 -0.21444369401E+02 -0.24680772638E+03  0.28420193990E+03  0.12509026063E+03 0.  0.
        -24    2    1    2    0    0 -0.36300856296E+02  0.17000296386E+02  0.23062231891E+03  0.24452709697E+03  0.70711278655E+02 0.  0.
        -13    1    3    3    0    0  0.25712138209E+02 -0.52275808947E+00 -0.59578704950E+02  0.64892290843E+02  0.00000000000E+00 0.  1.
         14    1    3    3    0    0 -0.50642438676E+02  0.49668311047E+01 -0.26215430647E+03  0.26704719884E+03  0.00000000000E+00 0. -1.
         13    1    5    5    0    0 -0.25273767718E+02 -0.25082063183E+02  0.76465425465E+02  0.84349478479E+02  0.00000000000E+00 0. -1.
        -14    1    5    5    0    0 -0.11027088578E+02  0.42082359569E+02  0.15415689344E+03  0.16017761849E+03  0.00000000000E+00 0.  1.
          5    1    4    4  501    0 -0.32784624049E+01 -0.55758527813E+02 -0.53308223955E+02  0.77323999385E+02  0.41800000000E+01 0. -1.
         -5    1    4    4    0  501  0.64509619168E+02  0.34314158412E+02 -0.19349950243E+03  0.20687794052E+03  0.41800000000E+01 0. -1.
</event>
<event>
11    1  0.6625361E-009  0.1543369E+03  0.7561462E-02  0.1092528E+00
         22   -1    0    0    0    0  0.00000000000E+00  0.00000000000E+00  0.10563942745E+04  0.10563942745E+04  0.00000000000E+00 0.  1.
         22   -1    0    0    0    0 -0.00000000000E+00 -0.00000000000E+00 -0.19107759844E+03  0.19107759844E+03  0.00000000000E+00 0.  1.
        -24    2    1    2    0    0  0.85988002303E+02 -0.23679938572E+02 -0.11534978297E+03  0.17227066393E+03  0.91743845498E+02 0.  0.
         25    2    1    2    0    0 -0.77451985935E+02  0.74951269673E+02  0.10805001860E+03  0.19732963038E+03  0.12509066134E+03 0.  0.
         24    2    1    2    0    0 -0.85360163676E+01 -0.51271331101E+02  0.87261644043E+03  0.87787157863E+03  0.80606721138E+02 0.  0.
        -11    1    5    5    0    0  0.90668029443E+01 -0.28982105323E+02  0.78859695497E+03  0.78918142827E+03  0.00000000000E+00 0.  1.
         12    1    5    5    0    0 -0.17602819312E+02 -0.22289225778E+02  0.84019485455E+02  0.88690150353E+02  0.00000000000E+00 0. -1.
         11    1    3    3    0    0 -0.82748090358E+01 -0.12393404340E+01  0.10508776674E+02  0.13432900524E+02  0.00000000000E+00 0. -1.
        -12    1    3    3    0    0  0.94262811338E+02 -0.22440598138E+02 -0.12585855965E+03  0.15883776340E+03  0.00000000000E+00 0.  1.
          5    1    4    4  501    0  0.21345189600E+01 -0.67281437295E+01 -0.22490770816E+02  0.23940160006E+02  0.41800000000E+01 0. -1.
         -5    1    4    4    0  501 -0.79586504895E+02  0.81679413403E+02  0.13054078941E+03  0.17338947037E+03  0.41800000000E+01 0. -1.
</event>
<event>
11    1  0.6625361E-009  0.1665401E+03  0.7561462E-02  0.1081082E+00
         22   -1    0    0    0    0  0.00000000000E+00  0.00000000000E+00  0.23966733639E+04  0.23966733639E+04  0.00000000000E+00 0. -1.
         22   -1    0    0    0    0 -0.00000000000E+00 -0.00000000000E+00 -0.76406313296E+03  0.76406313296E+03  0.00000000000E+00 0. -1.
         24    2    1    2    0    0 -0.15761432778E+02 -0.27164298014E+02 -0.73204371536E+03  0.73723378388E+03  0.81482078087E+02 0.  0.
         25    2    1    2    0    0  0.43262255087E+02 -0.81285412447E+02  0.19754782646E+03  0.25129686994E+03  0.12508410014E+03 0.  0.
        -24    2    1    2    0    0 -0.27500822310E+02  0.10844971046E+03  0.21671061198E+04  0.21722058430E+04  0.98039048191E+02 0.  0.
        -11    1    3    3    0    0 -0.44540476400E+02 -0.85958126657E+01 -0.25824747214E+03  0.26220125648E+03  0.00000000000E+00 0.  1.
         12    1    3    3    0    0  0.28779043623E+02 -0.18568485348E+02 -0.47379624323E+03  0.47503252741E+03  0.00000000000E+00 0. -1.
         11    1    5    5    0    0  0.86672059456E+01  0.45436592101E+02  0.15720838247E+04  0.15727641769E+04  0.00000000000E+00 0. -1.
        -12    1    5    5    0    0 -0.36168028255E+02  0.63013118361E+02  0.59502229513E+03  0.59944166610E+03  0.00000000000E+00 0.  1.
          5    1    4    4  501    0  0.72270997059E+02 -0.63544771791E+02  0.69592295145E+02  0.11883431736E+03  0.41800000000E+01 0.  1.
         -5    1    4    4    0  501 -0.29008741972E+02 -0.17740640657E+02  0.12795553132E+03  0.13246255258E+03  0.41800000000E+01 0.  1.
</event>
<event>
11    1  0.6625361E-009  0.1539164E+03  0.7561462E-02  0.1092943E+00
         22   -1    0    0    0    0  0.00000000000E+00  0.00000000000E+00  0.83440941479E+03  0.83440941479E+03  0.00000000000E+00 0.  1.
         22   -1    0    0    0    0 -0.00000000000E+00 -0.00000000000E+00 -0.19228901302E+03  0.19228901302E+03  0.00000000000E+00 0.  1.
         24    2    1    2    0    0 -0.30010546388E+02  0.19028598003E+02 -0.83868692462E+02  0.11998051461E+03  0.78093827374E+02 0.  0.
         25    2    1    2    0    0  0.98569910918E+02 -0.73887639151E+02  0.44895133136E+01  0.17562175100E+03  0.12508970036E+03 0.  0.
        -24    2    1    2    0    0 -0.68559364529E+02  0.54859041148E+02  0.72149958092E+03  0.73109616221E+03  0.78930680148E+02 0.  0.
        -11    1    3    3    0    0  0.10423396014E+02  0.34215270485E+02 -0.61977007101E+02  0.71557538583E+02  0.00000000000E+00 0.  1.
         12    1    3    3    0    0 -0.40433942403E+02 -0.15186672481E+02 -0.21891685361E+02  0.48422976026E+02  0.00000000000E+00 0. -1.
         13    1    5    5    0    0 -0.15680983886E+02  0.61719407187E+02  0.44093051715E+03  0.44550521819E+03  0.00000000000E+00 0. -1.
        -14    1    5    5    0    0 -0.52878380643E+02 -0.68603660392E+01  0.28056906377E+03  0.28559094402E+03  0.00000000000E+00 0.  1.
          5    1    4    4  501    0  0.91816315069E+02 -0.93933329717E+02 -0.30136669694E+02  0.13483099571E+03  0.41800000000E+01 0.  1.
         -5    1    4    4    0  501  0.67535958484E+01  0.20045690566E+02  0.34626183008E+02  0.40790755286E+02  0.41800000000E+01 0.  1.
</event>
<event>
11    1  0.6625361E-009  0.1416661E+03  0.7561462E-02  0.1105712E+00
         22   -1    0    0    0    0  0.00000000000E+00  0.00000000000E+00  0.34954907887E+03  0.34954907887E+03  0.00000000000E+00 0.  1.
         22   -1    0    0    0    0 -0.00000000000E+00 -0.00000000000E+00 -0.30588308790E+03  0.30588308790E+03  0.00000000000E+00 0. -1.
        -24    2    1    2    0    0  0.18952502903E+02 -0.65090065335E+02 -0.20660456914E+03  0.23157485379E+03  0.79658966508E+02 0.  0.
         25    2    1    2    0    0 -0.17135930349E+02  0.57861415484E+02 -0.22216401123E+02  0.14065089099E+03  0.12509005215E+03 0.  0.
         24    2    1    2    0    0 -0.18165725543E+01  0.72286498509E+01  0.27248696124E+03  0.28320642199E+03  0.76819138886E+02 0.  0.
        -11    1    5    5    0    0 -0.22248530349E+02  0.26359561198E+02  0.22836269099E+03  0.23095311690E+03  0.00000000000E+00 0.  1.
         12    1    5    5    0    0  0.20431957795E+02 -0.19130911347E+02  0.44124270242E+02  0.52253305089E+02  0.00000000000E+00 0. -1.
         11    1    3    3    0    0  0.30735265417E+02 -0.73481192139E+02 -0.20074252753E+03  0.21596690603E+03  0.00000000000E+00 0. -1.
        -12    1    3    3    0    0 -0.11782762513E+02  0.83911268035E+01 -0.58620416066E+01  0.15607947760E+02  0.00000000000E+00 0.  1.
          5    1    4    4  501    0 -0.16383834198E+02 -0.35006394173E+02 -0.27368271252E+02  0.47543373117E+02  0.41800000000E+01 0. -1.
         -5    1    4    4    0  501 -0.75209615152E+00  0.92867809657E+02  0.51518701295E+01  0.93107517876E+02  0.41800000000E+01 0. -1.
</event>
<event>
11    1  0.6625361E-009  0.1520384E+03  0.7561462E-02  0.1094814E+00
         22   -1    0    0    0    0  0.00000000000E+00  0.00000000000E+00  0.18660145000E+04  0.18660145000E+04  0.00000000000E+00 0. -1.
         22   -1    0    0    0    0 -0.00000000000E+00 -0.00000000000E+00 -0.69225603191E+03  0.69225603191E+03  0.00000000000E+00 0. -1.
        -24    2    1    2    0    0 -0.86204313234E+02 -0.21517654853E+01 -0.65588032587E+03  0.66619762298E+03  0.78768377450E+02 0.  0.
         25    2    1    2    0    0  0.92578324898E+02  0.40076107485E+02  0.18548330518E+03  0.24541889713E+03  0.12509811324E+03 0.  0.
         24    2    1    2    0    0 -0.63740116642E+01 -0.37924342000E+02  0.16441554888E+04  0.16466540118E+04  0.82117474021E+02 0.  0.
        -13    1    5    5    0    0 -0.18104634907E+01  0.96111746639E+01  0.25759908329E+02  0.27554043870E+02  0.00000000000E+00 0.  1.
         14    1    5    5    0    0 -0.45635481736E+01 -0.47535516664E+02  0.16183955805E+04  0.16190999680E+04  0.00000000000E+00 0. -1.
         11    1    3    3    0    0 -0.31734033408E+02 -0.57555762257E+01 -0.49992525670E+03  0.50096450755E+03  0.00000000000E+00 0. -1.
        -12    1    3    3    0    0 -0.54470279826E+02  0.36038107404E+01 -0.15595506916E+03  0.16523311543E+03  0.00000000000E+00 0.  1.
          5    1    4    4  501    0  0.10123495745E+02 -0.29624814973E+02  0.97256603624E+00  0.31599574570E+02  0.41800000000E+01 0. -1.
         -5    1    4    4    0  501  0.82454829153E+02  0.69700922458E+02  0.18451073914E+03  0.21381932256E+03  0.41800000000E+01 0. -1.
</event>
<event>
11    1  0.6625361E-009  0.1298938E+03  0.7561462E-02  0.1119400E+00
         22   -1    0    0    0    0  0.00000000000E+00  0.00000000000E+00  0.75743496303E+03  0.75743496303E+03  0.00000000000E+00 0. -1.
         22   -1    0    0    0    0 -0.00000000000E+00 -0.00000000000E+00 -0.36033248224E+03  0.36033248224E+03  0.00000000000E+00 0.  1.
        -24    2    1    2    0    0 -0.23419239150E+02 -0.26536449688E+02 -0.33853423339E+03  0.34958182370E+03  0.79682999201E+02 0.  0.
         25    2    1    2    0    0  0.77913397518E+01  0.47015315559E+01  0.31435112504E+03  0.33845304266E+03  0.12510404829E+03 0.  0.
         24    2    1    2    0    0  0.15627899399E+02  0.21834918132E+02  0.42128558914E+03  0.42973257891E+03  0.80421059851E+02 0.  0.
        -13    1    5    5    0    0 -0.17037728042E+02  0.31881535315E+02  0.94717018297E+02  0.10138061958E+03  0.00000000000E+00 0.  1.
         14    1    5    5    0    0  0.32665627441E+02 -0.10046617183E+02  0.32656857085E+03  0.32835195933E+03  0.00000000000E+00 0. -1.
         13    1    3    3    0    0  0.17640761485E+02 -0.25257961574E+02 -0.54608698899E+02  0.62699849155E+02  0.00000000000E+00 0. -1.
        -14    1    3    3    0    0 -0.41060000636E+02 -0.12784881140E+01 -0.28392553449E+03  0.28688197454E+03  0.00000000000E+00 0.  1.
          5    1    4    4  501    0 -0.23896747053E+02  0.20369146167E+02  0.11781793110E+02  0.33797036618E+02  0.41800000000E+01 0.  1.
         -5    1    4    4    0  501  0.31688086805E+02 -0.15667614611E+02  0.30256933193E+03  0.30465600604E+03  0.41800000000E+01 0.  1.
</event>
<event>
11    1  0.8175387E-009  0.1903686E+03  0.7561462E-02  0.1061551E+00
         22   -1    0    0    0    0  0.00000000000E+00  0.00000000000E+00  0.64797841860E+03  0.64797841860E+03  0.00000000000E+00 0.  1.
         22   -1    0    0    0    0 -0.00000000000E+00 -0.00000000000E+00 -0.56053797410E+03  0.56053797410E+03  0.00000000000E+00 0. -1.
        -24    2    1    2    0    0 -0.24711267427E+02  0.74170989973E+02 -0.34765228483E+03  0.36433230666E+03  0.75920590303E+02 0.  0.
         25    2    1    2    0    0 -0.98656787814E+02 -0.14556680183E+03 -0.13253679580E+03  0.25325127443E+03  0.12508936878E+03 0.  0.
         24    2    1    2    0    0  0.12336805524E+03  0.71395811855E+02  0.56762952514E+03  0.59093281161E+03  0.81739042238E+02 0.  0.
        -13    1    5    5    0    0  0.11190379118E+03  0.47773551261E+02  0.53689329413E+03  0.55050811071E+03  0.00000000000E+00 0.  1.
         14    1    5    5    0    0  0.11464264065E+02  0.23622260595E+02  0.30736231011E+02  0.40424700901E+02  0.00000000000E+00 0. -1.
         13    1    3    3    0    0 -0.42488552635E+02  0.77721132354E+02 -0.31208396833E+03  0.32441062685E+03  0.00000000000E+00 0. -1.
        -14    1    3    3    0    0  0.17777285208E+02 -0.35501423807E+01 -0.35568316502E+02  0.39921679812E+02  0.00000000000E+00 0.  1.
          5    1    4    4  501    0  0.25794831631E+02 -0.71445993813E+01 -0.49426438267E+01  0.27537624575E+02  0.41800000000E+01 0.  1.
         -5    1    4    4    0  501 -0.12445161945E+03 -0.13842220245E+03 -0.12759415198E+03  0.22571364986E+03  0.41800000000E+01 0.  1.
</event>
<event>
11    1  0.6625361E-009  0.1343856E+03  0.7561462E-02  0.1113995E+00
         22   -1    0    0    0    0  0.00000000000E+00  0.00000000000E+00  0.70094454119E+03  0.70094454119E+03  0.00000000000E+00 0. -1.
         22   -1    0    0    0    0 -0.00000000000E+00 -0.00000000000E+00 -0.67726964099E+02  0.67726964099E+02  0.00000000000E+00 0.  1.
        -24    2    1    2    0    0  0.24618009130E+02  0.16754038716E+02  0.23154016319E+02  0.88787763015E+02  0.80376701865E+02 0.  0.
         25    2    1    2    0    0 -0.25489150127E+02  0.34444893655E+02  0.11451585884E+03  0.17491965020E+03  0.12508738796E+03 0.  0.
         24    2    1    2    0    0  0.87114099716E+00 -0.51198932371E+02  0.49554770193E+03  0.50496409207E+03  0.82456775535E+02 0.  0.
        -13    1    5    5    0    0  0.10147649948E+02 -0.21286940573E+01  0.43660784333E+01  0.11250279052E+02  0.00000000000E+00 0.  1.
         14    1    5    5    0    0 -0.92765089507E+01 -0.49070238314E+02  0.49118162350E+03  0.49371381302E+03  0.00000000000E+00 0. -1.
         13    1    3    3    0    0 -0.14788237213E+02 -0.21647982531E+02  0.21223184837E+02  0.33730560063E+02  0.00000000000E+00 0. -1.
        -14    1    3    3    0    0  0.39406246343E+02  0.38402021247E+02  0.19308314823E+01  0.55057202952E+02  0.00000000000E+00 0.  1.
          5    1    4    4  501    0 -0.39990044095E+02  0.24753502347E+02 -0.10709896361E+02  0.48416048840E+02  0.41800000000E+01 0.  1.
         -5    1    4    4    0  501  0.14500893968E+02  0.96913913072E+01  0.12522575520E+03  0.12650360136E+03  0.41800000000E+01 0.  1.
</event>
<event>
11    1  0.6625361E-009  0.2879431E+03  0.7561462E-02  0.1005427E+00
         22   -1    0    0    0    0  0.00000000000E+00  0.00000000000E+00  0.19295243042E+03  0.19295243042E+03  0.00000000000E+00 0.  1.
         22   -1    0    0    0    0 -0.00000000000E+00 -0.00000000000E+00 -0.90743157269E+03  0.90743157269E+03  0.00000000000E+00 0.  1.
         24    2    1    2    0    0 -0.37277037274E+02  0.43611041275E+02 -0.48095615482E+03  0.49120803514E+03  0.81700737474E+02 0.  0.
         25    2    1    2    0    0 -0.15183848746E+03 -0.21741498032E+03 -0.11748778188E+03  0.31587134895E+03  0.12508848970E+03 0.  0.
        -24    2    1    2    0    0  0.18911552473E+03  0.17380393905E+03 -0.11603520558E+03  0.29330461902E+03  0.81184602492E+02 0.  0.
        -11    1    3    3    0    0 -0.22374160852E+02 -0.18494689848E+02 -0.24667196352E+03  0.24837414159E+03  0.00000000000E+00 0.  1.
         12    1    3    3    0    0 -0.14902876422E+02  0.62105731123E+02 -0.23428419130E+03  0.24283389355E+03  0.00000000000E+00 0. -1.
         13    1    5    5    0    0  0.61239441225E+02  0.27686259650E+02 -0.62765854309E+02  0.91958417788E+02  0.00000000000E+00 0. -1.
        -14    1    5    5    0    0  0.12787608351E+03  0.14611767940E+03 -0.53269351267E+02  0.20134620123E+03  0.00000000000E+00 0.  1.
          5    1    4    4  501    0 -0.36374738192E+02 -0.15989356716E+03 -0.61443740980E+02  0.17516243919E+03  0.41800000000E+01 0.  1.
         -5    1    4    4    0  501 -0.11546374927E+03 -0.57521413169E+02 -0.56044040899E+02  0.14070890977E+03  0.41800000000E+01 0.  1.
</event>
<event>
11    1  0.6625361E-009  0.1709089E+03  0.7561462E-02  0.1077243E+00
         22   -1    0    0    0    0  0.00000000000E+00  0.00000000000E+00  0.93043568164E+03  0.93043568164E+03  0.00000000000E+00 0.  1.
         22   -1    0    0    0    0 -0.00000000000E+00 -0.00000000000E+00 -0.35936904420E+03  0.35936904420E+03  0.00000000000E+00 0. -1.
        -24    2    1    2    0    0 -0.56026428735E+02 -0.10320562379E+03 -0.31972752509E+03  0.35043859198E+03  0.82408464059E+02 0.  0.
         25    2    1    2    0    0  0.28997330712E+02  0.94904741699E+02  0.27626995495E+03  0.31909717940E+03  0.12510062632E+03 0.  0.
         24    2    1    2    0    0  0.27029098023E+02  0.83008820915E+01  0.61452420759E+03  0.62026895446E+03  0.79335347612E+02 0.  0.
        -13    1    5    5    0    0  0.43891628773E+02 -0.17484323212E+02  0.47709258775E+03  0.47942623408E+03  0.00000000000E+00 0.  1.
         14    1    5    5    0    0 -0.16862530750E+02  0.25785205303E+02  0.13743161983E+03  0.14084272039E+03  0.00000000000E+00 0. -1.
         13    1    3    3    0    0 -0.74971882262E+02 -0.97811623999E+02 -0.28518635066E+03  0.31067531528E+03  0.00000000000E+00 0. -1.
        -14    1    3    3    0    0  0.18945453526E+02 -0.53939997910E+01 -0.34541174432E+02  0.39763276704E+02  0.00000000000E+00 0.  1.
          5    1    4    4  501    0 -0.27831671766E+02  0.95379327831E+02  0.14323933813E+03  0.17437545274E+03  0.41800000000E+01 0.  1.
         -5    1    4    4    0  501  0.56829002478E+02 -0.47458613247E+00  0.13303061682E+03  0.14472172665E+03  0.41800000000E+01 0.  1.
</event>
<event>
11    1  0.6625361E-009  0.2399259E+03  0.7561462E-02  0.1029407E+00
         22   -1    0    0    0    0  0.00000000000E+00  0.00000000000E+00  0.68869376029E+03  0.68869376029E+03  0.00000000000E+00 0. -1.
         22   -1    0    0    0    0 -0.00000000000E+00 -0.00000000000E+00 -0.33434862074E+03  0.33434862074E+03  0.00000000000E+00 0. -1.
        -24    2    1    2    0    0 -0.35761300965E+02 -0.56490884885E+02 -0.16241416554E+03  0.19312977830E+03  0.80315997020E+02 0.  0.
         25    2    1    2    0    0  0.20864645382E+03 -0.52784108245E+02 -0.20212734191E+02  0.24974894198E+03  0.12508586900E+03 0.  0.
         24    2    1    2    0    0 -0.17288515285E+03  0.10927499313E+03  0.53697203928E+03  0.58016366074E+03  0.80128659488E+02 0.  0.
        -13    1    5    5    0    0  0.74217629258E+01  0.99358765596E+00  0.82322658765E+01  0.11128341423E+02  0.00000000000E+00 0.  1.
         14    1    5    5    0    0 -0.18030691578E+03  0.10828140547E+03  0.52873977341E+03  0.56903531932E+03  0.00000000000E+00 0. -1.
         11    1    3    3    0    0 -0.57267657671E+02 -0.20743891029E+02 -0.11375654581E+03  0.12903660467E+03  0.00000000000E+00 0. -1.
        -12    1    3    3    0    0  0.21506356706E+02 -0.35746993856E+02 -0.48657619730E+02  0.64093173632E+02  0.00000000000E+00 0.  1.
          5    1    4    4  501    0  0.60284693978E+02 -0.32242400449E+02 -0.63902318068E+02  0.93673877731E+02  0.41800000000E+01 0. -1.
         -5    1    4    4    0  501  0.14836175984E+03 -0.20541707795E+02  0.43689583877E+02  0.15607506425E+03  0.41800000000E+01 0. -1.
</event>
<event>
11    1  0.6625361E-009  0.1378389E+03  0.7561462E-02  0.1109996E+00
         22   -1    0    0    0    0  0.00000000000E+00  0.00000000000E+00  0.13005388676E+03  0.13005388676E+03  0.00000000000E+00 0. -1.
         22   -1    0    0    0    0 -0.00000000000E+00 -0.00000000000E+00 -0.11919240510E+04  0.11919240510E+04  0.00000000000E+00 0.  1.
        -24    2    1    2    0    0 -0.13178597501E+02 -0.78569962986E+01 -0.87430368331E+03  0.87810127860E+03  0.80121888447E+02 0.  0.
         25    2    1    2    0    0  0.18704433812E+02  0.64752820054E+02 -0.27406787106E+03  0.30871727063E+03  0.12510144559E+03 0.  0.
         24    2    1    2    0    0 -0.55258363112E+01 -0.56895823756E+02  0.86501390158E+02  0.13515938851E+03  0.86705825497E+02 0.  0.
        -11    1    5    5    0    0  0.11052427826E+02 -0.41970829339E+00 -0.14513431997E+02  0.18247521043E+02  0.00000000000E+00 0.  1.
         12    1    5    5    0    0 -0.16578264137E+02 -0.56476115462E+02  0.10101482215E+03  0.11691186747E+03  0.00000000000E+00 0. -1.
         13    1    3    3    0    0 -0.81265202807E+01 -0.41565211991E+02 -0.32605873853E+03  0.32879782261E+03  0.00000000000E+00 0. -1.
        -14    1    3    3    0    0 -0.50520772205E+01  0.33708215692E+02 -0.54824494478E+03  0.54930345599E+03  0.00000000000E+00 0.  1.
          5    1    4    4  501    0  0.47780724695E+02  0.87069924479E+02 -0.15564115724E+03  0.18467758832E+03  0.41800000000E+01 0. -1.
         -5    1    4    4    0  501 -0.29076290883E+02 -0.22317104425E+02 -0.11842671382E+03  0.12403968231E+03  0.41800000000E+01 0. -1.
</event>
<event>
11    1  0.6625361E-009  0.1522615E+03  0.7561462E-02  0.1094590E+00
         22   -1    0    0    0    0  0.00000000000E+00  0.00000000000E+00  0.44903737307E+03  0.44903737307E+03  0.00000000000E+00 0. -1.
         22   -1    0    0    0    0 -0.00000000000E+00 -0.00000000000E+00 -0.60260453903E+03  0.60260453903E+03  0.00000000000E+00 0. -1.
         24    2    1    2    0    0  0.57364108542E+02  0.47960761887E+01 -0.53755272837E+03  0.54682519317E+03  0.82104889087E+02 0.  0.
         25    2    1    2    0    0 -0.13310674359E+03 -0.14502352471E+02  0.12032933275E+03  0.21921383007E+03  0.12509129289E+03 0.  0.
        -24    2    1    2    0    0  0.75742635048E+02  0.97062762825E+01  0.26365622966E+03  0.28560288887E+03  0.78887541020E+02 0.  0.
        -13    1    3    3    0    0  0.56570877930E+02 -0.17113945106E+02 -0.19971522974E+03  0.20827703747E+03  0.00000000000E+00 0.  1.
         14    1    3    3    0    0  0.79323061235E+00  0.21910021295E+02 -0.33783749863E+03  0.33854815570E+03  0.00000000000E+00 0. -1.
         13    1    5    5    0    0  0.23659104591E+02  0.27672681586E+02  0.19089457866E+03  0.19433545918E+03  0.00000000000E+00 0. -1.
        -14    1    5    5    0    0  0.52083530457E+02 -0.17966405303E+02  0.72761651007E+02  0.91267429687E+02  0.00000000000E+00 0.  1.
          5    1    4    4  501    0 -0.69181686799E+02 -0.11392698945E+02 -0.12842277646E+02  0.71402352011E+02  0.41800000000E+01 0.  1.
         -5    1    4    4    0  501 -0.63925056791E+02 -0.31096535262E+01  0.13317161039E+03  0.14781147806E+03  0.41800000000E+01 0.  1.
</event>
<event>
11    1  0.6625361E-009  0.1625854E+03  0.7561462E-02  0.1084671E+00
         22   -1    0    0    0    0  0.00000000000E+00  0.00000000000E+00  0.31845982927E+03  0.31845982927E+03  0.00000000000E+00 0.  1.
         22   -1    0    0    0    0 -0.00000000000E+00 -0.00000000000E+00 -0.61618608542E+03  0.61618608542E+03  0.00000000000E+00 0.  1.
        -24    2    1    2    0    0 -0.13666823548E+02  0.46344202931E+02 -0.53586119268E+03  0.54289181835E+03  0.72455099129E+02 0.  0.
         25    2    1    2    0    0  0.10479687598E+03  0.93905353934E+01  0.77179946752E+02  0.18075929249E+03  0.12508641121E+03 0.  0.
         24    2    1    2    0    0 -0.91130052435E+02 -0.55734738325E+02  0.16095498979E+03  0.21099480386E+03  0.84860185027E+02 0.  0.
        -11    1    5    5    0    0 -0.69456097118E+02  0.56511222994E+01  0.66843273977E+02  0.96561420278E+02  0.00000000000E+00 0.  1.
         12    1    5    5    0    0 -0.21673955317E+02 -0.61385860624E+02  0.94111715816E+02  0.11443338358E+03  0.00000000000E+00 0. -1.
         13    1    3    3    0    0 -0.18614817968E+02 -0.57504082668E+00 -0.33571544781E+02  0.38391284674E+02  0.00000000000E+00 0. -1.
        -14    1    3    3    0    0  0.49479944200E+01  0.46919243758E+02 -0.50228964790E+03  0.50450053367E+03  0.00000000000E+00 0.  1.
          5    1    4    4  501    0 -0.54579796784E+01  0.11898635721E+02  0.68711636042E+02  0.70072308381E+02  0.41800000000E+01 0.  1.
         -5    1    4    4    0  501  0.11025485566E+03 -0.25081003278E+01  0.84683107095E+01  0.11068698411E+03  0.41800000000E+01 0.  1.
</event>
<event>
11    1  0.6625361E-009  0.1396334E+03  0.7561462E-02  0.1107968E+00
         22   -1    0    0    0    0  0.00000000000E+00  0.00000000000E+00  0.34288929311E+04  0.34288929311E+04  0.00000000000E+00 0. -1.
         22   -1    0    0    0    0 -0.00000000000E+00 -0.00000000000E+00 -0.53190945996E+02  0.53190945996E+02  0.00000000000E+00 0.  1.
        -24    2    1    2    0    0 -0.34682521566E+02 -0.48926905425E+01 -0.90430668629E+01  0.87897165589E+02  0.80108170229E+02 0.  0.
         25    2    1    2    0    0  0.38832003596E+02  0.64023806770E+02  0.15562944284E+04  0.15631080828E+04  0.12509020085E+03 0.  0.
         24    2    1    2    0    0 -0.41494820293E+01 -0.59131116227E+02  0.18284506235E+04  0.18310786287E+04  0.78125249003E+02 0.  0.
        -13    1    5    5    0    0  0.27530536400E+02 -0.17964452825E+02  0.30967174221E+03  0.31141168880E+03  0.00000000000E+00 0.  1.
         14    1    5    5    0    0 -0.31680018429E+02 -0.41166663402E+02  0.15187788813E+04  0.15196669399E+04  0.00000000000E+00 0. -1.
         11    1    3    3    0    0  0.32469949112E+01  0.32349919793E+02 -0.12004306561E+02  0.34657808104E+02  0.00000000000E+00 0. -1.
        -12    1    3    3    0    0 -0.37929516478E+02 -0.37242610336E+02  0.29612396979E+01  0.53239357485E+02  0.00000000000E+00 0.  1.
          5    1    4    4  501    0  0.11330665260E+02  0.35041824324E+02  0.14320751921E+04  0.14325547604E+04  0.41800000000E+01 0.  1.
         -5    1    4    4    0  501  0.27501338336E+02  0.28981982445E+02  0.12421923637E+03  0.13055332244E+03  0.41800000000E+01 0.  1.
</event>
<event>
11    1  0.6625361E-009  0.2137318E+03  0.7561462E-02  0.1045217E+00
         22   -1    0    0    0    0  0.00000000000E+00  0.00000000000E+00  0.27854451312E+03  0.27854451312E+03  0.00000000000E+00 0. -1.
         22   -1    0    0    0    0 -0.00000000000E+00 -0.00000000000E+00 -0.73900140343E+03  0.73900140343E+03  0.00000000000E+00 0.  1.
         24    2    1    2    0    0 -0.70530646158E+00 -0.12380835062E+02 -0.55324176049E+03  0.55920940425E+03  0.80529061383E+02 0.  0.
         25    2    1    2    0    0 -0.59562649434E+02  0.17164128986E+03 -0.43443656409E+02  0.22481802436E+03  0.12508937286E+03 0.  0.
        -24    2    1    2    0    0  0.60267955896E+02 -0.15926045480E+03  0.13622852659E+03  0.23351848794E+03  0.83525767173E+02 0.  0.
        -13    1    3    3    0    0 -0.11962885245E+02 -0.45094391308E+02 -0.29678394697E+03  0.30042857043E+03  0.00000000000E+00 0.  1.
         14    1    3    3    0    0  0.11257578783E+02  0.32713556246E+02 -0.25645781351E+03  0.25878083382E+03  0.00000000000E+00 0. -1.
         11    1    5    5    0    0  0.26010142106E+02 -0.13773632304E+03  0.13250844353E+03  0.19288937188E+03  0.00000000000E+00 0. -1.
        -12    1    5    5    0    0  0.34257813789E+02 -0.21524131759E+02  0.37200830535E+01  0.40629116056E+02  0.00000000000E+00 0.  1.
          5    1    4    4  501    0 -0.45413517176E+02  0.18043813462E+03 -0.65106363696E+02  0.19717154704E+03  0.41800000000E+01 0.  1.
         -5    1    4    4    0  501 -0.14149132258E+02 -0.87968447585E+01  0.21662707287E+02  0.27646477323E+02  0.41800000000E+01 0.  1.
</event>
<event>
11    1  0.6625361E-009  0.1314509E+03  0.7561462E-02  0.1117499E+00
         22   -1    0    0    0    0  0.00000000000E+00  0.00000000000E+00  0.29356400937E+02  0.29356400937E+02  0.00000000000E+00 0. -1.
         22   -1    0    0    0    0 -0.00000000000E+00 -0.00000000000E+00 -0.49749445984E+04  0.49749445984E+04  0.00000000000E+00 0. -1.
        -24    2    1    2    0    0 -0.47479158259E+02  0.79859949185E+01 -0.27351999634E+04  0.27369009116E+04  0.83604504430E+02 0.  0.
         25    2    1    2    0    0  0.18038746103E+02 -0.22869325631E+02 -0.21663172088E+04  0.21701212863E+04  0.12509094844E+03 0.  0.
         24    2    1    2    0    0  0.29440412156E+02  0.14883330712E+02 -0.44071025221E+02  0.97278801538E+02  0.80203856289E+02 0.  0.
        -13    1    5    5    0    0 -0.10509042563E+02 -0.61906669551E+01 -0.50233644648E+02  0.51693165772E+02  0.00000000000E+00 0.  1.
         14    1    5    5    0    0  0.39949454719E+02  0.21073997667E+02  0.61626194270E+01  0.45585635766E+02  0.00000000000E+00 0. -1.
         13    1    3    3    0    0 -0.38284679852E+02  0.31727349857E+02 -0.24656394171E+04  0.24661407253E+04  0.00000000000E+00 0. -1.
        -14    1    3    3    0    0 -0.91944784072E+01 -0.23741354938E+02 -0.26956054628E+03  0.27076018628E+03  0.00000000000E+00 0.  1.
          5    1    4    4  501    0  0.29864904580E+02 -0.53500731993E+02 -0.54224140030E+03  0.54570820907E+03  0.41800000000E+01 0.  1.
         -5    1    4    4    0  501 -0.11826158476E+02  0.30631406363E+02 -0.16240758085E+04  0.16244130772E+04  0.41800000000E+01 0.  1.
</event>
<event>
11    1  0.6625361E-009  0.1655667E+03  0.7561462E-02  0.1081955E+00
         22   -1    0    0    0    0  0.00000000000E+00  0.00000000000E+00  0.11090111213E+03  0.11090111213E+03  0.00000000000E+00 0. -1.
         22   -1    0    0    0    0 -0.00000000000E+00 -0.00000000000E+00 -0.10498262058E+04  0.10498262058E+04  0.00000000000E+00 0.  1.
        -24    2    1    2    0    0  0.50362845293E+02 -0.92758712573E+02 -0.72285562208E+03  0.73486775190E+03  0.79810822982E+02 0.  0.
         25    2    1    2    0    0 -0.20561794998E+02  0.12520903566E+03 -0.27367713684E+03  0.32656675940E+03  0.12508630257E+03 0.  0.
         24    2    1    2    0    0 -0.29801050294E+02 -0.32450323084E+02  0.57607665239E+02  0.99292806652E+02  0.67818082335E+02 0.  0.
        -13    1    5    5    0    0 -0.41151583163E+02 -0.16078249797E+02  0.67772101038E+01  0.44697801849E+02  0.00000000000E+00 0.  1.
         14    1    5    5    0    0  0.11350532869E+02 -0.16372073287E+02  0.50830455136E+02  0.54595004803E+02  0.00000000000E+00 0. -1.
         13    1    3    3    0    0  0.19797286370E+02  0.62387213073E+01 -0.50872845973E+02  0.54944523372E+02  0.00000000000E+00 0. -1.
        -14    1    3    3    0    0  0.30565558923E+02 -0.98997433881E+02 -0.67198277611E+03  0.67992322853E+03  0.00000000000E+00 0.  1.
          5    1    4    4  501    0  0.35406870098E+02  0.10347946951E+03 -0.22086513691E+03  0.24649650741E+03  0.41800000000E+01 0. -1.
         -5    1    4    4    0  501 -0.55968665096E+02  0.21729566148E+02 -0.52811999924E+02  0.80070251989E+02  0.41800000000E+01 0. -1.
</event>
<event>
11    1  0.6625361E-009  0.1386419E+03  0.7561462E-02  0.1109084E+00
         22   -1    0    0    0    0  0.00000000000E+00  0.00000000000E+00  0.23521753033E+04  0.23521753033E+04  0.00000000000E+00 0.  1.
         22   -1    0    0    0    0 -0.00000000000E+00 -0.00000000000E+00 -0.36036428850E+03  0.36036428850E+03  0.00000000000E+00 0.  1.
        -24    2    1    2    0    0  0.48198962086E+02  0.41619536618E+02 -0.29032836492E+03  0.30921001231E+03  0.85234655293E+02 0.  0.
         25    2    1    2    0    0 -0.32468908109E+01 -0.40626701877E+02  0.12818797709E+02  0.13218764648E+03  0.12509269004E+03 0.  0.
         24    2    1    2    0    0 -0.44952071275E+02 -0.99283474110E+00  0.22693205820E+04  0.22711419330E+04  0.79044933271E+02 0.  0.
        -11    1    5    5    0    0 -0.52602721413E+02  0.25918166914E+02  0.18246623279E+04  0.18256043954E+04  0.00000000000E+00 0.  1.
         12    1    5    5    0    0  0.76506501371E+01 -0.26911001655E+02  0.44465825413E+03  0.44553753762E+03  0.00000000000E+00 0. -1.
         13    1    3    3    0    0  0.16781021110E+02  0.47721124089E+02 -0.68873904436E+02  0.85454801305E+02  0.00000000000E+00 0. -1.
        -14    1    3    3    0    0  0.31417940976E+02 -0.61015874712E+01 -0.22145446048E+03  0.22375521101E+03  0.00000000000E+00 0.  1.
          5    1    4    4  501    0 -0.54636282798E+02 -0.76558399467E+01 -0.24496800156E+02  0.60508684511E+02  0.41800000000E+01 0. -1.
         -5    1    4    4    0  501  0.51389391988E+02 -0.32970861930E+02  0.37315597866E+02  0.71678961972E+02  0.41800000000E+01 0. -1.
</event>
<event>
11    1  0.6625361E-009  0.1444929E+03  0.7561462E-02  0.1102643E+00
         22   -1    0    0    0    0  0.00000000000E+00  0.00000000000E+00  0.25783412357E+03  0.25783412357E+03  0.00000000000E+00 0. -1.
         22   -1    0    0    0    0 -0.00000000000E+00 -0.00000000000E+00 -0.58568319386E+03  0.58568319386E+03  0.00000000000E+00 0. -1.
         24    2    1    2    0    0 -0.42761751123E+02 -0.37196809238E+01 -0.42073844311E+03  0.43067292363E+03  0.81338344307E+02 0.  0.
         25    2    1    2    0    0  0.86948364429E+02  0.57671088921E+02 -0.10110607247E+03  0.19171770718E+03  0.12508904341E+03 0.  0.
        -24    2    1    2    0    0 -0.44186613306E+02 -0.53951407997E+02  0.19399544529E+03  0.22112668661E+03  0.79997296929E+02 0.  0.
        -13    1    3    3    0    0 -0.86966078072E+01 -0.37174501376E+02 -0.26628853808E+03  0.26901144967E+03  0.00000000000E+00 0.  1.
         14    1    3    3    0    0 -0.34065143316E+02  0.33454820452E+02 -0.15444990503E+03  0.16166147397E+03  0.00000000000E+00 0. -1.
         13    1    5    5    0    0  0.10700682320E+01 -0.55056864124E+02  0.14132661371E+03  0.15167602011E+03  0.00000000000E+00 0. -1.
        -14    1    5    5    0    0 -0.45256681538E+02  0.11054561276E+01  0.52668831586E+02  0.69450666503E+02  0.00000000000E+00 0.  1.
          5    1    4    4  501    0  0.51908397828E+02  0.93396952515E+02 -0.91180535036E+02  0.14053054783E+03  0.41800000000E+01 0. -1.
         -5    1    4    4    0  501  0.35039966601E+02 -0.35725863594E+02 -0.99255374371E+01  0.51187159350E+02  0.41800000000E+01 0. -1.
</event>
<event>
11    1  0.6625361E-009  0.1545789E+03  0.7561462E-02  0.1092290E+00
         22   -1    0    0    0    0  0.00000000000E+00  0.00000000000E+00  0.12373043182E+03  0.12373043182E+03  0.00000000000E+00 0.  1.
         22   -1    0    0    0    0 -0.00000000000E+00 -0.00000000000E+00 -0.55458611424E+03  0.55458611424E+03  0.00000000000E+00 0. -1.
         24    2    1    2    0    0  0.31373191485E+02  0.34459095169E+02 -0.36410442415E+03  0.37573138785E+03  0.80189386740E+02 0.  0.
         25    2    1    2    0    0  0.45183882180E+02  0.36015892710E+02 -0.95994096739E+02  0.16793105811E+03  0.12508895208E+03 0.  0.
        -24    2    1    2    0    0 -0.76557073665E+02 -0.70474987880E+02  0.29242838481E+02  0.13465410010E+03  0.80304879214E+02 0.  0.
        -11    1    3    3    0    0  0.14808543959E+02  0.39444642940E+02 -0.74327389556E+02  0.85438478855E+02  0.00000000000E+00 0.  1.
         12    1    3    3    0    0  0.16564647526E+02 -0.49855477706E+01 -0.28977703460E+03  0.29029290900E+03  0.00000000000E+00 0. -1.
         11    1    5    5    0    0 -0.34920108248E+02  0.28702770605E+01 -0.16477676498E+02  0.38719068600E+02  0.00000000000E+00 0. -1.
        -12    1    5    5    0    0 -0.41636965417E+02 -0.73345264940E+02  0.45720514979E+02  0.95935031497E+02  0.00000000000E+00 0.  1.
          5    1    4    4  501    0  0.14353278125E+02 -0.46543177803E+02 -0.42330285989E+02  0.64665365574E+02  0.41800000000E+01 0. -1.
         -5    1    4    4    0  501  0.30830604055E+02  0.82559070513E+02 -0.53663810750E+02  0.10326569253E+03  0.41800000000E+01 0. -1.
</event>
<event>
11    1  0.6625361E-009  0.1593827E+03  0.7561462E-02  0.1087659E+00
         22   -1    0    0    0    0  0.00000000000E+00  0.00000000000E+00  0.52568832047E+03  0.52568832047E+03  0.00000000000E+00 0.  1.
         22   -1    0    0    0    0 -0.00000000000E+00 -0.00000000000E+00 -0.12133852094E+03  0.12133852094E+03  0.00000000000E+00 0. -1.
         24    2    1    2    0    0  0.93845680192E+02  0.12434953755E+03  0.15415425596E+03  0.23309141604E+03  0.79361542450E+02 0.  0.
         25    2    1    2    0    0  0.25282675502E+02 -0.83585972020E+02  0.43120926295E+02  0.15853267700E+03  0.12508943598E+03 0.  0.
        -24    2    1    2    0    0 -0.11912835569E+03 -0.40763565533E+02  0.20707461727E+03  0.25540274836E+03  0.80606658207E+02 0.  0.
        -13    1    3    3    0    0  0.34728719514E+02  0.28949684780E+02  0.97276187500E+02  0.10726986931E+03  0.00000000000E+00 0.  1.
         14    1    3    3    0    0  0.59116960678E+02  0.95399852772E+02  0.56878068463E+02  0.12582154673E+03  0.00000000000E+00 0. -1.
         13    1    5    5    0    0 -0.46572783150E+02  0.92768650999E+01  0.12970033476E+03  0.13812045899E+03  0.00000000000E+00 0. -1.
        -14    1    5    5    0    0 -0.72555572543E+02 -0.50040430633E+02  0.77374282518E+02  0.11728228937E+03  0.00000000000E+00 0.  1.
          5    1    4    4  501    0 -0.39101248552E+01 -0.35664810155E+02  0.82360526752E+02  0.89933289313E+02  0.41800000000E+01 0. -1.
         -5    1    4    4    0  501  0.29192800357E+02 -0.47921161865E+02 -0.39239600457E+02  0.68599387688E+02  0.41800000000E+01 0. -1.
</event>
<event>
11    1  0.6625361E-009  0.1567519E+03  0.7561462E-02  0.1090173E+00
         22   -1    0    0    0    0  0.00000000000E+00  0.00000000000E+00  0.63304358814E+03  0.63304358814E+03  0.00000000000E+00 0.  1.
         22   -1    0    0    0    0 -0.00000000000E+00 -0.00000000000E+00 -0.16872947457E+04  0.16872947457E+04  0.00000000000E+00 0.  1.
        -24    2    1    2    0    0 -0.25026584105E+02  0.90391268167E+02 -0.15927953207E+04  0.15975214601E+04  0.79252574092E+02 0.  0.
         25    2    1    2    0    0  0.10753603035E+03 -0.99199616215E+02  0.22883669641E+02  0.19384843163E+03  0.12509592491E+03 0.  0.
         24    2    1    2    0    0 -0.82509446249E+02  0.88083480482E+01  0.51566049359E+03  0.52896844204E+03  0.83764385689E+02 0.  0.
        -11    1    5    5    0    0 -0.40871086149E+02  0.12349970173E+02  0.44373567317E+03  0.44578505481E+03  0.00000000000E+00 0.  1.
         12    1    5    5    0    0 -0.41638360100E+02 -0.35416221249E+01  0.71924820418E+02  0.83183387231E+02  0.00000000000E+00 0. -1.
         13    1    3    3    0    0 -0.33264291150E+02  0.70324280671E+02 -0.67473914013E+03  0.67920904347E+03  0.00000000000E+00 0. -1.
        -14    1    3    3    0    0  0.82377070449E+01  0.20066987495E+02 -0.91805618061E+03  0.91831241665E+03  0.00000000000E+00 0.  1.
          5    1    4    4  501    0  0.28371146769E+02 -0.10861088834E+03  0.18945630992E+02  0.11391951706E+03  0.41800000000E+01 0. -1.
         -5    1    4    4    0  501  0.79164883585E+02  0.94112721231E+01  0.39380386491E+01  0.79928914570E+02  0.41800000000E+01 0. -1.
</event>
<event>
11    1  0.6625361E-009  0.1422227E+03  0.7561462E-02  0.1105101E+00
         22   -1    0    0    0    0  0.00000000000E+00  0.00000000000E+00  0.69816511607E+03  0.69816511607E+03  0.00000000000E+00 0.  1.
         22   -1    0    0    0    0 -0.00000000000E+00 -0.00000000000E+00 -0.14319464197E+03  0.14319464197E+03  0.00000000000E+00 0.  1.
         24    2    1    2    0    0  0.49375749005E+02  0.14758440232E+02 -0.93180901636E+02  0.13221538244E+03  0.78373788827E+02 0.  0.
         25    2    1    2    0    0  0.19229933526E+02  0.22736297603E+02  0.14733232053E+03  0.19555555787E+03  0.12509370075E+03 0.  0.
        -24    2    1    2    0    0 -0.68605682531E+02 -0.37494737834E+02  0.50081905520E+03  0.51358881774E+03  0.82711260508E+02 0.  0.
        -11    1    3    3    0    0  0.39430569995E+02  0.41043749855E+02 -0.86137216708E+02  0.10324233315E+03  0.00000000000E+00 0.  1.
         12    1    3    3    0    0  0.99451790096E+01 -0.26285309623E+02 -0.70436849288E+01  0.28973049285E+02  0.00000000000E+00 0. -1.
         13    1    5    5    0    0  0.15183644047E+02  0.76341991185E+01  0.49241751031E+02  0.52091977187E+02  0.00000000000E+00 0. -1.
        -14    1    5    5    0    0 -0.83789326578E+02 -0.45128936953E+02  0.45157730417E+03  0.46149684055E+03  0.00000000000E+00 0.  1.
          5    1    4    4  501    0  0.25997714140E+02 -0.41887070852E+02  0.10972544754E+03  0.12036425584E+03  0.41800000000E+01 0.  1.
         -5    1    4    4    0  501 -0.67677806140E+01  0.64623368454E+02  0.37606872987E+02  0.75191302028E+02  0.41800000000E+01 0.  1.
</event>
<event>
11    1  0.6625361E-009  0.1419167E+03  0.7561462E-02  0.1105437E+00
         22   -1    0    0    0    0  0.00000000000E+00  0.00000000000E+00  0.22553806795E+03  0.22553806795E+03  0.00000000000E+00 0.  1.
         22   -1    0    0    0    0 -0.00000000000E+00 -0.00000000000E+00 -0.60068857089E+03  0.60068857089E+03  0.00000000000E+00 0. -1.
         24    2    1    2    0    0 -0.76450012177E+01  0.31707505716E+02 -0.52208197865E+03  0.52921099478E+03  0.80192721628E+02 0.  0.
         25    2    1    2    0    0 -0.32089696219E+02 -0.77559594940E+02  0.57486229961E+02  0.16123746850E+03  0.12509042827E+03 0.  0.
        -24    2    1    2    0    0  0.39734697437E+02  0.45852089224E+02  0.89445245746E+02  0.13577817555E+03  0.82182727522E+02 0.  0.
        -13    1    3    3    0    0 -0.16042622075E+02  0.45926838756E-01 -0.18183104551E+02  0.24248569513E+02  0.00000000000E+00 0.  1.
         14    1    3    3    0    0  0.83976208569E+01  0.31661578877E+02 -0.50389887410E+03  0.50496242527E+03  0.00000000000E+00 0. -1.
         11    1    5    5    0    0 -0.23357546406E+02  0.98469041066E+00  0.30732515437E+02  0.38613884736E+02  0.00000000000E+00 0. -1.
        -12    1    5    5    0    0  0.63092243843E+02  0.44867398814E+02  0.58712730309E+02  0.97164290816E+02  0.00000000000E+00 0.  1.
          5    1    4    4  501    0  0.15203798452E+01  0.33664208915E+02  0.18110786406E+02  0.38484587837E+02  0.41800000000E+01 0. -1.
         -5    1    4    4    0  501 -0.33610076064E+02 -0.11122380386E+03  0.39375443555E+02  0.12275288067E+03  0.41800000000E+01 0. -1.
</event>
<event>
11    1  0.6625361E-009  0.1768682E+03  0.7561462E-02  0.1072205E+00
         22   -1    0    0    0    0  0.00000000000E+00  0.00000000000E+00  0.54586872539E+03  0.54586872539E+03  0.00000000000E+00 0.  1.
         22   -1    0    0    0    0 -0.00000000000E+00 -0.00000000000E+00 -0.97201624264E+03  0.97201624264E+03  0.00000000000E+00 0.  1.
        -24    2    1    2    0    0 -0.29600150733E+02  0.61153285698E+01 -0.89301130033E+03  0.89726116232E+03  0.81822030784E+02 0.  0.
         25    2    1    2    0    0  0.14627775174E+02 -0.12968017205E+03  0.66479918807E+02  0.19261004219E+03  0.12509248545E+03 0.  0.
         24    2    1    2    0    0  0.14972375559E+02  0.12356484349E+03  0.40038386427E+03  0.42801376352E+03  0.86000583837E+02 0.  0.
        -13    1    5    5    0    0  0.16600467216E+02  0.75205172761E+02  0.34914680759E+03  0.35754004919E+03  0.00000000000E+00 0.  1.
         14    1    5    5    0    0 -0.16280916565E+01  0.48359670724E+02  0.51237056682E+02  0.70473714336E+02  0.00000000000E+00 0. -1.
         13    1    3    3    0    0 -0.78794127511E+01  0.25928121500E+02 -0.97196067970E+02  0.10090306367E+03  0.00000000000E+00 0. -1.
        -14    1    3    3    0    0 -0.21720737982E+02 -0.19812792930E+02 -0.79581523236E+03  0.79635809865E+03  0.00000000000E+00 0.  1.
          5    1    4    4  501    0  0.36344507070E+02 -0.11019669056E+03 -0.40375582243E+01  0.11618092822E+03  0.41800000000E+01 0. -1.
         -5    1    4    4    0  501 -0.21716731896E+02 -0.19483481490E+02  0.70517477031E+02  0.76429113969E+02  0.41800000000E+01 0. -1.
</event>
<event>
11    1  0.6625361E-009  0.1301462E+03  0.7561462E-02  0.1119089E+00
         22   -1    0    0    0    0  0.00000000000E+00  0.00000000000E+00  0.22579697557E+03  0.22579697557E+03  0.00000000000E+00 0. -1.
         22   -1    0    0    0    0 -0.00000000000E+00 -0.00000000000E+00 -0.58032527237E+03  0.58032527237E+03  0.00000000000E+00 0. -1.
        -24    2    1    2    0    0  0.50906744462E+00  0.27732451902E+02 -0.42474270958E+03  0.43333005653E+03  0.81235586472E+02 0.  0.
         25    2    1    2    0    0  0.31091626993E+02 -0.42854436912E+02 -0.10729566983E+03  0.17309837869E+03  0.12508995127E+03 0.  0.
         24    2    1    2    0    0 -0.31600694438E+02  0.15121985010E+02  0.17751008260E+03  0.19969381272E+03  0.84501544925E+02 0.  0.
        -13    1    5    5    0    0 -0.56448798674E+02  0.24966598383E+02  0.98060884034E+02  0.11586947348E+03  0.00000000000E+00 0.  1.
         14    1    5    5    0    0  0.24848104236E+02 -0.98446133735E+01  0.79449198570E+02  0.83824339246E+02  0.00000000000E+00 0. -1.
         11    1    3    3    0    0  0.28437881150E+01 -0.13713524262E+02 -0.32489700152E+03  0.32519872305E+03  0.00000000000E+00 0. -1.
        -12    1    3    3    0    0 -0.23347206704E+01  0.41445976164E+02 -0.99845708064E+02  0.10813133348E+03  0.00000000000E+00 0.  1.
          5    1    4    4  501    0  0.99100571667E+01  0.23461876839E+02 -0.99650132077E+02  0.10293828307E+03  0.41800000000E+01 0.  1.
         -5    1    4    4    0  501  0.21181569826E+02 -0.66316313751E+02 -0.76455377513E+01  0.70160095620E+02  0.41800000000E+01 0.  1.
</event>
<event>
11    1  0.6625361E-009  0.1264636E+03  0.7561462E-02  0.1123692E+00
         22   -1    0    0    0    0  0.00000000000E+00  0.00000000000E+00  0.78783295331E+02  0.78783295331E+02  0.00000000000E+00 0.  1.
         22   -1    0    0    0    0 -0.00000000000E+00 -0.00000000000E+00 -0.70011022056E+03  0.70011022056E+03  0.00000000000E+00 0.  1.
        -24    2    1    2    0    0  0.36686006461E+02  0.55058595223E+01 -0.49523964328E+03  0.50149775552E+03  0.69724579258E+02 0.  0.
         25    2    1    2    0    0 -0.21410615994E+02 -0.21270185249E+02 -0.13435964310E+03  0.18604091379E+03  0.12509145716E+03 0.  0.
         24    2    1    2    0    0 -0.15275390467E+02  0.15764325727E+02  0.82723611545E+01  0.91354846575E+02  0.88291701275E+02 0.  0.
        -11    1    5    5    0    0 -0.34849146186E+02 -0.80610059765E+01  0.35371090030E+02  0.50304640115E+02  0.00000000000E+00 0.  1.
         12    1    5    5    0    0  0.19573755719E+02  0.23825331703E+02 -0.27098728875E+02  0.41050206459E+02  0.00000000000E+00 0. -1.
         13    1    3    3    0    0  0.13610964835E+02  0.76282476264E+00 -0.13510887501E+02  0.19193341200E+02  0.00000000000E+00 0. -1.
        -14    1    3    3    0    0  0.23075041626E+02  0.47430347596E+01 -0.48172875578E+03  0.48230441432E+03  0.00000000000E+00 0.  1.
          5    1    4    4  501    0 -0.48057285302E+02 -0.22414271843E+02 -0.14692933462E+03  0.15626133246E+03  0.41800000000E+01 0. -1.
         -5    1    4    4    0  501  0.26646669308E+02  0.11440865942E+01  0.12569691518E+02  0.29779581330E+02  0.41800000000E+01 0. -1.
</event>
<event>
11    1  0.6625361E-009  0.1687642E+03  0.7561462E-02  0.1079112E+00
         22   -1    0    0    0    0  0.00000000000E+00  0.00000000000E+00  0.17475477196E+04  0.17475477196E+04  0.00000000000E+00 0.  1.
         22   -1    0    0    0    0 -0.00000000000E+00 -0.00000000000E+00 -0.65584542173E+02  0.65584542173E+02  0.00000000000E+00 0.  1.
        -24    2    1    2    0    0 -0.38937936034E+01 -0.24220487626E+02 -0.14922952762E+02  0.85515025901E+02  0.80550179927E+02 0.  0.
         25    2    1    2    0    0 -0.43092496376E+02  0.12031197232E+03  0.74495520970E+03  0.76611784403E+03  0.12508538106E+03 0.  0.
         24    2    1    2    0    0  0.46986289980E+02 -0.96091484698E+02  0.95193092045E+03  0.96149939180E+03  0.82869284114E+02 0.  0.
        -11    1    5    5    0    0  0.67810264759E+02 -0.52313755484E+02  0.66664497648E+03  0.67212386186E+03  0.00000000000E+00 0.  1.
         12    1    5    5    0    0 -0.20823974779E+02 -0.43777729214E+02  0.28528594397E+03  0.28937552994E+03  0.00000000000E+00 0. -1.
         13    1    3    3    0    0  0.37067920565E+02 -0.26236170274E+01 -0.12264869665E+02  0.39132353996E+02  0.00000000000E+00 0. -1.
        -14    1    3    3    0    0 -0.40961714169E+02 -0.21596870599E+02 -0.26580830970E+01  0.46382671905E+02  0.00000000000E+00 0.  1.
          5    1    4    4  501    0 -0.45267321733E+02  0.11360837384E+03  0.34463919921E+03  0.36571798295E+03  0.41800000000E+01 0.  1.
         -5    1    4    4    0  501  0.21748253564E+01  0.67035984894E+01  0.40031601049E+03  0.40039986108E+03  0.41800000000E+01 0.  1.
</event>
<event>
11    1  0.6625361E-009  0.1275725E+03  0.7561462E-02  0.1122288E+00
         22   -1    0    0    0    0  0.00000000000E+00  0.00000000000E+00  0.47125446673E+03  0.47125446673E+03  0.00000000000E+00 0. -1.
         22   -1    0    0    0    0 -0.00000000000E+00 -0.00000000000E+00 -0.36035303878E+03  0.36035303878E+03  0.00000000000E+00 0.  1.
        -24    2    1    2    0    0  0.18794988425E+02  0.14525124719E+02 -0.23626668551E+03  0.25069804122E+03  0.80394840349E+02 0.  0.
         25    2    1    2    0    0 -0.19083102851E+02 -0.26504343374E+02 -0.75898673734E+02  0.14991796333E+03  0.12509253385E+03 0.  0.
         24    2    1    2    0    0  0.28811442590E+00  0.11979218655E+02  0.42306678719E+03  0.43099150095E+03  0.81391539931E+02 0.  0.
        -13    1    5    5    0    0 -0.22994683529E+02  0.33211407379E+02  0.12740814782E+03  0.13365847964E+03  0.00000000000E+00 0.  1.
         14    1    5    5    0    0  0.23282797955E+02 -0.21232188724E+02  0.29565863938E+03  0.29733302130E+03  0.00000000000E+00 0. -1.
         11    1    3    3    0    0  0.41392164979E+02 -0.15547088548E+02 -0.10008683445E+03  0.10941845235E+03  0.00000000000E+00 0. -1.
        -12    1    3    3    0    0 -0.22597176554E+02  0.30072213266E+02 -0.13617985106E+03  0.14127958888E+03  0.00000000000E+00 0.  1.
          5    1    4    4  501    0  0.32323724679E+01 -0.27901484078E+02 -0.10738412144E+03  0.11107548327E+03  0.41800000000E+01 0.  1.
         -5    1    4    4    0  501 -0.22315475318E+02  0.13971407041E+01  0.31485447704E+02  0.38842480070E+02  0.41800000000E+01 0.  1.
</event>
<event>
11    1  0.6625361E-009  0.1593089E+03  0.7561462E-02  0.1087729E+00
         22   -1    0    0    0    0  0.00000000000E+00  0.00000000000E+00  0.14178278570E+03  0.14178278570E+03  0.00000000000E+00 0. -1.
         22   -1    0    0    0    0 -0.00000000000E+00 -0.00000000000E+00 -0.63204345952E+03  0.63204345952E+03  0.00000000000E+00 0. -1.
        -24    2    1    2    0    0 -0.84822048836E+02 -0.42375333820E+02 -0.46095964609E+03  0.47741601412E+03  0.80323136910E+02 0.  0.
         25    2    1    2    0    0  0.95819500078E+02  0.98393242080E+02 -0.55996419716E+02  0.19402485494E+03  0.12508972232E+03 0.  0.
         24    2    1    2    0    0 -0.10997451242E+02 -0.56017908260E+02  0.26695391994E+02  0.10238537617E+03  0.80691829322E+02 0.  0.
        -13    1    5    5    0    0  0.15616409786E+02 -0.22016686194E+01 -0.20609160446E+02  0.25951051878E+02  0.00000000000E+00 0.  1.
         14    1    5    5    0    0 -0.26613861027E+02 -0.53816239640E+02  0.47304552440E+02  0.76434324288E+02  0.00000000000E+00 0. -1.
         13    1    3    3    0    0 -0.36643947087E+02 -0.11344768827E+02 -0.35399655193E+03  0.35606887173E+03  0.00000000000E+00 0. -1.
        -14    1    3    3    0    0 -0.48178101750E+02 -0.31030564993E+02 -0.10696309416E+03  0.12134714239E+03  0.00000000000E+00 0.  1.
          5    1    4    4  501    0  0.10525704961E+03  0.76237242185E+02  0.31032031650E+01  0.13007023433E+03  0.41800000000E+01 0. -1.
         -5    1    4    4    0  501 -0.94375495322E+01  0.22155999895E+02 -0.59099622881E+02  0.63954620609E+02  0.41800000000E+01 0. -1.
</event>
<event>
11    1  0.6625361E-009  0.1408450E+03  0.7561462E-02  0.1106618E+00
         22   -1    0    0    0    0  0.00000000000E+00  0.00000000000E+00  0.24545090974E+03  0.24545090974E+03  0.00000000000E+00 0.  1.
         22   -1    0    0    0    0 -0.00000000000E+00 -0.00000000000E+00 -0.20963990235E+04  0.20963990235E+04  0.00000000000E+00 0.  1.
         24    2    1    2    0    0 -0.19934571100E+02  0.21042762354E+02 -0.19689723619E+04  0.19707836294E+04  0.79345870479E+02 0.  0.
         25    2    1    2    0    0  0.80866914391E+02 -0.33474647730E+02 -0.61545052586E+02  0.16460420755E+03  0.12508693681E+03 0.  0.
        -24    2    1    2    0    0 -0.60932343291E+02  0.12431885376E+02  0.17956930068E+03  0.20646209629E+03  0.80710353876E+02 0.  0.
        -11    1    3    3    0    0 -0.27043006847E+02  0.47176639551E+02 -0.15380836702E+04  0.15390446180E+04  0.00000000000E+00 0.  1.
         12    1    3    3    0    0  0.71084357469E+01 -0.26133877198E+02 -0.43088869167E+03  0.43173901144E+03  0.00000000000E+00 0. -1.
         11    1    5    5    0    0 -0.14839798516E+02  0.20523817891E+02  0.51124578216E+01  0.25837645903E+02  0.00000000000E+00 0. -1.
        -12    1    5    5    0    0 -0.46092544775E+02 -0.80919325146E+01  0.17445684286E+03  0.18062445039E+03  0.00000000000E+00 0.  1.
          5    1    4    4  501    0  0.90466499640E+02 -0.56004876872E+02 -0.80391585947E+02  0.13342043802E+03  0.41800000000E+01 0.  1.
         -5    1    4    4    0  501 -0.95995852488E+01  0.22530229141E+02  0.18846533361E+02  0.31183769526E+02  0.41800000000E+01 0.  1.
</event>
<event>
11    1  0.6625361E-009  0.1335992E+03  0.7561462E-02  0.1114924E+00
         22   -1    0    0    0    0  0.00000000000E+00  0.00000000000E+00  0.11234387185E+03  0.11234387185E+03  0.00000000000E+00 0. -1.
         22   -1    0    0    0    0 -0.00000000000E+00 -0.00000000000E+00 -0.32930614101E+04  0.32930614101E+04  0.00000000000E+00 0. -1.
         24    2    1    2    0    0 -0.19607903180E+02 -0.42735282764E+02 -0.27659057464E+04  0.27675044786E+04  0.81459602647E+02 0.  0.
         25    2    1    2    0    0  0.42735311937E+02  0.29918555194E+02 -0.49966799668E+03  0.51772406257E+03  0.12509464906E+03 0.  0.
        -24    2    1    2    0    0 -0.23127408758E+02  0.12816727570E+02  0.84856204815E+02  0.12017674080E+03  0.80887131195E+02 0.  0.
        -13    1    3    3    0    0  0.89023600245E+01  0.21515994633E+02 -0.81594521713E+03  0.81627739611E+03  0.00000000000E+00 0.  1.
         14    1    3    3    0    0 -0.28510263204E+02 -0.64251277397E+02 -0.19499605293E+04  0.19512270825E+04  0.00000000000E+00 0. -1.
         13    1    5    5    0    0  0.29504660646E+02 -0.35942246113E+01  0.25446593554E+02  0.39127644625E+02  0.00000000000E+00 0. -1.
        -14    1    5    5    0    0 -0.52632069403E+02  0.16410952181E+02  0.59409611261E+02  0.81049096178E+02  0.00000000000E+00 0.  1.
          5    1    4    4  501    0  0.43565335850E+02  0.60784568633E+02 -0.46547819558E+03  0.47146593220E+03  0.41800000000E+01 0. -1.
         -5    1    4    4    0  501 -0.83002391294E+00 -0.30866013439E+02 -0.34189801106E+02  0.46258130367E+02  0.41800000000E+01 0. -1.
</event>
<event>
11    1  0.6625361E-009  0.1364691E+03  0.7561462E-02  0.1111567E+00
         22   -1    0    0    0    0  0.00000000000E+00  0.00000000000E+00  0.64354615124E+03  0.64354615124E+03  0.00000000000E+00 0.  1.
         22   -1    0    0    0    0 -0.00000000000E+00 -0.00000000000E+00 -0.85779910562E+02  0.85779910562E+02  0.00000000000E+00 0. -1.
        -24    2    1    2    0    0 -0.37240633901E+02 -0.30851088399E+01 -0.16567045055E+01  0.89989411946E+02  0.81847216707E+02 0.  0.
         25    2    1    2    0    0  0.37282233390E+02 -0.51617614484E+02  0.11317387233E+03  0.18031047468E+03  0.12509675795E+03 0.  0.
         24    2    1    2    0    0 -0.41599489094E-01  0.54702723324E+02  0.44624907285E+03  0.45902617517E+03  0.92598082058E+02 0.  0.
        -11    1    5    5    0    0  0.43521613547E+01  0.77533472292E+02  0.39753003770E+03  0.40504383900E+03  0.00000000000E+00 0.  1.
         12    1    5    5    0    0 -0.43937608438E+01 -0.22830748968E+02  0.48719035151E+02  0.53982336174E+02  0.00000000000E+00 0. -1.
         11    1    3    3    0    0  0.25613599512E+02 -0.75107748451E+01 -0.36947964570E+01  0.26946609056E+02  0.00000000000E+00 0. -1.
        -12    1    3    3    0    0 -0.62854233413E+02  0.44256660051E+01  0.20380919515E+01  0.63042802891E+02  0.00000000000E+00 0.  1.
          5    1    4    4  501    0  0.80942972001E+02 -0.36687999529E+02  0.50277152391E+02  0.10219118591E+03  0.41800000000E+01 0. -1.
         -5    1    4    4    0  501 -0.43660738611E+02 -0.14929614955E+02  0.62896719935E+02  0.78119288766E+02  0.41800000000E+01 0. -1.
</event>
<event>
11    1  0.6625361E-009  0.1280043E+03  0.7561462E-02  0.1121746E+00
         22   -1    0    0    0    0  0.00000000000E+00  0.00000000000E+00  0.32514126535E+03  0.32514126535E+03  0.00000000000E+00 0.  1.
         22   -1    0    0    0    0 -0.00000000000E+00 -0.00000000000E+00 -0.10315174100E+04  0.10315174100E+04  0.00000000000E+00 0. -1.
         24    2    1    2    0    0 -0.17659409297E+01  0.14841700861E+02 -0.98272451533E+03  0.98606843103E+03  0.79750128578E+02 0.  0.
         25    2    1    2    0    0  0.45554780040E+01 -0.39359620556E+02  0.70373982807E+02  0.14889376308E+03  0.12508766173E+03 0.  0.
        -24    2    1    2    0    0 -0.27895370743E+01  0.24517919695E+02  0.20597438786E+03  0.22169648126E+03  0.78198282854E+02 0.  0.
        -13    1    3    3    0    0 -0.26055028299E+02  0.46958236066E+01 -0.11758764440E+03  0.12053119668E+03  0.00000000000E+00 0.  1.
         14    1    3    3    0    0  0.24289087369E+02  0.10145877255E+02 -0.86513687093E+03  0.86553723435E+03  0.00000000000E+00 0. -1.
         11    1    5    5    0    0 -0.37621933776E+02  0.17614054691E+02  0.72284143033E+02  0.83370631267E+02  0.00000000000E+00 0. -1.
        -12    1    5    5    0    0  0.34832396702E+02  0.69038650034E+01  0.13369024483E+03  0.13832584999E+03  0.00000000000E+00 0.  1.
          5    1    4    4  501    0  0.52992443205E+02  0.86466897483E+01  0.45951132070E+01  0.54051380610E+02  0.41800000000E+01 0.  1.
         -5    1    4    4    0  501 -0.48436965201E+02 -0.48006310305E+02  0.65778869600E+02  0.94842382471E+02  0.41800000000E+01 0.  1.
</event>
<event>
11    1  0.6625361E-009  0.1783096E+03  0.7561462E-02  0.1071018E+00
         22   -1    0    0    0    0  0.00000000000E+00  0.00000000000E+00  0.50589207590E+03  0.50589207590E+03  0.00000000000E+00 0. -1.
         22   -1    0    0    0    0 -0.00000000000E+00 -0.00000000000E+00 -0.81666502054E+03  0.81666502054E+03  0.00000000000E+00 0. -1.
        -24    2    1    2    0    0 -0.93488461150E+02  0.87042682473E+02 -0.74674328517E+03  0.76182609765E+03  0.80230593763E+02 0.  0.
         25    2    1    2    0    0  0.11198129939E+03 -0.48247981958E+02  0.77844433132E+02  0.19124576375E+03  0.12508999642E+03 0.  0.
         24    2    1    2    0    0 -0.18492838241E+02 -0.38794700515E+02  0.35812590740E+03  0.36948523504E+03  0.80113416548E+02 0.  0.
        -11    1    5    5    0    0 -0.43650160069E+02 -0.37680386401E+02  0.16630516820E+03  0.17601862675E+03  0.00000000000E+00 0.  1.
         12    1    5    5    0    0  0.25157321829E+02 -0.11143141144E+01  0.19182073920E+03  0.19346660829E+03  0.00000000000E+00 0. -1.
         11    1    3    3    0    0 -0.70725778786E+02  0.10162038138E+03 -0.61129664098E+03  0.62370860261E+03  0.00000000000E+00 0. -1.
        -12    1    3    3    0    0 -0.22762682364E+02 -0.14577698909E+02 -0.13544664419E+03  0.13811749504E+03  0.00000000000E+00 0.  1.
          5    1    4    4  501    0  0.12534083732E+03 -0.21688223955E+02  0.23881455038E+02  0.12949324636E+03  0.41800000000E+01 0.  1.
         -5    1    4    4    0  501 -0.13359537928E+02 -0.26559758004E+02  0.53962978094E+02  0.61752517387E+02  0.41800000000E+01 0.  1.
</event>
<event>
11    1  0.6625361E-009  0.2052273E+03  0.7561462E-02  0.1050887E+00
         22   -1    0    0    0    0  0.00000000000E+00  0.00000000000E+00  0.27337335994E+03  0.27337335994E+03  0.00000000000E+00 0. -1.
         22   -1    0    0    0    0 -0.00000000000E+00 -0.00000000000E+00 -0.29971091857E+04  0.29971091857E+04  0.00000000000E+00 0.  1.
         24    2    1    2    0    0  0.32528168911E+02  0.35881342921E+02 -0.19459632087E+04  0.19479856607E+04  0.74362437739E+02 0.  0.
         25    2    1    2    0    0  0.10429894325E+03  0.54714825430E+02 -0.10114497614E+04  0.10259388757E+04  0.12509186698E+03 0.  0.
        -24    2    1    2    0    0 -0.13682711216E+03 -0.90596168351E+02  0.23367714430E+03  0.29655800925E+03  0.80076967603E+02 0.  0.
        -11    1    3    3    0    0 -0.11103033387E+01  0.50129462613E+02 -0.13253767772E+04  0.13263249215E+04  0.00000000000E+00 0.  1.
         12    1    3    3    0    0  0.33638472250E+02 -0.14248119692E+02 -0.62058643148E+03  0.62166073921E+03  0.00000000000E+00 0. -1.
         13    1    5    5    0    0 -0.78780663320E+02 -0.76791420585E+02  0.19943055885E+03  0.22776273399E+03  0.00000000000E+00 0. -1.
        -14    1    5    5    0    0 -0.58046448840E+02 -0.13804747766E+02  0.34246585446E+02  0.68795275263E+02  0.00000000000E+00 0.  1.
          5    1    4    4  501    0 -0.94256934618E+01  0.49807461086E+01 -0.61523898369E+01  0.12999070341E+02  0.41800000000E+01 0.  1.
         -5    1    4    4    0  501  0.11372463671E+03  0.49734079322E+02 -0.10052973716E+04  0.10129398054E+04  0.41800000000E+01 0.  1.
</event>
<event>
11    1  0.6625361E-009  0.1608720E+03  0.7561462E-02  0.1086260E+00
         22   -1    0    0    0    0  0.00000000000E+00  0.00000000000E+00  0.45556123667E+03  0.45556123667E+03  0.00000000000E+00 0. -1.
         22   -1    0    0    0    0 -0.00000000000E+00 -0.00000000000E+00 -0.76201181566E+03  0.76201181566E+03  0.00000000000E+00 0.  1.
        -24    2    1    2    0    0 -0.10352520482E+03 -0.43822697803E+02 -0.52245362878E+03  0.54092306592E+03  0.83678385137E+02 0.  0.
         25    2    1    2    0    0  0.36857816279E+02  0.78991504323E+02 -0.19706110664E+03  0.24917753374E+03  0.12513275827E+03 0.  0.
         24    2    1    2    0    0  0.66667388541E+02 -0.35168806519E+02  0.41306415644E+03  0.42747245268E+03  0.80183008298E+02 0.  0.
        -11    1    5    5    0    0  0.30025137383E+02  0.45423877704E+01  0.38517659700E+02  0.49048468583E+02  0.00000000000E+00 0.  1.
         12    1    5    5    0    0  0.36642251158E+02 -0.39711194290E+02  0.37454649673E+03  0.37842398409E+03  0.00000000000E+00 0. -1.
         11    1    3    3    0    0  0.27002213794E+01  0.46308619502E+01  0.22275899432E+00  0.53652306073E+01  0.00000000000E+00 0. -1.
        -12    1    3    3    0    0 -0.10622542620E+03 -0.48453559754E+02 -0.52267638778E+03  0.53555783531E+03  0.00000000000E+00 0.  1.
          5    1    4    4  501    0  0.41273076893E+01 -0.28365076947E+02 -0.93621347195E+01  0.30442309792E+02  0.41800000000E+01 0.  1.
         -5    1    4    4    0  501  0.32730508590E+02  0.10735658127E+03 -0.18769897192E+03  0.21873522394E+03  0.41800000000E+01 0.  1.
</event>
<event>
11    1  0.6625361E-009  0.1386967E+03  0.7561462E-02  0.1109022E+00
         22   -1    0    0    0    0  0.00000000000E+00  0.00000000000E+00  0.19055975680E+04  0.19055975680E+04  0.00000000000E+00 0. -1.
         22   -1    0    0    0    0 -0.00000000000E+00 -0.00000000000E+00 -0.15339801078E+04  0.15339801078E+04  0.00000000000E+00 0.  1.
         24    2    1    2    0    0 -0.12411488230E+01 -0.26147517285E+01 -0.13952917439E+04  0.13975799252E+04  0.79888793392E+02 0.  0.
         25    2    1    2    0    0  0.61037013289E+02 -0.86164711925E+00 -0.10065650516E+03  0.17177276092E+03  0.12509152623E+03 0.  0.
        -24    2    1    2    0    0 -0.59795864466E+02  0.34763988478E+01  0.18675657093E+04  0.18702249897E+04  0.79700707080E+02 0.  0.
        -11    1    3    3    0    0 -0.23384812888E+02  0.42779281301E+01 -0.12660949334E+04  0.12663181000E+04  0.00000000000E+00 0.  1.
         12    1    3    3    0    0  0.22143664065E+02 -0.68926798587E+01 -0.12919681057E+03  0.13126182520E+03  0.00000000000E+00 0. -1.
         13    1    5    5    0    0 -0.76665359227E+02 -0.11023385262E+02  0.14490439981E+04  0.14511125390E+04  0.00000000000E+00 0. -1.
        -14    1    5    5    0    0  0.16869494761E+02  0.14499784109E+02  0.41852171120E+03  0.41911245071E+03  0.00000000000E+00 0.  1.
          5    1    4    4  501    0  0.72338257798E+02 -0.40494571371E+02 -0.10050165062E+03  0.13034833344E+03  0.41800000000E+01 0.  1.
         -5    1    4    4    0  501 -0.11301244509E+02  0.39632924251E+02 -0.15485453585E+00  0.41424427480E+02  0.41800000000E+01 0.  1.
</event>
<event>
11    1  0.6625361E-009  0.2131591E+03  0.7561462E-02  0.1045589E+00
         22   -1    0    0    0    0  0.00000000000E+00  0.00000000000E+00  0.84244263228E+03  0.84244263228E+03  0.00000000000E+00 0.  1.
         22   -1    0    0    0    0 -0.00000000000E+00 -0.00000000000E+00 -0.24983765065E+04  0.24983765065E+04  0.00000000000E+00 0. -1.
        -24    2    1    2    0    0  0.79675125662E+01 -0.11991402408E+00 -0.22988846777E+04  0.23002372264E+04  0.78466814740E+02 0.  0.
         25    2    1    2    0    0  0.11125407581E+03  0.12532296209E+03 -0.13007734570E+03  0.24627323357E+03  0.12508827082E+03 0.  0.
         24    2    1    2    0    0 -0.11922158838E+03 -0.12520304806E+03  0.77302814914E+03  0.79430867879E+03  0.58857178421E+02 0.  0.
        -13    1    5    5    0    0 -0.73910250611E+02 -0.10519720461E+03  0.62890453107E+03  0.64191127596E+03  0.00000000000E+00 0.  1.
         14    1    5    5    0    0 -0.45311337770E+02 -0.20005843452E+02  0.14412361807E+03  0.15239740283E+03  0.00000000000E+00 0. -1.
         13    1    3    3    0    0  0.34801583890E+02 -0.14789974619E+02 -0.18111424919E+04  0.18115371979E+04  0.00000000000E+00 0. -1.
        -14    1    3    3    0    0 -0.26834071324E+02  0.14670060595E+02 -0.48774218582E+03  0.48870002853E+03  0.00000000000E+00 0.  1.
          5    1    4    4  501    0  0.53316963011E+02  0.10759156207E+03 -0.21780091551E+02  0.12210850733E+03  0.41800000000E+01 0. -1.
         -5    1    4    4    0  501  0.57937112803E+02  0.17731400015E+02 -0.10829725415E+03  0.12416472624E+03  0.41800000000E+01 0. -1.
</event>
<event>
11    1  0.6625361E-009  0.2495870E+03  0.7561462E-02  0.1024119E+00
         22   -1    0    0    0    0  0.00000000000E+00  0.00000000000E+00  0.14424207326E+04  0.14424207326E+04  0.00000000000E+00 0.  1.
         22   -1    0    0    0    0 -0.00000000000E+00 -0.00000000000E+00 -0.37645562897E+03  0.37645562897E+03  0.00000000000E+00 0. -1.
        -24    2    1    2    0    0  0.17847133918E+03  0.12453141111E+03 -0.28050415251E+03  0.36203347799E+03  0.70891243108E+02 0.  0.
         25    2    1    2    0    0 -0.20198309855E+03 -0.65737149975E+02  0.23475644384E+03  0.34040713668E+03  0.12509150968E+03 0.  0.
         24    2    1    2    0    0  0.23511759371E+02 -0.58794261135E+02  0.11117128123E+04  0.11164357469E+04  0.80708314148E+02 0.  0.
        -11    1    5    5    0    0  0.40015224365E+02 -0.66480366553E+02  0.10191483256E+04  0.10220979243E+04  0.00000000000E+00 0.  1.
         12    1    5    5    0    0 -0.16503464994E+02  0.76861054177E+01  0.92564486631E+02  0.94337822524E+02  0.00000000000E+00 0. -1.
         13    1    3    3    0    0  0.17134573284E+03  0.10921813003E+03 -0.27889678112E+03  0.34506720303E+03  0.00000000000E+00 0. -1.
        -14    1    3    3    0    0  0.71256063349E+01  0.15313281077E+02 -0.16073713865E+01  0.16966274952E+02  0.00000000000E+00 0.  1.
          5    1    4    4  501    0  0.17187478736E+02 -0.45280582804E+01  0.11421528189E+02  0.21536862428E+02  0.41800000000E+01 0.  1.
         -5    1    4    4    0  501 -0.21917057728E+03 -0.61209091695E+02  0.22333491565E+03  0.31887027425E+03  0.41800000000E+01 0.  1.
</event>
<event>
11    1  0.6625361E-009  0.1474829E+03  0.7561462E-02  0.1099479E+00
         22   -1    0    0    0    0  0.00000000000E+00  0.00000000000E+00  0.79317326913E+03  0.79317326913E+03  0.00000000000E+00 0.  1.
         22   -1    0    0    0    0 -0.00000000000E+00 -0.00000000000E+00 -0.34009388802E+03  0.34009388802E+03  0.00000000000E+00 0. -1.
        -24    2    1    2    0    0 -0.83512680866E+01  0.39253463124E+02 -0.27852716692E+03  0.29270073118E+03  0.80534199430E+02 0.  0.
         25    2    1    2    0    0  0.23174068996E+02 -0.11222927462E+03  0.95800270498E+02  0.19482808972E+03  0.12509134726E+03 0.  0.
         24    2    1    2    0    0 -0.14822800909E+02  0.72975811495E+02  0.63580627753E+03  0.64573833624E+03  0.84753712931E+02 0.  0.
        -11    1    5    5    0    0  0.14471647149E+02  0.78876215719E+02  0.39286250548E+03  0.40096363200E+03  0.00000000000E+00 0.  1.
         12    1    5    5    0    0 -0.29294448058E+02 -0.59004042241E+01  0.24294377205E+03  0.24477470424E+03  0.00000000000E+00 0. -1.
         11    1    3    3    0    0  0.97856037393E+01  0.35181132315E+02 -0.26963213083E+03  0.27209365316E+03  0.00000000000E+00 0. -1.
        -12    1    3    3    0    0 -0.18136871826E+02  0.40723308086E+01 -0.88950360885E+01  0.20607078028E+02  0.00000000000E+00 0.  1.
          5    1    4    4  501    0 -0.43756403841E+02 -0.68724342835E+02  0.78138894537E+02  0.11296378807E+03  0.41800000000E+01 0.  1.
         -5    1    4    4    0  501  0.66930472837E+02 -0.43504931784E+02  0.17661375961E+02  0.81864301649E+02  0.41800000000E+01 0.  1.
</event>
<event>
11    1  0.6625361E-009  0.1371488E+03  0.7561462E-02  0.1110785E+00
         22   -1    0    0    0    0  0.00000000000E+00  0.00000000000E+00  0.13034084475E+04  0.13034084475E+04  0.00000000000E+00 0.  1.
         22   -1    0    0    0    0 -0.00000000000E+00 -0.00000000000E+00 -0.19969732345E+03  0.19969732345E+03  0.00000000000E+00 0. -1.
        -24    2    1    2    0    0  0.56179946062E+01 -0.27758549250E+01 -0.17643770818E+03  0.19485189401E+03  0.82448338367E+02 0.  0.
         25    2    1    2    0    0 -0.48454557814E+02  0.37383171284E+02  0.41378129292E+03  0.43658801592E+03  0.12509513024E+03 0.  0.
         24    2    1    2    0    0  0.42836563208E+02 -0.34607316359E+02  0.86636753932E+03  0.87166586103E+03  0.78587674553E+02 0.  0.
        -11    1    5    5    0    0  0.49851537455E+02 -0.44825476664E+02  0.83838566763E+03  0.84106184484E+03  0.00000000000E+00 0.  1.
         12    1    5    5    0    0 -0.70149742472E+01  0.10218160305E+02  0.27981871691E+02  0.30604016191E+02  0.00000000000E+00 0. -1.
         11    1    3    3    0    0 -0.20003175955E+02  0.15148634945E+02 -0.15481477294E+03  0.15683501557E+03  0.00000000000E+00 0. -1.
        -12    1    3    3    0    0  0.25621170562E+02 -0.17924489870E+02 -0.21622935236E+02  0.38016878440E+02  0.00000000000E+00 0.  1.
          5    1    4    4  501    0 -0.15683201537E+02  0.61974525238E+02  0.91572394412E+02  0.11175768612E+03  0.41800000000E+01 0. -1.
         -5    1    4    4    0  501 -0.32771356277E+02 -0.24591353954E+02  0.32220889850E+03  0.32483032980E+03  0.41800000000E+01 0. -1.
</event>
<event>
11    1  0.6625361E-009  0.1332603E+03  0.7561462E-02  0.1115327E+00
         22   -1    0    0    0    0  0.00000000000E+00  0.00000000000E+00  0.10989921691E+04  0.10989921691E+04  0.00000000000E+00 0. -1.
         22   -1    0    0    0    0 -0.00000000000E+00 -0.00000000000E+00 -0.81470182412E+02  0.81470182412E+02  0.00000000000E+00 0. -1.
         24    2    1    2    0    0 -0.50009775870E+02  0.31083847937E+01 -0.32261400394E+02  0.96777431897E+02  0.76252433604E+02 0.  0.
         25    2    1    2    0    0  0.10695261007E+02  0.13584822924E+02  0.26331924969E+03  0.29203413588E+03  0.12509185920E+03 0.  0.
        -24    2    1    2    0    0  0.39314514863E+02 -0.16693207718E+02  0.78646413735E+03  0.79165078369E+03  0.79754810033E+02 0.  0.
        -11    1    3    3    0    0  0.14195265157E+02  0.11765785812E+02  0.84290605091E+01  0.20272847104E+02  0.00000000000E+00 0.  1.
         12    1    3    3    0    0 -0.64205041027E+02 -0.86574010178E+01 -0.40690460903E+02  0.76504584792E+02  0.00000000000E+00 0. -1.
         13    1    5    5    0    0  0.33030259847E+02  0.13747476039E+02  0.67461660167E+03  0.67556461601E+03  0.00000000000E+00 0. -1.
        -14    1    5    5    0    0  0.62842550159E+01 -0.30440683758E+02  0.11184753568E+03  0.11608616768E+03  0.00000000000E+00 0.  1.
          5    1    4    4  501    0 -0.21953057708E+02 -0.48683981969E+02  0.87019185915E+02  0.10218550758E+03  0.41800000000E+01 0.  1.
         -5    1    4    4    0  501  0.32648318715E+02  0.62268804893E+02  0.17630006377E+03  0.18984862829E+03  0.41800000000E+01 0.  1.
</event>
<event>
11    1  0.6625361E-009  0.1618314E+03  0.7561462E-02  0.1085367E+00
         22   -1    0    0    0    0  0.00000000000E+00  0.00000000000E+00  0.29795960110E+03  0.29795960110E+03  0.00000000000E+00 0.  1.
         22   -1    0    0    0    0 -0.00000000000E+00 -0.00000000000E+00 -0.49992336885E+03  0.49992336885E+03  0.00000000000E+00 0. -1.
         24    2    1    2    0    0  0.10683105368E+03 -0.51860804472E+02 -0.19608194489E+03  0.24288566426E+03  0.80267675454E+02 0.  0.
         25    2    1    2    0    0 -0.96876109377E+02 -0.27543156780E+02 -0.24623510490E+03  0.29397776912E+03  0.12509035053E+03 0.  0.
        -24    2    1    2    0    0 -0.99549443056E+01  0.79403961253E+02  0.24035328204E+03  0.26101953656E+03  0.62907935099E+02 0.  0.
        -13    1    3    3    0    0  0.39943449165E+02  0.14962772566E+02 -0.96827940260E+02  0.10580649181E+03  0.00000000000E+00 0.  1.
         14    1    3    3    0    0  0.66887604518E+02 -0.66823577038E+02 -0.99254004627E+02  0.13707917245E+03  0.00000000000E+00 0. -1.
         13    1    5    5    0    0  0.49472820765E+00  0.33522200892E+02  0.28498689914E+02  0.44001795821E+02  0.00000000000E+00 0. -1.
        -14    1    5    5    0    0 -0.10449672513E+02  0.45881760360E+02  0.21185459213E+03  0.21701774074E+03  0.00000000000E+00 0.  1.
          5    1    4    4  501    0 -0.54040090202E+02 -0.69778492570E+02 -0.19778606348E+03  0.21662448773E+03  0.41800000000E+01 0. -1.
         -5    1    4    4    0  501 -0.42836019175E+02  0.42235335789E+02 -0.48449041422E+02  0.77353281396E+02  0.41800000000E+01 0. -1.
</event>
<event>
11    1  0.6625361E-009  0.1418238E+03  0.7561462E-02  0.1105539E+00
         22   -1    0    0    0    0  0.00000000000E+00  0.00000000000E+00  0.10687733016E+04  0.10687733016E+04  0.00000000000E+00 0. -1.
         22   -1    0    0    0    0 -0.00000000000E+00 -0.00000000000E+00 -0.43906061269E+02  0.43906061269E+02  0.00000000000E+00 0.  1.
         24    2    1    2    0    0 -0.31251290248E+02 -0.92690400907E+01  0.60346876474E+02  0.10511560910E+03  0.79655430008E+02 0.  0.
         25    2    1    2    0    0  0.65976588754E+02 -0.45607150243E+02  0.29699816066E+03  0.33209719884E+03  0.12509084549E+03 0.  0.
        -24    2    1    2    0    0 -0.34725298506E+02  0.54876190333E+02  0.66752220319E+03  0.67546655492E+03  0.80323921988E+02 0.  0.
        -11    1    3    3    0    0 -0.37192560068E+02  0.59047386188E+01 -0.47987076599E+01  0.37962877364E+02  0.00000000000E+00 0.  1.
         12    1    3    3    0    0  0.59412698200E+01 -0.15173778709E+02  0.65145584134E+02  0.67152731735E+02  0.00000000000E+00 0. -1.
         13    1    5    5    0    0 -0.43792739404E+01  0.39663563842E+02  0.58326326803E+03  0.58462673235E+03  0.00000000000E+00 0. -1.
        -14    1    5    5    0    0 -0.30346024566E+02  0.15212626492E+02  0.84258935159E+02  0.90839822577E+02  0.00000000000E+00 0.  1.
          5    1    4    4  501    0  0.87170390783E+02 -0.72431771397E+02  0.21299479245E+03  0.24130746476E+03  0.41800000000E+01 0. -1.
         -5    1    4    4    0  501 -0.21193802029E+02  0.26824621154E+02  0.84003368210E+02  0.90789734084E+02  0.41800000000E+01 0. -1.
</event>
<event>
11    1  0.6625361E-009  0.1368173E+03  0.7561462E-02  0.1111165E+00
         22   -1    0    0    0    0  0.00000000000E+00  0.00000000000E+00  0.21218042010E+03  0.21218042010E+03  0.00000000000E+00 0. -1.
         22   -1    0    0    0    0 -0.00000000000E+00 -0.00000000000E+00 -0.36634579576E+03  0.36634579576E+03  0.00000000000E+00 0.  1.
        -24    2    1    2    0    0 -0.45309544589E+02  0.27839587755E+02 -0.28195786380E+03  0.29766349666E+03  0.79216935100E+02 0.  0.
         25    2    1    2    0    0  0.87294166658E+02 -0.21169880571E+02  0.51372063910E+02  0.16234222258E+03  0.12508985933E+03 0.  0.
         24    2    1    2    0    0 -0.41984622069E+02 -0.66697071837E+01  0.76420424230E+02  0.11852049663E+03  0.79998958727E+02 0.  0.
        -13    1    5    5    0    0 -0.27146590375E+02 -0.39626566124E+01 -0.11184557422E+02  0.29626581665E+02  0.00000000000E+00 0.  1.
         14    1    5    5    0    0 -0.14838031694E+02 -0.27070505714E+01  0.87604981652E+02  0.88893914964E+02  0.00000000000E+00 0. -1.
         13    1    3    3    0    0 -0.36093426207E+01 -0.14719945912E+02 -0.76847250281E+01  0.16992915011E+02  0.00000000000E+00 0. -1.
        -14    1    3    3    0    0 -0.41700201968E+02  0.42559533667E+02 -0.27427313877E+03  0.28067058165E+03  0.00000000000E+00 0.  1.
          5    1    4    4  501    0 -0.14296353665E+02  0.38666011729E+01 -0.27320128897E+02  0.31355991066E+02  0.41800000000E+01 0.  1.
         -5    1    4    4    0  501  0.10159052032E+03 -0.25036481744E+02  0.78692192807E+02  0.13098623151E+03  0.41800000000E+01 0.  1.
</event>
<event>
11    1  0.6625361E-009  0.1416341E+03  0.7561462E-02  0.1105747E+00
         22   -1    0    0    0    0  0.00000000000E+00  0.00000000000E+00  0.12432483471E+04  0.12432483471E+04  0.00000000000E+00 0. -1.
         22   -1    0    0    0    0 -0.00000000000E+00 -0.00000000000E+00 -0.84809840570E+02  0.84809840570E+02  0.00000000000E+00 0. -1.
        -24    2    1    2    0    0 -0.37056520070E+01 -0.44894134660E+02 -0.12157226192E+02  0.10501565205E+03  0.94081208768E+02 0.  0.
         25    2    1    2    0    0  0.68142951554E+02  0.54371293402E+02  0.22572962943E+03  0.27239823212E+03  0.12508889585E+03 0.  0.
         24    2    1    2    0    0 -0.64437299547E+02 -0.94771587417E+01  0.94486610332E+03  0.95064430353E+03  0.81918596914E+02 0.  0.
        -11    1    5    5    0    0 -0.54042111488E+02  0.87006833645E+01  0.27203722772E+03  0.27748964840E+03  0.00000000000E+00 0.  1.
         12    1    5    5    0    0 -0.10395188059E+02 -0.18177842106E+02  0.67282887560E+03  0.67315465512E+03  0.00000000000E+00 0. -1.
         11    1    3    3    0    0 -0.29248450694E+01 -0.21076080061E+02 -0.53344141170E+02  0.57431291702E+02  0.00000000000E+00 0. -1.
        -12    1    3    3    0    0 -0.78080693763E+00 -0.23818054599E+02  0.41186914978E+02  0.47584360349E+02  0.00000000000E+00 0.  1.
          5    1    4    4  501    0 -0.35906758232E+02  0.39384864826E+01  0.45839517894E+02  0.58511031125E+02  0.41800000000E+01 0.  1.
         -5    1    4    4    0  501  0.10404970979E+03  0.50432806920E+02  0.17989011154E+03  0.21388720099E+03  0.41800000000E+01 0.  1.
</event>
<event>
11    1  0.6625361E-009  0.1498137E+03  0.7561462E-02  0.1097069E+00
         22   -1    0    0    0    0  0.00000000000E+00  0.00000000000E+00  0.21449169207E+03  0.21449169207E+03  0.00000000000E+00 0. -1.
         22   -1    0    0    0    0 -0.00000000000E+00 -0.00000000000E+00 -0.87910631775E+03  0.87910631775E+03  0.00000000000E+00 0. -1.
         24    2    1    2    0    0 -0.64588298909E+02 -0.47711988687E+02 -0.42759183436E+03  0.44256220903E+03  0.81107643513E+02 0.  0.
         25    2    1    2    0    0  0.46882455719E+02 -0.35205043891E+02 -0.41531403546E+03  0.43768836165E+03  0.12509194258E+03 0.  0.
        -24    2    1    2    0    0  0.17705843191E+02  0.82917032578E+02  0.17829124414E+03  0.21334743914E+03  0.80874166918E+02 0.  0.
        -11    1    3    3    0    0 -0.97884060927E+01 -0.57619344677E+02 -0.21818578907E+03  0.22587793236E+03  0.00000000000E+00 0.  1.
         12    1    3    3    0    0 -0.54799892816E+02  0.99073559905E+01 -0.20940604528E+03  0.21668427667E+03  0.00000000000E+00 0. -1.
         13    1    5    5    0    0 -0.25019406638E+02  0.67089655405E+02  0.10784281043E+03  0.12944908008E+03  0.00000000000E+00 0. -1.
        -14    1    5    5    0    0  0.42725249828E+02  0.15827377173E+02  0.70448433710E+02  0.83898359061E+02  0.00000000000E+00 0.  1.
          5    1    4    4  501    0  0.44955862973E+02  0.36509202659E+02 -0.26215959829E+03  0.26851271640E+03  0.41800000000E+01 0. -1.
         -5    1    4    4    0  501  0.19265927453E+01 -0.71714246550E+02 -0.15315443717E+03  0.16917564524E+03  0.41800000000E+01 0. -1.
</event>
<event>
11    1  0.6625361E-009  0.1420516E+03  0.7561462E-02  0.1105289E+00
         22   -1    0    0    0    0  0.00000000000E+00  0.00000000000E+00  0.90310168416E+03  0.90310168416E+03  0.00000000000E+00 0.  1.
         22   -1    0    0    0    0 -0.00000000000E+00 -0.00000000000E+00 -0.26519678408E+03  0.26519678408E+03  0.00000000000E+00 0. -1.
         24    2    1    2    0    0 -0.57494104831E+02  0.29700017950E+02 -0.18399661915E+03  0.21196818608E+03  0.82994535344E+02 0.  0.
         25    2    1    2    0    0  0.52591590713E+02 -0.78910777392E+02  0.31209391413E+02  0.16005302602E+03  0.12510059482E+03 0.  0.
        -24    2    1    2    0    0  0.49025141178E+01  0.49210759442E+02  0.79069212781E+03  0.79627725613E+03  0.80110512127E+02 0.  0.
        -13    1    3    3    0    0 -0.12133380108E+02 -0.20700002738E+02 -0.10571116384E+03  0.10839999625E+03  0.00000000000E+00 0.  1.
         14    1    3    3    0    0 -0.45360724723E+02  0.50400020688E+02 -0.78285455303E+02  0.10356818983E+03  0.00000000000E+00 0. -1.
         13    1    5    5    0    0  0.34750958152E+01 -0.88722555423E+01  0.11555807110E+02  0.14977646253E+02  0.00000000000E+00 0. -1.
        -14    1    5    5    0    0  0.14274183027E+01  0.58083014984E+02  0.77913632070E+03  0.78129960988E+03  0.00000000000E+00 0.  1.
          5    1    4    4  501    0  0.53805396480E+02  0.14945843781E+02  0.34968776939E+02  0.66020350630E+02  0.41800000000E+01 0.  1.
         -5    1    4    4    0  501 -0.12138057662E+01 -0.93856621173E+02 -0.37593855267E+01  0.94032675395E+02  0.41800000000E+01 0.  1.
</event>
<event>
11    1  0.6625361E-009  0.1369730E+03  0.7561462E-02  0.1110986E+00
         22   -1    0    0    0    0  0.00000000000E+00  0.00000000000E+00  0.79820008006E+03  0.79820008006E+03  0.00000000000E+00 0.  1.
         22   -1    0    0    0    0 -0.00000000000E+00 -0.00000000000E+00 -0.81342425032E+02  0.81342425032E+02  0.00000000000E+00 0.  1.
         24    2    1    2    0    0  0.13411150852E+02 -0.12916201558E+02 -0.30091062391E+02  0.86877581043E+02  0.79344532403E+02 0.  0.
         25    2    1    2    0    0 -0.31497355415E+02  0.62038726049E+02  0.26384938975E+03  0.30017303663E+03  0.12508582862E+03 0.  0.
        -24    2    1    2    0    0  0.18086204562E+02 -0.49122524491E+02  0.48309932767E+03  0.49249188742E+03  0.80144654045E+02 0.  0.
        -13    1    3    3    0    0  0.41957779652E+02 -0.12068121943E+02 -0.37299668975E+02  0.57422644890E+02  0.00000000000E+00 0.  1.
         14    1    3    3    0    0 -0.28546628800E+02 -0.84807961469E+00  0.72086065843E+01  0.29454936153E+02  0.00000000000E+00 0. -1.
         13    1    5    5    0    0 -0.85737833252E+01  0.95069764405E+01  0.13917431190E+02  0.18909977590E+02  0.00000000000E+00 0. -1.
        -14    1    5    5    0    0  0.26659987888E+02 -0.58629500931E+02  0.46918189648E+03  0.47358190983E+03  0.00000000000E+00 0.  1.
          5    1    4    4  501    0 -0.40109341847E+02 -0.27908794578E+02  0.12690241842E+03  0.13604909526E+03  0.41800000000E+01 0. -1.
         -5    1    4    4    0  501  0.86119864328E+01  0.89947520626E+02  0.13694697133E+03  0.16412394138E+03  0.41800000000E+01 0. -1.
</event>
<event>
11    1  0.6625361E-009  0.2016847E+03  0.7561462E-02  0.1053339E+00
         22   -1    0    0    0    0  0.00000000000E+00  0.00000000000E+00  0.67798760634E+03  0.67798760634E+03  0.00000000000E+00 0. -1.
         22   -1    0    0    0    0 -0.00000000000E+00 -0.00000000000E+00 -0.47336244831E+03  0.47336244831E+03  0.00000000000E+00 0. -1.
        -24    2    1    2    0    0 -0.16594761019E+03 -0.25008760194E+02 -0.40381575286E+03  0.44532523861E+03  0.84162690459E+02 0.  0.
         25    2    1    2    0    0  0.88777080775E+02  0.24798446544E+02  0.10200764620E+03  0.18587358044E+03  0.12508834878E+03 0.  0.
         24    2    1    2    0    0  0.77170529415E+02  0.21031365049E+00  0.50643326470E+03  0.52015123560E+03  0.90151658149E+02 0.  0.
        -13    1    5    5    0    0  0.41435804673E+02 -0.36000571699E+02  0.14297382109E+03  0.15314855725E+03  0.00000000000E+00 0.  1.
         14    1    5    5    0    0  0.35734724742E+02  0.36210885349E+02  0.36345944360E+03  0.36700267835E+03  0.00000000000E+00 0. -1.
         11    1    3    3    0    0 -0.12683835889E+03  0.10672247632E+02 -0.22138977120E+03  0.25537285867E+03  0.00000000000E+00 0. -1.
        -12    1    3    3    0    0 -0.39109251305E+02 -0.35681007826E+02 -0.18242598166E+03  0.18995237993E+03  0.00000000000E+00 0.  1.
          5    1    4    4  501    0  0.33799428766E+02 -0.11422929353E+02  0.11337685035E+03  0.11893135539E+03  0.41800000000E+01 0.  1.
         -5    1    4    4    0  501  0.54977652009E+02  0.36221375896E+02 -0.11369204145E+02  0.66942225054E+02  0.41800000000E+01 0.  1.
</event>
<event>
11    1  0.6625361E-009  0.1504997E+03  0.7561462E-02  0.1096369E+00
         22   -1    0    0    0    0  0.00000000000E+00  0.00000000000E+00  0.10038538644E+04  0.10038538644E+04  0.00000000000E+00 0.  1.
         22   -1    0    0    0    0 -0.00000000000E+00 -0.00000000000E+00 -0.14153465876E+03  0.14153465876E+03  0.00000000000E+00 0. -1.
        -24    2    1    2    0    0 -0.15201692911E+02 -0.39494200372E+02 -0.78559372335E+02  0.12128429164E+03  0.82142687355E+02 0.  0.
         25    2    1    2    0    0  0.58181885411E+02 -0.35216411955E+02  0.97236039875E+02  0.17241981074E+03  0.12509362983E+03 0.  0.
         24    2    1    2    0    0 -0.42980192500E+02  0.74710612327E+02  0.84364253814E+03  0.85168442082E+03  0.78769587880E+02 0.  0.
        -11    1    5    5    0    0 -0.57937228954E+02  0.33897041615E+02  0.63653599237E+03  0.64006546659E+03  0.00000000000E+00 0.  1.
         12    1    5    5    0    0  0.14957036455E+02  0.40813570712E+02  0.20710654576E+03  0.21161895424E+03  0.00000000000E+00 0. -1.
         11    1    3    3    0    0  0.13982970369E+01 -0.63111834386E+02 -0.59064116628E+02  0.86450151806E+02  0.00000000000E+00 0. -1.
        -12    1    3    3    0    0 -0.16599989948E+02  0.23617634014E+02 -0.19495255707E+02  0.34834139831E+02  0.00000000000E+00 0.  1.
          5    1    4    4  501    0  0.19317394809E+02 -0.23556202479E+02  0.12124797468E+03  0.12508637089E+03  0.41800000000E+01 0.  1.
         -5    1    4    4    0  501  0.38864490602E+02 -0.11660209476E+02 -0.24011934808E+02  0.47333439850E+02  0.41800000000E+01 0.  1.
</event>
<event>
11    1  0.6625361E-009  0.2341329E+03  0.7561462E-02  0.1032709E+00
         22   -1    0    0    0    0  0.00000000000E+00  0.00000000000E+00  0.58287145663E+03  0.58287145663E+03  0.00000000000E+00 0. -1.
         22   -1    0    0    0    0 -0.00000000000E+00 -0.00000000000E+00 -0.13747329912E+03  0.13747329912E+03  0.00000000000E+00 0.  1.
         24    2    1    2    0    0 -0.26454931334E+02  0.22283582446E+03  0.11352793318E+03  0.26480306455E+03  0.82924081696E+02 0.  0.
         25    2    1    2    0    0 -0.12010006695E+02 -0.16280752491E+03  0.22124445940E+03  0.30207074067E+03  0.12508833329E+03 0.  0.
        -24    2    1    2    0    0  0.38464938029E+02 -0.60028299552E+02  0.11062576493E+03  0.15347095053E+03  0.78945073216E+02 0.  0.
        -13    1    3    3    0    0  0.24622745719E+02  0.12189171447E+03  0.75363118963E+02  0.14540794120E+03  0.00000000000E+00 0.  1.
         14    1    3    3    0    0 -0.51077677054E+02  0.10094410999E+03  0.38164814215E+02  0.11939512335E+03  0.00000000000E+00 0. -1.
         13    1    5    5    0    0  0.14571311494E+01 -0.44109209650E+02  0.10355700575E+03  0.11256908566E+03  0.00000000000E+00 0. -1.
        -14    1    5    5    0    0  0.37007806880E+02 -0.15919089902E+02  0.70687591843E+01  0.40901864869E+02  0.00000000000E+00 0.  1.
          5    1    4    4  501    0  0.18700686192E+02 -0.23618458206E+02  0.12830201450E+03  0.13185759955E+03  0.41800000000E+01 0. -1.
         -5    1    4    4    0  501 -0.30710692887E+02 -0.13918906671E+03  0.92942444894E+02  0.17021314112E+03  0.41800000000E+01 0. -1.
</event>
<event>
11    1  0.6625361E-009  0.1365067E+03  0.7561462E-02  0.1111523E+00
         22   -1    0    0    0    0  0.00000000000E+00  0.00000000000E+00  0.15649209495E+03  0.15649209495E+03  0.00000000000E+00 0. -1.
         22   -1    0    0    0    0 -0.00000000000E+00 -0.00000000000E+00 -0.39876391675E+03  0.39876391675E+03  0.00000000000E+00 0. -1.
        -24    2    1    2    0    0 -0.18822408644E+02 -0.47069534021E+02 -0.14318445697E+03  0.17214525322E+03  0.81008489621E+02 0.  0.
         25    2    1    2    0    0 -0.38136581026E+01  0.63875250634E+02 -0.20348826065E+03  0.24728493144E+03  0.12509106069E+03 0.  0.
         24    2    1    2    0    0  0.22636066746E+02 -0.16805716613E+02  0.10440089581E+03  0.13582582704E+03  0.82184454830E+02 0.  0.
        -11    1    5    5    0    0 -0.79493835810E+01  0.28932897579E+02  0.24113930156E+02  0.38493985105E+02  0.00000000000E+00 0.  1.
         12    1    5    5    0    0  0.30585450327E+02 -0.45738614193E+02  0.80286965655E+02  0.97331841933E+02  0.00000000000E+00 0. -1.
         11    1    3    3    0    0 -0.41687531229E+02 -0.71496410604E+01 -0.10191204968E+03  0.11034053425E+03  0.00000000000E+00 0. -1.
        -12    1    3    3    0    0  0.22865122586E+02 -0.39919892961E+02 -0.41272407282E+02  0.61804718976E+02  0.00000000000E+00 0.  1.
          5    1    4    4  501    0 -0.34232321609E+02  0.71371875135E+02 -0.57529822666E+02  0.97943602645E+02  0.41800000000E+01 0.  1.
         -5    1    4    4    0  501  0.30418663506E+02 -0.74966245011E+01 -0.14595843798E+03  0.14934132879E+03  0.41800000000E+01 0.  1.
</event>
<event>
11    1  0.6625361E-009  0.1635763E+03  0.7561462E-02  0.1083761E+00
         22   -1    0    0    0    0  0.00000000000E+00  0.00000000000E+00  0.13557368239E+04  0.13557368239E+04  0.00000000000E+00 0. -1.
         22   -1    0    0    0    0 -0.00000000000E+00 -0.00000000000E+00 -0.12538116388E+03  0.12538116388E+03  0.00000000000E+00 0. -1.
        -24    2    1    2    0    0  0.37096077764E+02 -0.42373431190E+01 -0.79734789395E+02  0.12185216098E+03  0.84239173980E+02 0.  0.
         25    2    1    2    0    0 -0.13168432858E+03 -0.25277131439E+02  0.39886698185E+03  0.43900160505E+03  0.12509134365E+03 0.  0.
         24    2    1    2    0    0  0.94588250820E+02  0.29514474558E+02  0.91122346760E+03  0.92026422180E+03  0.82097433660E+02 0.  0.
        -13    1    5    5    0    0  0.21475962776E+02 -0.26229545925E+02  0.34043315850E+03  0.34211685352E+03  0.00000000000E+00 0.  1.
         14    1    5    5    0    0  0.73112288044E+02  0.55744020483E+02  0.57079030911E+03  0.57814736828E+03  0.00000000000E+00 0. -1.
         11    1    3    3    0    0  0.61967987735E+02 -0.16423908941E+02 -0.60355105791E+02  0.88048367866E+02  0.00000000000E+00 0. -1.
        -12    1    3    3    0    0 -0.24871909971E+02  0.12186565822E+02 -0.19379683605E+02  0.33803793112E+02  0.00000000000E+00 0.  1.
          5    1    4    4  501    0 -0.13257125223E+03 -0.32281816130E+02  0.21322918409E+03  0.25318256243E+03  0.41800000000E+01 0.  1.
         -5    1    4    4    0  501  0.88692364898E+00  0.70046846910E+01  0.18563779777E+03  0.18581904262E+03  0.41800000000E+01 0.  1.
</event>
<event>
11    1  0.6625361E-009  0.1439186E+03  0.7561462E-02  0.1103260E+00
         22   -1    0    0    0    0  0.00000000000E+00  0.00000000000E+00  0.11976788840E+04  0.11976788840E+04  0.00000000000E+00 0.  1.
         22   -1    0    0    0    0 -0.00000000000E+00 -0.00000000000E+00 -0.82180407752E+02  0.82180407752E+02  0.00000000000E+00 0. -1.
        -24    2    1    2    0    0  0.65787278130E+02  0.14838555651E+02 -0.21456634937E+01  0.10444365633E+03  0.79722799619E+02 0.  0.
         25    2    1    2    0    0 -0.69261304753E+02 -0.81477752986E+02  0.23601571455E+03  0.28772699644E+03  0.12509058477E+03 0.  0.
         24    2    1    2    0    0  0.34740266226E+01  0.66639197336E+02  0.88162842522E+03  0.88768863901E+03  0.79180731135E+02 0.  0.
        -11    1    5    5    0    0 -0.86126764145E+01  0.33425360221E+02  0.76603594795E+03  0.76681321484E+03  0.00000000000E+00 0.  1.
         12    1    5    5    0    0  0.12086703037E+02  0.33213837115E+02  0.11559247727E+03  0.12087542417E+03  0.00000000000E+00 0. -1.
         11    1    3    3    0    0  0.41926257690E+02  0.45750597476E+02 -0.14036245597E+02  0.63623458282E+02  0.00000000000E+00 0. -1.
        -12    1    3    3    0    0  0.23861020440E+02 -0.30912041826E+02  0.11890582103E+02  0.40820198052E+02  0.00000000000E+00 0.  1.
          5    1    4    4  501    0 -0.57306804816E+02 -0.10283903613E+03  0.11657536765E+03  0.16573239265E+03  0.41800000000E+01 0.  1.
         -5    1    4    4    0  501 -0.11954499937E+02  0.21361283143E+02  0.11944034690E+03  0.12199460379E+03  0.41800000000E+01 0.  1.
</event>
<event>
11    1  0.6625361E-009  0.1403351E+03  0.7561462E-02  0.1107185E+00
         22   -1    0    0    0    0  0.00000000000E+00  0.00000000000E+00  0.79296650478E+03  0.79296650478E+03  0.00000000000E+00 0.  1.
         22   -1    0    0    0    0 -0.00000000000E+00 -0.00000000000E+00 -0.18226126050E+04  0.18226126050E+04  0.00000000000E+00 0. -1.
        -24    2    1    2    0    0 -0.29130165619E+02  0.47640488772E+02 -0.11830290013E+04  0.11868234077E+04  0.76642026723E+02 0.  0.
         25    2    1    2    0    0 -0.30024366558E+02 -0.23607401497E+02 -0.62759207670E+03  0.64107546217E+03  0.12508861445E+03 0.  0.
         24    2    1    2    0    0  0.59154532177E+02 -0.24033087275E+02  0.78097497783E+03  0.78768023993E+03  0.80258310574E+02 0.  0.
        -11    1    5    5    0    0  0.47301063237E+02 -0.27499520330E+02  0.76732245406E+03  0.76927066934E+03  0.00000000000E+00 0.  1.
         12    1    5    5    0    0  0.11853468940E+02  0.34664330547E+01  0.13652523777E+02  0.18409570595E+02  0.00000000000E+00 0. -1.
         13    1    3    3    0    0 -0.32081982501E+02  0.63985081887E+02 -0.10881517762E+04  0.10905033849E+04  0.00000000000E+00 0. -1.
        -14    1    3    3    0    0  0.29518168814E+01 -0.16344593115E+02 -0.94877225105E+02  0.96320022792E+02  0.00000000000E+00 0.  1.
          5    1    4    4  501    0 -0.18737828948E+02 -0.71623631787E+02 -0.47227020148E+03  0.47805613318E+03  0.41800000000E+01 0.  1.
         -5    1    4    4    0  501 -0.11286537610E+02  0.48016230291E+02 -0.15532187522E+03  0.16301932899E+03  0.41800000000E+01 0.  1.
</event>
<event>
11    1  0.6625361E-009  0.1404456E+03  0.7561462E-02  0.1107062E+00
         22   -1    0    0    0    0  0.00000000000E+00  0.00000000000E+00  0.55129302537E+03  0.55129302537E+03  0.00000000000E+00 0.  1.
         22   -1    0    0    0    0 -0.00000000000E+00 -0.00000000000E+00 -0.16884043594E+04  0.16884043594E+04  0.00000000000E+00 0. -1.
        -24    2    1    2    0    0  0.38848387658E+02  0.57977840124E+01 -0.16183779654E+04  0.16197865834E+04  0.54941110014E+02 0.  0.
         25    2    1    2    0    0 -0.98095355583E+02 -0.18937028216E+02  0.36946529678E+02  0.16428792011E+03  0.12507663576E+03 0.  0.
         24    2    1    2    0    0  0.59246967925E+02  0.13139244204E+02  0.44432010161E+03  0.45562288128E+03  0.80554418240E+02 0.  0.
        -11    1    5    5    0    0  0.77272113083E+02  0.38915115839E+01  0.29682226678E+03  0.30674025067E+03  0.00000000000E+00 0.  1.
         12    1    5    5    0    0 -0.18025145158E+02  0.92477326201E+01  0.14749783483E+03  0.14888263061E+03  0.00000000000E+00 0. -1.
         13    1    3    3    0    0  0.45305634475E+02 -0.10827081026E+02 -0.91746650510E+03  0.91864825378E+03  0.00000000000E+00 0. -1.
        -14    1    3    3    0    0 -0.64572468176E+01  0.16624865038E+02 -0.70091146025E+03  0.70113832964E+03  0.00000000000E+00 0.  1.
          5    1    4    4  501    0 -0.40373533166E+02  0.29268908204E+02  0.66630776159E+02  0.83329609980E+02  0.41800000000E+01 0. -1.
         -5    1    4    4    0  501 -0.57721822417E+02 -0.48205936420E+02 -0.29684246482E+02  0.80958310126E+02  0.41800000000E+01 0. -1.
</event>
<event>
11    1  0.6625361E-009  0.2017042E+03  0.7561462E-02  0.1053325E+00
         22   -1    0    0    0    0  0.00000000000E+00  0.00000000000E+00  0.97879697509E+03  0.97879697509E+03  0.00000000000E+00 0. -1.
         22   -1    0    0    0    0 -0.00000000000E+00 -0.00000000000E+00 -0.25446731352E+04  0.25446731352E+04  0.00000000000E+00 0. -1.
         24    2    1    2    0    0  0.41132913969E+02  0.54866425513E+02 -0.23997332146E+04  0.24021997058E+04  0.84508484772E+02 0.  0.
         25    2    1    2    0    0 -0.13579660897E+03  0.73368235234E+02 -0.61720616428E+02  0.20803974333E+03  0.12508990112E+03 0.  0.
        -24    2    1    2    0    0  0.94663695006E+02 -0.12823466075E+03  0.89557767095E+03  0.91323066112E+03  0.80780767084E+02 0.  0.
        -13    1    3    3    0    0  0.31378106531E+02  0.71571411327E+01 -0.27023039191E+03  0.27214017519E+03  0.00000000000E+00 0.  1.
         14    1    3    3    0    0  0.97548074380E+01  0.47709284381E+02 -0.21295028227E+04  0.21300595307E+04  0.00000000000E+00 0. -1.
         11    1    5    5    0    0  0.44080833618E+02 -0.40885843625E+02  0.54814766911E+03  0.55143507257E+03  0.00000000000E+00 0. -1.
        -12    1    5    5    0    0  0.50582861388E+02 -0.87348817122E+02  0.34743000184E+03  0.36179558856E+03  0.00000000000E+00 0.  1.
          5    1    4    4  501    0 -0.48625222875E+02  0.55331876696E+02  0.30464514317E+02  0.79822226923E+02  0.41800000000E+01 0. -1.
         -5    1    4    4    0  501 -0.87171386100E+02  0.18036358538E+02 -0.92185130745E+02  0.12821751641E+03  0.41800000000E+01 0. -1.
</event>
<event>
11    1  0.6625361E-009  0.1467521E+03  0.7561462E-02  0.1100244E+00
         22   -1    0    0    0    0  0.00000000000E+00  0.00000000000E+00  0.58615545713E+02  0.58615545713E+02  0.00000000000E+00 0. -1.
         22   -1    0    0    0    0 -0.00000000000E+00 -0.00000000000E+00 -0.15763953825E+04  0.15763953825E+04  0.00000000000E+00 0.  1.
         24    2    1    2    0    0 -0.30879104209E+01  0.81717740267E+01 -0.10451205282E+04  0.10480983694E+04  0.78466300768E+02 0.  0.
         25    2    1    2    0    0  0.74393941996E+02 -0.34429386002E+02 -0.44869562025E+03  0.47296435961E+03  0.12509070550E+03 0.  0.
        -24    2    1    2    0    0 -0.71306031575E+02  0.26257611975E+02 -0.23963688355E+02  0.11394819924E+03  0.81461165133E+02 0.  0.
        -11    1    3    3    0    0 -0.40467751161E+02  0.93908123173E+01 -0.55757154165E+03  0.55911702737E+03  0.00000000000E+00 0.  1.
         12    1    3    3    0    0  0.37379840740E+02 -0.12190382907E+01 -0.48754898655E+03  0.48898134201E+03  0.00000000000E+00 0. -1.
         13    1    5    5    0    0 -0.77957359702E+02  0.96701200276E+01  0.62943220255E+01  0.78806596442E+02  0.00000000000E+00 0. -1.
        -14    1    5    5    0    0  0.66513281273E+01  0.16587491948E+02 -0.30258010381E+02  0.35141602798E+02  0.00000000000E+00 0.  1.
          5    1    4    4  501    0  0.63494861697E+02  0.29712999208E+02 -0.33147916889E+03  0.33883679197E+03  0.41800000000E+01 0.  1.
         -5    1    4    4    0  501  0.10899080298E+02 -0.64142385211E+02 -0.11721645137E+03  0.13412756765E+03  0.41800000000E+01 0.  1.
</event>
<event>
11    1  0.6625361E-009  0.1559763E+03  0.7561462E-02  0.1090924E+00
         22   -1    0    0    0    0  0.00000000000E+00  0.00000000000E+00  0.44961501266E+03  0.44961501266E+03  0.00000000000E+00 0. -1.
         22   -1    0    0    0    0 -0.00000000000E+00 -0.00000000000E+00 -0.42650682578E+03  0.42650682578E+03  0.00000000000E+00 0. -1.
         24    2    1    2    0    0 -0.85544708791E+02 -0.34201815301E+02 -0.32659138414E+03  0.34911082081E+03  0.82029090203E+02 0.  0.
         25    2    1    2    0    0  0.71799729126E+02  0.88311383358E+02  0.58344298085E+01  0.16921811608E+03  0.12508648490E+03 0.  0.
        -24    2    1    2    0    0  0.13744979665E+02 -0.54109568057E+02  0.34386514121E+03  0.35779290156E+03  0.81582812185E+02 0.  0.
        -11    1    3    3    0    0 -0.10302109489E+02  0.24832808610E+02 -0.56087693390E+02  0.62198321466E+02  0.00000000000E+00 0.  1.
         12    1    3    3    0    0 -0.75242599302E+02 -0.59034623911E+02 -0.27050369075E+03  0.28691249934E+03  0.00000000000E+00 0. -1.
         11    1    5    5    0    0  0.38694714945E+02 -0.57899855294E+02  0.20115192517E+03  0.21286561772E+03  0.00000000000E+00 0. -1.
        -12    1    5    5    0    0 -0.24949735280E+02  0.37902872373E+01  0.14271321604E+03  0.14492728384E+03  0.00000000000E+00 0.  1.
          5    1    4    4  501    0  0.70662033386E+02  0.30119924221E+01  0.34925691459E+02  0.78990324626E+02  0.41800000000E+01 0. -1.
         -5    1    4    4    0  501  0.11376957400E+01  0.85299390936E+02 -0.29091261650E+02  0.90227791450E+02  0.41800000000E+01 0. -1.
</event>
<event>
11    1  0.6625361E-009  0.3057090E+03  0.7561462E-02  0.9978036E-01
         22   -1    0    0    0    0  0.00000000000E+00  0.00000000000E+00  0.10044815134E+04  0.10044815134E+04  0.00000000000E+00 0. -1.
         22   -1    0    0    0    0 -0.00000000000E+00 -0.00000000000E+00 -0.10155395884E+04  0.10155395884E+04  0.00000000000E+00 0.  1.
        -24    2    1    2    0    0  0.16220011302E+03 -0.21960469300E+03 -0.54276693512E+03  0.61270110865E+03  0.79193464580E+02 0.  0.
         25    2    1    2    0    0 -0.79797958862E+02  0.29127545890E+03 -0.37100850875E+03  0.49447256658E+03  0.12508676326E+03 0.  0.
         24    2    1    2    0    0 -0.82402154158E+02 -0.71670765900E+02  0.90271736894E+03  0.91284742657E+03  0.80404989348E+02 0.  0.
        -13    1    5    5    0    0 -0.48754707568E+02 -0.85844125525E+02  0.62739054013E+03  0.63511032525E+03  0.00000000000E+00 0.  1.
         14    1    5    5    0    0 -0.33647446590E+02  0.14173359624E+02  0.27532682881E+03  0.27773710131E+03  0.00000000000E+00 0. -1.
         11    1    3    3    0    0  0.72094787832E+02 -0.42125821555E+02 -0.13097272060E+03  0.15532577641E+03  0.00000000000E+00 0. -1.
        -12    1    3    3    0    0  0.90105325188E+02 -0.17747887144E+03 -0.41179421451E+03  0.45737533224E+03  0.00000000000E+00 0.  1.
          5    1    4    4  501    0 -0.10844974951E+03  0.22426207246E+03 -0.31936435527E+03  0.40505047726E+03  0.41800000000E+01 0.  1.
         -5    1    4    4    0  501  0.28651790653E+02  0.67013386442E+02 -0.51644153485E+02  0.89422089325E+02  0.41800000000E+01 0. -1.
</event>
<event>
11    1  0.6625361E-009  0.1844271E+03  0.7561462E-02  0.1066117E+00
         22   -1    0    0    0    0  0.00000000000E+00  0.00000000000E+00  0.17465977429E+03  0.17465977429E+03  0.00000000000E+00 0. -1.
         22   -1    0    0    0    0 -0.00000000000E+00 -0.00000000000E+00 -0.77029281129E+03  0.77029281129E+03  0.00000000000E+00 0. -1.
         24    2    1    2    0    0 -0.98901169612E+02 -0.98207782648E+02 -0.54050276137E+03  0.56424236975E+03  0.82462154053E+02 0.  0.
         25    2    1    2    0    0  0.99599695019E+02  0.74034322241E+02 -0.16527618291E+03  0.24158929793E+03  0.12509193467E+03 0.  0.
        -24    2    1    2    0    0 -0.69852540608E+00  0.24173460407E+02  0.11014590727E+03  0.13912091790E+03  0.81471864977E+02 0.  0.
        -13    1    3    3    0    0 -0.83946652297E+02 -0.27496719104E+02 -0.26086233509E+03  0.27541290431E+03  0.00000000000E+00 0.  1.
         14    1    3    3    0    0 -0.14954517315E+02 -0.70711063544E+02 -0.27964042628E+03  0.28882946544E+03  0.00000000000E+00 0. -1.
         13    1    5    5    0    0 -0.32607275289E+02  0.35763943964E+02  0.81096389760E+02  0.94440026058E+02  0.00000000000E+00 0. -1.
        -14    1    5    5    0    0  0.31908749883E+02 -0.11590483557E+02  0.29049517511E+02  0.44680891842E+02  0.00000000000E+00 0.  1.
          5    1    4    4  501    0  0.13227225896E+02 -0.28237474514E+02 -0.71432860131E+02  0.78054086237E+02  0.41800000000E+01 0. -1.
         -5    1    4    4    0  501  0.86372469123E+02  0.10227179675E+03 -0.93843322777E+02  0.16353521169E+03  0.41800000000E+01 0. -1.
</event>
<event>
11    1  0.6625361E-009  0.1339796E+03  0.7561462E-02  0.1114474E+00
         22   -1    0    0    0    0  0.00000000000E+00  0.00000000000E+00  0.53945711103E+03  0.53945711103E+03  0.00000000000E+00 0.  1.
         22   -1    0    0    0    0 -0.00000000000E+00 -0.00000000000E+00 -0.42975114549E+03  0.42975114549E+03  0.00000000000E+00 0.  1.
        -24    2    1    2    0    0 -0.34985663179E+02  0.36014069335E+02 -0.38216929392E+03  0.39402265056E+03  0.81728025340E+02 0.  0.
         25    2    1    2    0    0  0.63700190051E+01 -0.49241422932E+01  0.69262396193E+02  0.14321583891E+03  0.12509465484E+03 0.  0.
         24    2    1    2    0    0  0.28615644173E+02 -0.31089927042E+02  0.42261286327E+03  0.43196976704E+03  0.78808684695E+02 0.  0.
        -11    1    5    5    0    0  0.23160190060E+02  0.21554572137E+02  0.23192855422E+03  0.23407658629E+03  0.00000000000E+00 0.  1.
         12    1    5    5    0    0  0.54554541132E+01 -0.52644499178E+02  0.19068430905E+03  0.19789318076E+03  0.00000000000E+00 0. -1.
         11    1    3    3    0    0  0.26412854069E+02  0.54814185890E+01 -0.12416575074E+03  0.12706226217E+03  0.00000000000E+00 0. -1.
        -12    1    3    3    0    0 -0.61398517247E+02  0.30532650746E+02 -0.25800354317E+03  0.26696038840E+03  0.00000000000E+00 0.  1.
          5    1    4    4  501    0 -0.42791447116E+02  0.15025515021E+02 -0.11054095714E+02  0.46867253813E+02  0.41800000000E+01 0. -1.
         -5    1    4    4    0  501  0.49161466121E+02 -0.19949657314E+02  0.80316491907E+02  0.96348585098E+02  0.41800000000E+01 0. -1.
</event>
<event>
11    1  0.6625361E-009  0.1510380E+03  0.7561462E-02  0.1095823E+00
         22   -1    0    0    0    0  0.00000000000E+00  0.00000000000E+00  0.49138244535E+03  0.49138244535E+03  0.00000000000E+00 0. -1.
         22   -1    0    0    0    0 -0.00000000000E+00 -0.00000000000E+00 -0.65179338570E+03  0.65179338570E+03  0.00000000000E+00 0.  1.
         24    2    1    2    0    0  0.23435371224E+02 -0.94301409330E+01 -0.59563063056E+03  0.60213549963E+03  0.84576401360E+02 0.  0.
         25    2    1    2    0    0 -0.21087643260E+02 -0.76915623013E+02  0.84001455469E+02  0.17048382168E+03  0.12509111548E+03 0.  0.
        -24    2    1    2    0    0 -0.23477279633E+01  0.86345763946E+02  0.35121823475E+03  0.37055650974E+03  0.80602578843E+02 0.  0.
        -13    1    3    3    0    0  0.12751979973E+02  0.36794975451E+02 -0.33130620269E+03  0.33358699487E+03  0.00000000000E+00 0.  1.
         14    1    3    3    0    0  0.10683391251E+02 -0.46225116384E+02 -0.26432442787E+03  0.26854850475E+03  0.00000000000E+00 0. -1.
         11    1    5    5    0    0  0.33486199115E+02  0.48125349843E+02  0.24759325444E+03  0.25444015892E+03  0.00000000000E+00 0. -1.
        -12    1    5    5    0    0 -0.35833927078E+02  0.38220414103E+02  0.10362498031E+03  0.11611635082E+03  0.00000000000E+00 0.  1.
          5    1    4    4  501    0  0.37472951415E+02 -0.30945927814E+02 -0.10711720856E+02  0.49940823979E+02  0.41800000000E+01 0.  1.
         -5    1    4    4    0  501 -0.58560594675E+02 -0.45969695200E+02  0.94713176325E+02  0.12054299770E+03  0.41800000000E+01 0.  1.
</event>
<event>
11    1  0.6625361E-009  0.1415458E+03  0.7561462E-02  0.1105844E+00
         22   -1    0    0    0    0  0.00000000000E+00  0.00000000000E+00  0.25969659967E+04  0.25969659967E+04  0.00000000000E+00 0. -1.
         22   -1    0    0    0    0 -0.00000000000E+00 -0.00000000000E+00 -0.37037876857E+02  0.37037876857E+02  0.00000000000E+00 0. -1.
         24    2    1    2    0    0  0.26696299638E+02 -0.58493236451E+02  0.10488386594E+03  0.14680989607E+03  0.80114724762E+02 0.  0.
         25    2    1    2    0    0  0.11602200466E+01  0.76934742702E+02  0.33840736296E+03  0.36890127579E+03  0.12509319417E+03 0.  0.
        -24    2    1    2    0    0 -0.27856519684E+02 -0.18441506251E+02  0.21166368910E+04  0.21182927017E+04  0.76786503635E+02 0.  0.
        -13    1    3    3    0    0  0.18191499584E+02  0.37681409587E+01  0.74925721448E+02  0.77194515853E+02  0.00000000000E+00 0.  1.
         14    1    3    3    0    0  0.85048000540E+01 -0.62261377410E+02  0.29958144495E+02  0.69615380215E+02  0.00000000000E+00 0. -1.
         13    1    5    5    0    0 -0.22469205216E+02 -0.44978453530E+02  0.93949229489E+03  0.94083670136E+03  0.00000000000E+00 0. -1.
        -14    1    5    5    0    0 -0.53873144677E+01  0.26536947280E+02  0.11771445961E+04  0.11774560004E+04  0.00000000000E+00 0.  1.
          5    1    4    4  501    0  0.30046002667E+01  0.32221665855E+02  0.56422528294E+01  0.33114510267E+02  0.41800000000E+01 0.  1.
         -5    1    4    4    0  501 -0.18443802200E+01  0.44713076847E+02  0.33276511013E+03  0.33578676552E+03  0.41800000000E+01 0.  1.
</event>
<event>
11    1  0.6625361E-009  0.1343273E+03  0.7561462E-02  0.1114064E+00
         22   -1    0    0    0    0  0.00000000000E+00  0.00000000000E+00  0.17180551223E+04  0.17180551223E+04  0.00000000000E+00 0. -1.
         22   -1    0    0    0    0 -0.00000000000E+00 -0.00000000000E+00 -0.25384992993E+03  0.25384992993E+03  0.00000000000E+00 0. -1.
         24    2    1    2    0    0 -0.46343820049E+01  0.47968612507E+02 -0.22965645238E+03  0.24789552850E+03  0.79922722983E+02 0.  0.
         25    2    1    2    0    0 -0.46249622318E+01 -0.83402454026E+02  0.40365906508E+03  0.43077588734E+03  0.12509941917E+03 0.  0.
        -24    2    1    2    0    0  0.92593442367E+01  0.35433841519E+02  0.12902025797E+04  0.12932336364E+04  0.80555875699E+02 0.  0.
        -13    1    3    3    0    0  0.26732924159E+02 -0.79718893910E+01 -0.89838483441E+02  0.94069938671E+02  0.00000000000E+00 0.  1.
         14    1    3    3    0    0 -0.31367306164E+02  0.55940501897E+02 -0.13981796894E+03  0.15382558983E+03  0.00000000000E+00 0. -1.
         11    1    5    5    0    0  0.26676132420E+02  0.51351257188E+02  0.11079467976E+04  0.11094569275E+04  0.00000000000E+00 0. -1.
        -12    1    5    5    0    0 -0.17416788183E+02 -0.15917415669E+02  0.18225578204E+03  0.18377670886E+03  0.00000000000E+00 0.  1.
          5    1    4    4  501    0 -0.16861519985E+02  0.30736855915E+02  0.84766266154E+02  0.91825146041E+02  0.41800000000E+01 0. -1.
         -5    1    4    4    0  501  0.12236557753E+02 -0.11413930994E+03  0.31889279892E+03  0.33895074130E+03  0.41800000000E+01 0. -1.
</event>
<event>
11    1  0.6625361E-009  0.1423268E+03  0.7561462E-02  0.1104988E+00
         22   -1    0    0    0    0  0.00000000000E+00  0.00000000000E+00  0.14847852676E+03  0.14847852676E+03  0.00000000000E+00 0.  1.
         22   -1    0    0    0    0 -0.00000000000E+00 -0.00000000000E+00 -0.76593676864E+03  0.76593676864E+03  0.00000000000E+00 0. -1.
         24    2    1    2    0    0  0.58301870935E+02  0.97828779673E+01 -0.41816564836E+03  0.43006709552E+03  0.81242749361E+02 0.  0.
         25    2    1    2    0    0 -0.13751071925E+02 -0.63444630943E+02 -0.30402124094E+03  0.33509833641E+03  0.12509063493E+03 0.  0.
        -24    2    1    2    0    0 -0.44550799009E+02  0.53661752975E+02  0.10472864742E+03  0.14924986347E+03  0.80268765597E+02 0.  0.
        -11    1    3    3    0    0 -0.94160044295E+01 -0.23282794833E+02 -0.10520214169E+03  0.10815840370E+03  0.00000000000E+00 0.  1.
         12    1    3    3    0    0  0.67717875364E+02  0.33065672800E+02 -0.31296350667E+03  0.32190869182E+03  0.00000000000E+00 0. -1.
         11    1    5    5    0    0  0.23409291105E+02  0.17227602876E+02  0.32400149245E+02  0.43526484834E+02  0.00000000000E+00 0. -1.
        -12    1    5    5    0    0 -0.67960090115E+02  0.36434150100E+02  0.72328498173E+02  0.10572337863E+03  0.00000000000E+00 0.  1.
          5    1    4    4  501    0  0.20915751834E+02 -0.91782163462E+02 -0.22904234623E+03  0.24766772695E+03  0.41800000000E+01 0. -1.
         -5    1    4    4    0  501 -0.34666823759E+02  0.28337532520E+02 -0.74978894707E+02  0.87430609459E+02  0.41800000000E+01 0. -1.
</event>
<event>
11    1  0.6625361E-009  0.1542340E+03  0.7561462E-02  0.1092629E+00
         22   -1    0    0    0    0  0.00000000000E+00  0.00000000000E+00  0.54109291990E+03  0.54109291990E+03  0.00000000000E+00 0.  1.
         22   -1    0    0    0    0 -0.00000000000E+00 -0.00000000000E+00 -0.15464035966E+04  0.15464035966E+04  0.00000000000E+00 0.  1.
         24    2    1    2    0    0  0.29296036811E+02 -0.85564335851E+02 -0.13832287540E+04  0.13884934639E+04  0.80079960347E+02 0.  0.
         25    2    1    2    0    0  0.82557357994E+01  0.94138974429E+02 -0.11513452237E+03  0.19451145099E+03  0.12509373544E+03 0.  0.
        -24    2    1    2    0    0 -0.37551772610E+02 -0.85746385772E+01  0.49305259966E+03  0.50449160162E+03  0.99635586100E+02 0.  0.
        -13    1    3    3    0    0  0.90869597561E+01 -0.21979104551E+02 -0.93724215107E+03  0.93754386757E+03  0.00000000000E+00 0.  1.
         14    1    3    3    0    0  0.20209077055E+02 -0.63585231300E+02 -0.44598660293E+03  0.45094959633E+03  0.00000000000E+00 0. -1.
         11    1    5    5    0    0 -0.25965184030E+02 -0.26017289190E+02  0.56296604155E+02  0.67233903337E+02  0.00000000000E+00 0. -1.
        -12    1    5    5    0    0 -0.11586588580E+02  0.17442650613E+02  0.43675599550E+03  0.43725769828E+03  0.00000000000E+00 0.  1.
          5    1    4    4  501    0 -0.37102273252E+02  0.30281766779E+02 -0.10492237520E+03  0.11541118359E+03  0.41800000000E+01 0.  1.
         -5    1    4    4    0  501  0.45358009051E+02  0.63857207650E+02 -0.10212147174E+02  0.79100267407E+02  0.41800000000E+01 0.  1.
</event>
<event>
11    1  0.6625361E-009  0.1308728E+03  0.7561462E-02  0.1118201E+00
         22   -1    0    0    0    0  0.00000000000E+00  0.00000000000E+00  0.27615359145E+04  0.27615359145E+04  0.00000000000E+00 0. -1.
         22   -1    0    0    0    0 -0.00000000000E+00 -0.00000000000E+00 -0.10214274235E+04  0.10214274235E+04  0.00000000000E+00 0.  1.
        -24    2    1    2    0    0 -0.48574659711E+01 -0.88166856366E+01 -0.98132146125E+03  0.98560352759E+03  0.91220471181E+02 0.  0.
         25    2    1    2    0    0 -0.78715578816E+01 -0.27802918652E+02  0.73864754896E+02  0.14809722347E+03  0.12506726940E+03 0.  0.
         24    2    1    2    0    0  0.12729023853E+02  0.36619604289E+02  0.26475651974E+04  0.26492625869E+04  0.86531823316E+02 0.  0.
        -11    1    5    5    0    0 -0.11932777190E+02 -0.24085237203E+02  0.10694254096E+04  0.10697631497E+04  0.00000000000E+00 0.  1.
         12    1    5    5    0    0  0.24661801042E+02  0.60704841492E+02  0.15781397878E+04  0.15794994372E+04  0.00000000000E+00 0. -1.
         11    1    3    3    0    0  0.17463636616E+02  0.36658870171E+02 -0.48878018190E+03  0.49046398195E+03  0.00000000000E+00 0. -1.
        -12    1    3    3    0    0 -0.22321102587E+02 -0.45475555808E+02 -0.49254127935E+03  0.49513954564E+03  0.00000000000E+00 0.  1.
          5    1    4    4  501    0 -0.44399942186E+02 -0.10220467473E+01  0.89498407090E+02  0.99999183583E+02  0.41800000000E+01 0. -1.
         -5    1    4    4    0  501  0.36528384304E+02 -0.26780871905E+02 -0.15633652194E+02  0.48098039885E+02  0.41800000000E+01 0. -1.
</event>
<event>
11    1  0.1733387E-008  0.1620226E+03  0.7561462E-02  0.1085190E+00
         22   -1    0    0    0    0  0.00000000000E+00  0.00000000000E+00  0.21106197874E+04  0.21106197874E+04  0.00000000000E+00 0.  1.
         22   -1    0    0    0    0 -0.00000000000E+00 -0.00000000000E+00 -0.10199686546E+04  0.10199686546E+04  0.00000000000E+00 0. -1.
         24    2    1    2    0    0  0.35188999437E+02  0.27285808900E+02 -0.65462811892E+03  0.66173399977E+03  0.85855292943E+02 0.  0.
         25    2    1    2    0    0 -0.98389486400E+02 -0.10827148899E+03 -0.33397816986E+03  0.38547686760E+03  0.12509113138E+03 0.  0.
        -24    2    1    2    0    0  0.63200486963E+02  0.80985680087E+02  0.20792574215E+04  0.20833775746E+04  0.81226298225E+02 0.  0.
        -11    1    3    3    0    0 -0.15701391897E+01 -0.27993199400E+02 -0.26636174743E+03  0.26783327844E+03  0.00000000000E+00 0.  1.
         12    1    3    3    0    0  0.36759138627E+02  0.55279008300E+02 -0.38826637149E+03  0.39390072133E+03  0.00000000000E+00 0. -1.
         13    1    5    5    0    0  0.13482184361E+02 -0.10528863336E+02  0.10580989920E+03  0.10718377222E+03  0.00000000000E+00 0. -1.
        -14    1    5    5    0    0  0.49718302602E+02  0.91514543423E+02  0.19734475223E+04  0.19761938024E+04  0.00000000000E+00 0.  1.
          5    1    4    4  501    0  0.29420465442E+02 -0.18059034204E+02 -0.78819073862E+02  0.86148774267E+02  0.41800000000E+01 0. -1.
         -5    1    4    4    0  501 -0.12780995184E+03 -0.90212454783E+02 -0.25515909600E+03  0.29932809334E+03  0.41800000000E+01 0. -1.
</event>
<event>
11    1  0.6625361E-009  0.1317186E+03  0.7561462E-02  0.1117175E+00
         22   -1    0    0    0    0  0.00000000000E+00  0.00000000000E+00  0.40815207023E+03  0.40815207023E+03  0.00000000000E+00 0.  1.
         22   -1    0    0    0    0 -0.00000000000E+00 -0.00000000000E+00 -0.22623047331E+03  0.22623047331E+03  0.00000000000E+00 0.  1.
         24    2    1    2    0    0 -0.90132967349E+01 -0.60551953508E+01 -0.16979063342E+03  0.18847739167E+03  0.81098477580E+02 0.  0.
         25    2    1    2    0    0  0.47178250917E+02 -0.66661628240E+01  0.72330791024E+02  0.15214837782E+03  0.12508861042E+03 0.  0.
        -24    2    1    2    0    0 -0.38164954182E+02  0.12721358175E+02  0.27938143932E+03  0.29375677404E+03  0.81367419634E+02 0.  0.
        -11    1    3    3    0    0  0.21323966845E+02  0.25853092950E+02 -0.44720733097E+02  0.55884147536E+02  0.00000000000E+00 0.  1.
         12    1    3    3    0    0 -0.30337263580E+02 -0.31908288301E+02 -0.12506990032E+03  0.13259324414E+03  0.00000000000E+00 0. -1.
         11    1    5    5    0    0 -0.30159590100E+02  0.12158365518E+02  0.29989338166E+02  0.44235586700E+02  0.00000000000E+00 0. -1.
        -12    1    5    5    0    0 -0.80053640820E+01  0.56299265651E+00  0.24939210115E+03  0.24952118734E+03  0.00000000000E+00 0.  1.
          5    1    4    4  501    0  0.18062752522E+02 -0.51076338772E+02  0.81643869684E+02  0.98072673401E+02  0.41800000000E+01 0.  1.
         -5    1    4    4    0  501  0.29115498395E+02  0.44410175948E+02 -0.93130786592E+01  0.54075704421E+02  0.41800000000E+01 0.  1.
</event>
<event>
11    1  0.6625361E-009  0.1420519E+03  0.7561462E-02  0.1105288E+00
         22   -1    0    0    0    0  0.00000000000E+00  0.00000000000E+00  0.14771924534E+04  0.14771924534E+04  0.00000000000E+00 0.  1.
         22   -1    0    0    0    0 -0.00000000000E+00 -0.00000000000E+00 -0.35036508722E+03  0.35036508722E+03  0.00000000000E+00 0.  1.
        -24    2    1    2    0    0 -0.45348868542E+02 -0.53690438406E+02 -0.30156562519E+03  0.31940813964E+03  0.78361663573E+02 0.  0.
         25    2    1    2    0    0  0.31494617297E+02  0.13722674027E+02  0.71237041135E+02  0.14799307486E+03  0.12508801492E+03 0.  0.
         24    2    1    2    0    0  0.13854251246E+02  0.39967764379E+02  0.13571559503E+04  0.13601563261E+04  0.79772148720E+02 0.  0.
        -13    1    5    5    0    0  0.19819031549E+02  0.31054846837E+02  0.13353271270E+04  0.13358352195E+04  0.00000000000E+00 0.  1.
         14    1    5    5    0    0 -0.59647803032E+01  0.89129175419E+01  0.21828823249E+02  0.24321106628E+02  0.00000000000E+00 0. -1.
         13    1    3    3    0    0  0.61109108794E+01 -0.13833052257E+02 -0.52197639694E+01  0.15998203100E+02  0.00000000000E+00 0. -1.
        -14    1    3    3    0    0 -0.51459779422E+02 -0.39857386149E+02 -0.29634586122E+03  0.30340993654E+03  0.00000000000E+00 0.  1.
          5    1    4    4  501    0 -0.39006077815E+02 -0.22599286249E+02  0.69218964858E+01  0.45799420263E+02  0.41800000000E+01 0.  1.
         -5    1    4    4    0  501  0.70500695112E+02  0.36321960276E+02  0.64315144649E+02  0.10219365460E+03  0.41800000000E+01 0.  1.
</event>
<event>
11    1  0.6625361E-009  0.1589580E+03  0.7561462E-02  0.1088061E+00
         22   -1    0    0    0    0  0.00000000000E+00  0.00000000000E+00  0.28601199723E+04  0.28601199723E+04  0.00000000000E+00 0.  1.
         22   -1    0    0    0    0 -0.00000000000E+00 -0.00000000000E+00 -0.15941816555E+03  0.15941816555E+03  0.00000000000E+00 0.  1.
         24    2    1    2    0    0 -0.17381290589E+02  0.64186255527E+01 -0.14012650149E+03  0.16406329500E+03  0.83294779735E+02 0.  0.
         25    2    1    2    0    0  0.97758868638E+01 -0.10112562019E+03  0.18609679432E+04  0.18679321612E+04  0.12508762643E+03 0.  0.
        -24    2    1    2    0    0  0.76054037253E+01  0.94706994637E+02  0.97986036504E+03  0.98754268162E+03  0.78018946788E+02 0.  0.
        -13    1    3    3    0    0  0.88854294963E+00 -0.33690300473E+01 -0.14308444142E+03  0.14312685719E+03  0.00000000000E+00 0.  1.
         14    1    3    3    0    0 -0.18269833539E+02  0.97876555999E+01  0.29579399319E+01  0.20936437813E+02  0.00000000000E+00 0. -1.
         11    1    5    5    0    0 -0.60234660694E+01  0.23748518250E+02  0.59452156179E+02  0.64302668194E+02  0.00000000000E+00 0. -1.
        -12    1    5    5    0    0  0.13628869795E+02  0.70958476387E+02  0.92040820886E+03  0.92324001343E+03  0.00000000000E+00 0.  1.
          5    1    4    4  501    0 -0.37056383869E+02 -0.46999111570E+02  0.14121291007E+04  0.14134030428E+04  0.41800000000E+01 0. -1.
         -5    1    4    4    0  501  0.46832270733E+02 -0.54126508620E+02  0.44883884251E+03  0.45452911839E+03  0.41800000000E+01 0. -1.
</event>
<event>
11    1  0.6625361E-009  0.1539182E+03  0.7561462E-02  0.1092941E+00
         22   -1    0    0    0    0  0.00000000000E+00  0.00000000000E+00  0.12942046121E+04  0.12942046121E+04  0.00000000000E+00 0.  1.
         22   -1    0    0    0    0 -0.00000000000E+00 -0.00000000000E+00 -0.16069559227E+03  0.16069559227E+03  0.00000000000E+00 0. -1.
        -24    2    1    2    0    0 -0.16147691437E+02  0.13372525959E+02 -0.12509197935E+03  0.15133354304E+03  0.82548564862E+02 0.  0.
         25    2    1    2    0    0  0.77625919605E+02 -0.73816735367E+02  0.34230972175E+03  0.37987297955E+03  0.12511131513E+03 0.  0.
         24    2    1    2    0    0 -0.61478228168E+02  0.60444209407E+02  0.91629127745E+03  0.92369368180E+03  0.78658996075E+02 0.  0.
        -13    1    5    5    0    0 -0.67958485745E+02  0.49740454833E+02  0.89532798948E+03  0.89928008839E+03  0.00000000000E+00 0.  1.
         14    1    5    5    0    0  0.64802575779E+01  0.10703754574E+02  0.20963287973E+02  0.24413593404E+02  0.00000000000E+00 0. -1.
         13    1    3    3    0    0 -0.12325384669E+02  0.47874149270E+02 -0.61720319589E+02  0.79077475464E+02  0.00000000000E+00 0. -1.
        -14    1    3    3    0    0 -0.38223067683E+01 -0.34501623310E+02 -0.63371659763E+02  0.72256067574E+02  0.00000000000E+00 0.  1.
          5    1    4    4  501    0  0.80409778192E+02 -0.36374236933E+02  0.95159937647E+02  0.12985262290E+03  0.41800000000E+01 0. -1.
         -5    1    4    4    0  501 -0.27838585867E+01 -0.37442498433E+02  0.24714978410E+03  0.25002035665E+03  0.41800000000E+01 0. -1.
</event>
<event>
11    1  0.6625361E-009  0.1521517E+03  0.7561462E-02  0.1094700E+00
         22   -1    0    0    0    0  0.00000000000E+00  0.00000000000E+00  0.67534007438E+03  0.67534007438E+03  0.00000000000E+00 0.  1.
         22   -1    0    0    0    0 -0.00000000000E+00 -0.00000000000E+00 -0.29445085906E+03  0.29445085906E+03  0.00000000000E+00 0.  1.
         24    2    1    2    0    0 -0.14379347206E+02 -0.74718649695E+02 -0.12969275941E+03  0.17080809294E+03  0.81028084842E+02 0.  0.
         25    2    1    2    0    0  0.31655336264E+02  0.10810933717E+03 -0.90802756440E+02  0.19126619764E+03  0.12509168111E+03 0.  0.
        -24    2    1    2    0    0 -0.17275989058E+02 -0.33390687480E+02  0.60138473116E+03  0.60771664286E+03  0.79009653365E+02 0.  0.
        -13    1    3    3    0    0 -0.37529598467E+01 -0.72185665783E+02 -0.13886011770E+03  0.15654707707E+03  0.00000000000E+00 0.  1.
         14    1    3    3    0    0 -0.10626387360E+02 -0.25329839123E+01  0.91673582863E+01  0.14261015874E+02  0.00000000000E+00 0. -1.
         13    1    5    5    0    0 -0.75093998265E+01 -0.33132003663E+02  0.89377460197E+02  0.95616165703E+02  0.00000000000E+00 0. -1.
        -14    1    5    5    0    0 -0.97665892315E+01 -0.25868381681E+00  0.51200727097E+03  0.51210047716E+03  0.00000000000E+00 0.  1.
          5    1    4    4  501    0  0.47330654349E+02 -0.10615760406E+01 -0.60263169207E+02  0.76749200306E+02  0.41800000000E+01 0. -1.
         -5    1    4    4    0  501 -0.15675318084E+02  0.10917091322E+03 -0.30539587233E+02  0.11451699733E+03  0.41800000000E+01 0. -1.
</event>
<event>
11    1  0.6625361E-009  0.1964882E+03  0.7561462E-02  0.1057035E+00
         22   -1    0    0    0    0  0.00000000000E+00  0.00000000000E+00  0.26987249515E+03  0.26987249515E+03  0.00000000000E+00 0. -1.
         22   -1    0    0    0    0 -0.00000000000E+00 -0.00000000000E+00 -0.23308588780E+03  0.23308588780E+03  0.00000000000E+00 0.  1.
        -24    2    1    2    0    0  0.70135207839E+02 -0.97552748618E+00 -0.51826670318E+02  0.11779486647E+03  0.79181612622E+02 0.  0.
         25    2    1    2    0    0 -0.56739744118E+02  0.15103740619E+03  0.43403805218E+02  0.20871901937E+03  0.12509213447E+03 0.  0.
         24    2    1    2    0    0 -0.13395463721E+02 -0.15006187870E+03  0.45209472450E+02  0.17644449711E+03  0.79942218343E+02 0.  0.
        -11    1    5    5    0    0 -0.26449340954E+02 -0.71560355079E+02  0.58010655235E+02  0.95841995892E+02  0.00000000000E+00 0.  1.
         12    1    5    5    0    0  0.13053877232E+02 -0.78501523624E+02 -0.12801182784E+02  0.80602501219E+02  0.00000000000E+00 0. -1.
         11    1    3    3    0    0 -0.13564191020E+02 -0.13573392800E+02 -0.13323208513E+01  0.19235367139E+02  0.00000000000E+00 0. -1.
        -12    1    3    3    0    0  0.83699398859E+02  0.12597865313E+02 -0.50494349467E+02  0.98559499328E+02  0.00000000000E+00 0.  1.
          5    1    4    4  501    0  0.16126610292E+02  0.21780727492E+02 -0.32069157165E+02  0.42194441469E+02  0.41800000000E+01 0.  1.
         -5    1    4    4    0  501 -0.72866354410E+02  0.12925667870E+03  0.75472962383E+02  0.16652457790E+03  0.41800000000E+01 0.  1.
</event>
<event>
11    1  0.6625361E-009  0.2017473E+03  0.7561462E-02  0.1053295E+00
         22   -1    0    0    0    0  0.00000000000E+00  0.00000000000E+00  0.11340249344E+04  0.11340249344E+04  0.00000000000E+00 0. -1.
         22   -1    0    0    0    0 -0.00000000000E+00 -0.00000000000E+00 -0.16057104332E+04  0.16057104332E+04  0.00000000000E+00 0. -1.
         24    2    1    2    0    0 -0.44494061845E+01 -0.53580125998E+02 -0.15311624884E+04  0.15342487464E+04  0.81055677167E+02 0.  0.
         25    2    1    2    0    0  0.11570696503E+03 -0.64491082038E+02  0.63075846287E+02  0.19280368175E+03  0.12508995121E+03 0.  0.
        -24    2    1    2    0    0 -0.11125755885E+03  0.11807120804E+03  0.99640114339E+03  0.10126829394E+04  0.79952753163E+02 0.  0.
        -11    1    3    3    0    0  0.27090278574E+00  0.21502758260E+02 -0.27831929494E+03  0.27914883474E+03  0.00000000000E+00 0.  1.
         12    1    3    3    0    0 -0.47203089703E+01 -0.75082884258E+02 -0.12528431935E+04  0.12550999116E+04  0.00000000000E+00 0. -1.
         13    1    5    5    0    0 -0.70346381941E+02  0.10739861157E+03  0.86940984145E+03  0.87883818057E+03  0.00000000000E+00 0. -1.
        -14    1    5    5    0    0 -0.40911176906E+02  0.10672596468E+02  0.12699130194E+03  0.13384475888E+03  0.00000000000E+00 0.  1.
          5    1    4    4  501    0  0.99602906346E+01 -0.30972188660E+02 -0.32604682374E+02  0.46249557540E+02  0.41800000000E+01 0. -1.
         -5    1    4    4    0  501  0.10574667440E+03 -0.33518893378E+02  0.95680528662E+02  0.14655412421E+03  0.41800000000E+01 0. -1.
</event>
<event>
11    1  0.6625361E-009  0.1594845E+03  0.7561462E-02  0.1087563E+00
         22   -1    0    0    0    0  0.00000000000E+00  0.00000000000E+00  0.56144510401E+03  0.56144510401E+03  0.00000000000E+00 0. -1.
         22   -1    0    0    0    0 -0.00000000000E+00 -0.00000000000E+00 -0.55071562458E+03  0.55071562458E+03  0.00000000000E+00 0.  1.
        -24    2    1    2    0    0 -0.11454032916E+02 -0.11144719961E+03 -0.36249619714E+03  0.38778041783E+03  0.80115456300E+02 0.  0.
         25    2    1    2    0    0  0.90648418183E+01  0.67688829459E+02 -0.14190290895E+03  0.20111450642E+03  0.12508661053E+03 0.  0.
         24    2    1    2    0    0  0.23891910973E+01  0.43758370153E+02  0.51512858553E+03  0.52326580433E+03  0.80803088823E+02 0.  0.
        -11    1    5    5    0    0  0.39847751585E+02  0.32585061569E+02  0.24735829705E+03  0.25265738989E+03  0.00000000000E+00 0.  1.
         12    1    5    5    0    0 -0.37458560488E+02  0.11173308584E+02  0.26777028847E+03  0.27060841444E+03  0.00000000000E+00 0. -1.
         11    1    3    3    0    0 -0.32055752591E+02 -0.21840929257E+02 -0.58559675258E+02  0.70241248788E+02  0.00000000000E+00 0. -1.
        -12    1    3    3    0    0  0.20601719675E+02 -0.89606270355E+02 -0.30393652189E+03  0.31753916904E+03  0.00000000000E+00 0.  1.
          5    1    4    4  501    0 -0.72600634801E+01 -0.32603641238E+02 -0.11136526373E+02  0.35457024176E+02  0.41800000000E+01 0. -1.
         -5    1    4    4    0  501  0.16324905298E+02  0.10029247070E+03 -0.13076638258E+03  0.16565748225E+03  0.41800000000E+01 0. -1.
</event>
<event>
11    1  0.6625361E-009  0.1760559E+03  0.7561462E-02  0.1072879E+00
         22   -1    0    0    0    0  0.00000000000E+00  0.00000000000E+00  0.37144651431E+04  0.37144651431E+04  0.00000000000E+00 0. -1.
         22   -1    0    0    0    0 -0.00000000000E+00 -0.00000000000E+00 -0.38604149565E+03  0.38604149565E+03  0.00000000000E+00 0.  1.
        -24    2    1    2    0    0  0.17526969071E+02  0.25074914521E+02 -0.36902622096E+03  0.37874609546E+03  0.79575794609E+02 0.  0.
         25    2    1    2    0    0  0.95236150880E+02  0.35337268231E+02  0.61744485112E+03  0.63812866193E+03  0.12510554762E+03 0.  0.
         24    2    1    2    0    0 -0.11276311995E+03 -0.60412182751E+02  0.30800050173E+04  0.30836318814E+04  0.77391989657E+02 0.  0.
        -11    1    5    5    0    0  0.90685517717E+01 -0.10490019429E+00  0.73855148540E+02  0.74409895855E+02  0.00000000000E+00 0.  1.
         12    1    5    5    0    0 -0.12183167172E+03 -0.60307282557E+02  0.30061498688E+04  0.30092219855E+04  0.00000000000E+00 0. -1.
         11    1    3    3    0    0  0.44036921989E+02 -0.58859459597E+01 -0.18501419686E+03  0.19027387603E+03  0.00000000000E+00 0. -1.
        -12    1    3    3    0    0 -0.26509952917E+02  0.30960860480E+02 -0.18401202410E+03  0.18847221944E+03  0.00000000000E+00 0.  1.
          5    1    4    4  501    0 -0.15487755325E+02  0.96125664164E+01  0.30583606341E+03  0.30640731401E+03  0.41800000000E+01 0.  1.
         -5    1    4    4    0  501  0.11072390620E+03  0.25724701814E+02  0.31160878771E+03  0.33172134792E+03  0.41800000000E+01 0.  1.
</event>
<event>
11    1  0.6625361E-009  0.1330966E+03  0.7561462E-02  0.1115522E+00
         22   -1    0    0    0    0  0.00000000000E+00  0.00000000000E+00  0.22764681619E+03  0.22764681619E+03  0.00000000000E+00 0. -1.
         22   -1    0    0    0    0 -0.00000000000E+00 -0.00000000000E+00 -0.11941127285E+04  0.11941127285E+04  0.00000000000E+00 0.  1.
         24    2    1    2    0    0  0.48164165372E+02 -0.18813308164E+02 -0.84104432180E+03  0.84640497470E+03  0.79825450727E+02 0.  0.
         25    2    1    2    0    0 -0.55524284836E+01  0.29348254228E+02 -0.32849215201E+03  0.35277172119E+03  0.12509453967E+03 0.  0.
        -24    2    1    2    0    0 -0.42611736888E+02 -0.10534946064E+02  0.20307056145E+03  0.22258284883E+03  0.79866929678E+02 0.  0.
        -11    1    3    3    0    0  0.35773999851E+02  0.18693238034E+02 -0.65353785552E+03  0.65478312807E+03  0.00000000000E+00 0.  1.
         12    1    3    3    0    0  0.12390165520E+02 -0.37506546198E+02 -0.18750646628E+03  0.19162184663E+03  0.00000000000E+00 0. -1.
         11    1    5    5    0    0 -0.12030837253E+02 -0.36777682720E+02  0.15548124800E+03  0.16022408517E+03  0.00000000000E+00 0. -1.
        -12    1    5    5    0    0 -0.30580899635E+02  0.26242736656E+02  0.47589313456E+02  0.62358763658E+02  0.00000000000E+00 0.  1.
          5    1    4    4  501    0  0.36526376005E+02 -0.50634870536E+01 -0.27104150969E+03  0.27357044325E+03  0.41800000000E+01 0. -1.
         -5    1    4    4    0  501 -0.42078804488E+02  0.34411741281E+02 -0.57450642321E+02  0.79201277946E+02  0.41800000000E+01 0. -1.
</event>
<event>
11    1  0.6625361E-009  0.2037682E+03  0.7561462E-02  0.1051891E+00
         22   -1    0    0    0    0  0.00000000000E+00  0.00000000000E+00  0.93748867893E+03  0.93748867893E+03  0.00000000000E+00 0.  1.
         22   -1    0    0    0    0 -0.00000000000E+00 -0.00000000000E+00 -0.16640288019E+03  0.16640288019E+03  0.00000000000E+00 0.  1.
        -24    2    1    2    0    0 -0.15314247611E+03  0.43859871743E+02 -0.46750358510E+01  0.17861747619E+03  0.80660030391E+02 0.  0.
         25    2    1    2    0    0  0.13568710505E+03 -0.10466971237E+03  0.87607158824E+02  0.22954098013E+03  0.12508920065E+03 0.  0.
         24    2    1    2    0    0  0.17455371062E+02  0.60809840623E+02  0.68815367577E+03  0.69573310279E+03  0.80539072187E+02 0.  0.
        -11    1    5    5    0    0  0.49506241990E+02  0.41828595732E+02  0.46422701744E+03  0.46872937090E+03  0.00000000000E+00 0.  1.
         12    1    5    5    0    0 -0.32050870928E+02  0.18981244891E+02  0.22392665833E+03  0.22700373190E+03  0.00000000000E+00 0. -1.
         11    1    3    3    0    0 -0.65420846437E+02  0.46022700965E+01  0.35358867505E+02  0.74507164419E+02  0.00000000000E+00 0. -1.
        -12    1    3    3    0    0 -0.87721629676E+02  0.39257601646E+02 -0.40033903356E+02  0.10411031178E+03  0.00000000000E+00 0.  1.
          5    1    4    4  501    0 -0.70147018817E+00 -0.17054719990E+02  0.63147440505E+02  0.65547137060E+02  0.41800000000E+01 0.  1.
         -5    1    4    4    0  501  0.13638857524E+03 -0.87614992376E+02  0.24459718318E+02  0.16399384307E+03  0.41800000000E+01 0.  1.
</event>
<event>
11    1  0.6625361E-009  0.1500825E+03  0.7561462E-02  0.1096795E+00
         22   -1    0    0    0    0  0.00000000000E+00  0.00000000000E+00  0.10162557264E+04  0.10162557264E+04  0.00000000000E+00 0. -1.
         22   -1    0    0    0    0 -0.00000000000E+00 -0.00000000000E+00 -0.53429257890E+02  0.53429257890E+02  0.00000000000E+00 0. -1.
        -24    2    1    2    0    0 -0.32317500743E+02  0.17066423652E+02  0.31751294156E+02  0.87434729067E+02  0.72807990604E+02 0.  0.
         25    2    1    2    0    0  0.73857107043E+02  0.53977087499E+02  0.27115905922E+03  0.31232305649E+03  0.12510019176E+03 0.  0.
         24    2    1    2    0    0 -0.41539606300E+02 -0.71043511151E+02  0.65991611512E+03  0.66992719873E+03  0.80873068629E+02 0.  0.
        -13    1    5    5    0    0  0.53403086330E+01  0.32911628834E+01  0.27638281258E+03  0.27645399209E+03  0.00000000000E+00 0.  1.
         14    1    5    5    0    0 -0.46879914933E+02 -0.74334674035E+02  0.38353330254E+03  0.39347320664E+03  0.00000000000E+00 0. -1.
         11    1    3    3    0    0 -0.12866650574E+02  0.38292130945E+02 -0.50494960548E+01  0.40710384421E+02  0.00000000000E+00 0. -1.
        -12    1    3    3    0    0 -0.19450850170E+02 -0.21225707293E+02  0.36800790211E+02  0.46724344646E+02  0.00000000000E+00 0.  1.
          5    1    4    4  501    0  0.98770057691E+02  0.45790134410E+02  0.13441009276E+03  0.17301966981E+03  0.41800000000E+01 0. -1.
         -5    1    4    4    0  501 -0.24912950648E+02  0.81869530889E+01  0.13674896646E+03  0.13930338668E+03  0.41800000000E+01 0. -1.
</event>
<event>
11    1  0.6625361E-009  0.1301953E+03  0.7561462E-02  0.1119029E+00
         22   -1    0    0    0    0  0.00000000000E+00  0.00000000000E+00  0.51276429625E+03  0.51276429625E+03  0.00000000000E+00 0.  1.
         22   -1    0    0    0    0 -0.00000000000E+00 -0.00000000000E+00 -0.17293597879E+03  0.17293597879E+03  0.00000000000E+00 0.  1.
        -24    2    1    2    0    0 -0.47504171605E+02 -0.64764578090E+01 -0.32486749728E+02  0.12048956635E+03  0.10565867625E+03 0.  0.
         25    2    1    2    0    0  0.85525544873E+01 -0.52603008252E+02 -0.37528098154E+02  0.14105180427E+03  0.12508809165E+03 0.  0.
         24    2    1    2    0    0  0.38951617118E+02  0.59079466061E+02  0.40984316534E+03  0.42415890442E+03  0.83257097214E+02 0.  0.
        -13    1    5    5    0    0  0.39821194185E+02  0.41185832858E+02  0.11222258969E+03  0.12599964274E+03  0.00000000000E+00 0.  1.
         14    1    5    5    0    0 -0.86957706734E+00  0.17893633203E+02  0.29762057565E+03  0.29815926168E+03  0.00000000000E+00 0. -1.
         11    1    3    3    0    0  0.47463608996E+01  0.35788671308E+02  0.14056054759E+02  0.38741832832E+02  0.00000000000E+00 0. -1.
        -12    1    3    3    0    0 -0.52250532505E+02 -0.42265129117E+02 -0.46542804486E+02  0.81747733520E+02  0.00000000000E+00 0.  1.
          5    1    4    4  501    0 -0.23921569106E+02  0.40882308012E+01 -0.65411987740E+02  0.69893888429E+02  0.41800000000E+01 0. -1.
         -5    1    4    4    0  501  0.32474123594E+02 -0.56691239054E+02  0.27883889587E+02  0.71157915843E+02  0.41800000000E+01 0. -1.
</event>
<event>
11    1  0.6625361E-009  0.1296897E+03  0.7561462E-02  0.1119651E+00
         22   -1    0    0    0    0  0.00000000000E+00  0.00000000000E+00  0.27059888243E+03  0.27059888243E+03  0.00000000000E+00 0. -1.
         22   -1    0    0    0    0 -0.00000000000E+00 -0.00000000000E+00 -0.37246735460E+04  0.37246735460E+04  0.00000000000E+00 0. -1.
         24    2    1    2    0    0 -0.40815332707E+02 -0.20254348277E+02 -0.36646907564E+04  0.36658137983E+04  0.78462307631E+02 0.  0.
         25    2    1    2    0    0  0.56394560027E+02 -0.63164959272E+01  0.68241273111E+02  0.15337998124E+03  0.12509317634E+03 0.  0.
        -24    2    1    2    0    0 -0.15579227320E+02  0.26570844204E+02  0.14237481967E+03  0.17607864895E+03  0.98916021214E+02 0.  0.
        -11    1    3    3    0    0 -0.46138573373E+02 -0.42677192097E+02 -0.20627170193E+04  0.20636742990E+04  0.00000000000E+00 0.  1.
         12    1    3    3    0    0  0.53232406660E+01  0.22422843820E+02 -0.16019737371E+04  0.16021394993E+04  0.00000000000E+00 0. -1.
         11    1    5    5    0    0 -0.49193333566E+02  0.28097909660E+02  0.12704188163E+03  0.13910110094E+03  0.00000000000E+00 0. -1.
        -12    1    5    5    0    0  0.33614106246E+02 -0.15270654563E+01  0.15332938042E+02  0.36977548007E+02  0.00000000000E+00 0.  1.
          5    1    4    4  501    0  0.87315250864E+02 -0.33404151421E+02  0.60239842992E+02  0.11129286342E+03  0.41800000000E+01 0.  1.
         -5    1    4    4    0  501 -0.30920690836E+02  0.27087655494E+02  0.80014301186E+01  0.42087117814E+02  0.41800000000E+01 0.  1.
</event>
<event>
11    1  0.6625361E-009  0.1430334E+03  0.7561462E-02  0.1104218E+00
         22   -1    0    0    0    0  0.00000000000E+00  0.00000000000E+00  0.19291494208E+03  0.19291494208E+03  0.00000000000E+00 0. -1.
         22   -1    0    0    0    0 -0.00000000000E+00 -0.00000000000E+00 -0.35114420080E+03  0.35114420080E+03  0.00000000000E+00 0.  1.
         24    2    1    2    0    0  0.74958987102E+01  0.70183945636E+02 -0.24288086025E+03  0.26532374345E+03  0.80147375754E+02 0.  0.
         25    2    1    2    0    0  0.38149230318E+02 -0.64326733280E+02 -0.95902171060E+01  0.14605597911E+03  0.12508830634E+03 0.  0.
        -24    2    1    2    0    0 -0.45645129028E+02 -0.58572123565E+01  0.94241818637E+02  0.13267942031E+03  0.81268219211E+02 0.  0.
        -11    1    3    3    0    0  0.63684651263E+01  0.87004221261E+02 -0.22174722716E+03  0.23829000109E+03  0.00000000000E+00 0.  1.
         12    1    3    3    0    0  0.11274335838E+01 -0.16820275625E+02 -0.21133633093E+02  0.27033742365E+02  0.00000000000E+00 0. -1.
         11    1    5    5    0    0 -0.55689547045E+02  0.16687436316E+02  0.90718726159E+02  0.10774824108E+03  0.00000000000E+00 0. -1.
        -12    1    5    5    0    0  0.10044418017E+02 -0.22544648673E+02  0.35230924786E+01  0.24931179228E+02  0.00000000000E+00 0.  1.
          5    1    4    4  501    0  0.17011369524E+02  0.37069640586E+02 -0.10760857725E+02  0.42388835856E+02  0.41800000000E+01 0.  1.
         -5    1    4    4    0  501  0.21137860793E+02 -0.10139637387E+03  0.11706406186E+01  0.10366714326E+03  0.41800000000E+01 0.  1.
</event>
<event>
11    1  0.6625361E-009  0.1274774E+03  0.7561462E-02  0.1122408E+00
         22   -1    0    0    0    0  0.00000000000E+00  0.00000000000E+00  0.62588628482E+03  0.62588628482E+03  0.00000000000E+00 0. -1.
         22   -1    0    0    0    0 -0.00000000000E+00 -0.00000000000E+00 -0.67626526008E+03  0.67626526008E+03  0.00000000000E+00 0.  1.
        -24    2    1    2    0    0  0.25701078345E+02 -0.11176443528E+01 -0.65329498763E+03  0.65830598423E+03  0.76880644192E+02 0.  0.
         25    2    1    2    0    0 -0.30907588293E+02  0.22368317459E+02  0.26626193200E+03  0.29664399401E+03  0.12508645855E+03 0.  0.
         24    2    1    2    0    0  0.52065099483E+01 -0.21250673107E+02  0.33665408038E+03  0.34720156666E+03  0.82062532237E+02 0.  0.
        -11    1    5    5    0    0  0.55813363230E+01  0.23313447968E+02  0.35928431922E+02  0.43191670397E+02  0.00000000000E+00 0.  1.
         12    1    5    5    0    0 -0.37482637473E+00 -0.44564121074E+02  0.30072564846E+03  0.30400989626E+03  0.00000000000E+00 0. -1.
         13    1    3    3    0    0  0.14672530017E+02  0.34397230547E+02 -0.19840712106E+03  0.20190056536E+03  0.00000000000E+00 0. -1.
        -14    1    3    3    0    0  0.11028548328E+02 -0.35514874900E+02 -0.45488786657E+03  0.45640541887E+03  0.00000000000E+00 0.  1.
          5    1    4    4  501    0 -0.48874607977E+02 -0.24832107301E+01  0.26059072107E+03  0.26517897720E+03  0.41800000000E+01 0. -1.
         -5    1    4    4    0  501  0.17967019683E+02  0.24851528189E+02  0.56712109257E+01  0.31465016813E+02  0.41800000000E+01 0. -1.
</event>
<event>
11    1  0.6625361E-009  0.1350627E+03  0.7561462E-02  0.1113200E+00
         22   -1    0    0    0    0  0.00000000000E+00  0.00000000000E+00  0.96440011670E+02  0.96440011670E+02  0.00000000000E+00 0. -1.
         22   -1    0    0    0    0 -0.00000000000E+00 -0.00000000000E+00 -0.22929394639E+04  0.22929394639E+04  0.00000000000E+00 0. -1.
        -24    2    1    2    0    0  0.18207302653E+02 -0.33612891210E+02 -0.20841517050E+04  0.20860033142E+04  0.79121205544E+02 0.  0.
         25    2    1    2    0    0 -0.60079274763E+02  0.39467667919E+01 -0.14626144354E+03  0.20165268616E+03  0.12508516996E+03 0.  0.
         24    2    1    2    0    0  0.41871972110E+02  0.29666124418E+02  0.33913696324E+02  0.10172347517E+03  0.81019661914E+02 0.  0.
        -13    1    5    5    0    0 -0.22894680184E+01  0.26885253850E+02 -0.18810199120E+02  0.32891976671E+02  0.00000000000E+00 0.  1.
         14    1    5    5    0    0  0.44161440128E+02  0.27808705683E+01  0.52723895444E+02  0.68831498503E+02  0.00000000000E+00 0. -1.
         11    1    3    3    0    0  0.47458798920E+02 -0.21029277646E+02 -0.96161414258E+03  0.96301418854E+03  0.00000000000E+00 0. -1.
        -12    1    3    3    0    0 -0.29251496267E+02 -0.12583613565E+02 -0.11225375624E+04  0.11229891257E+04  0.00000000000E+00 0.  1.
          5    1    4    4  501    0 -0.63208743732E+02  0.27809270118E+02 -0.18549701583E+02  0.71625865562E+02  0.41800000000E+01 0.  1.
         -5    1    4    4    0  501  0.31294689695E+01 -0.23862503326E+02 -0.12771174195E+03  0.13002682060E+03  0.41800000000E+01 0.  1.
</event>
<event>
11    1  0.6625361E-009  0.1333764E+03  0.7561462E-02  0.1115189E+00
         22   -1    0    0    0    0  0.00000000000E+00  0.00000000000E+00  0.95737412324E+03  0.95737412324E+03  0.00000000000E+00 0. -1.
         22   -1    0    0    0    0 -0.00000000000E+00 -0.00000000000E+00 -0.10972452895E+03  0.10972452895E+03  0.00000000000E+00 0.  1.
        -24    2    1    2    0    0 -0.28309714083E+02  0.74766591599E+01 -0.67590095146E+02  0.11064696282E+03  0.82565059657E+02 0.  0.
         25    2    1    2    0    0 -0.21820631373E+02 -0.14617670593E+02  0.21953830362E+03  0.25403612990E+03  0.12508985687E+03 0.  0.
         24    2    1    2    0    0  0.50130345455E+02  0.71410114334E+01  0.69570138583E+03  0.70241555947E+03  0.82602387203E+02 0.  0.
        -11    1    5    5    0    0 -0.11888730436E+01  0.36633929156E+02  0.31781771735E+03  0.31992430299E+03  0.00000000000E+00 0.  1.
         12    1    5    5    0    0  0.51319218499E+02 -0.29492917723E+02  0.37788366848E+03  0.38249125648E+03  0.00000000000E+00 0. -1.
         13    1    3    3    0    0  0.21072963615E+02  0.26731398650E+02 -0.32627211844E+02  0.47150529392E+02  0.00000000000E+00 0. -1.
        -14    1    3    3    0    0 -0.49382677698E+02 -0.19254739490E+02 -0.34962883302E+02  0.63496433429E+02  0.00000000000E+00 0.  1.
          5    1    4    4  501    0 -0.66292670443E+02 -0.38422506979E+02  0.12151584596E+03  0.14371701506E+03  0.41800000000E+01 0. -1.
         -5    1    4    4    0  501  0.44472039070E+02  0.23804836386E+02  0.98022457655E+02  0.11031911484E+03  0.41800000000E+01 0. -1.
</event>
<event>
11    1  0.6625361E-009  0.1375527E+03  0.7561462E-02  0.1110322E+00
         22   -1    0    0    0    0  0.00000000000E+00  0.00000000000E+00  0.62584114819E+03  0.62584114819E+03  0.00000000000E+00 0.  1.
         22   -1    0    0    0    0 -0.00000000000E+00 -0.00000000000E+00 -0.11597521905E+04  0.11597521905E+04  0.00000000000E+00 0. -1.
         24    2    1    2    0    0 -0.17126387482E+02 -0.32038045364E+02 -0.10269382385E+04  0.10307748653E+04  0.81085927814E+02 0.  0.
         25    2    1    2    0    0  0.26032594362E+02 -0.25443519095E+02 -0.93218320162E+02  0.16018403321E+03  0.12507677901E+03 0.  0.
        -24    2    1    2    0    0 -0.89062068798E+01  0.57481564459E+02  0.58624551630E+03  0.59463444026E+03  0.80764233290E+02 0.  0.
        -13    1    3    3    0    0 -0.75432517303E+01  0.10197389633E+01 -0.72698523067E+01  0.10525743051E+02  0.00000000000E+00 0.  1.
         14    1    3    3    0    0 -0.95831357516E+01 -0.33057784327E+02 -0.10196683862E+04  0.10202491222E+04  0.00000000000E+00 0. -1.
         11    1    5    5    0    0  0.49598307896E-01 -0.20758056091E+02  0.11730976480E+03  0.11913219662E+03  0.00000000000E+00 0. -1.
        -12    1    5    5    0    0 -0.89558051877E+01  0.78239620550E+02  0.46893575150E+03  0.47550224364E+03  0.00000000000E+00 0.  1.
          5    1    4    4  501    0  0.29553022125E+02 -0.74393059605E+02 -0.48692718322E+02  0.93787854500E+02  0.41800000000E+01 0. -1.
         -5    1    4    4    0  501 -0.35204277638E+01  0.48949540509E+02 -0.44525601841E+02  0.66396178708E+02  0.41800000000E+01 0. -1.
</event>
<event>
11    1  0.6625361E-009  0.1254411E+03  0.7561462E-02  0.1125001E+00
         22   -1    0    0    0    0  0.00000000000E+00  0.00000000000E+00  0.10185062824E+04  0.10185062824E+04  0.00000000000E+00 0. -1.
         22   -1    0    0    0    0 -0.00000000000E+00 -0.00000000000E+00 -0.12103709586E+03  0.12103709586E+03  0.00000000000E+00 0.  1.
         24    2    1    2    0    0  0.75271614974E+01  0.92912161503E+01 -0.81257735655E+02  0.11404379350E+03  0.79121314285E+02 0.  0.
         25    2    1    2    0    0 -0.16188112895E+02 -0.10293927729E+02  0.16606543695E+03  0.20878509314E+03  0.12508183650E+03 0.  0.
        -24    2    1    2    0    0  0.86609513973E+01  0.10027115783E+01  0.81266148529E+03  0.81671449165E+03  0.80795134073E+02 0.  0.
        -13    1    3    3    0    0  0.22720801133E+02  0.25530713033E+02 -0.84888789495E+02  0.91510429427E+02  0.00000000000E+00 0.  1.
         14    1    3    3    0    0 -0.15193639636E+02 -0.16239496883E+02  0.36310538395E+01  0.22533364072E+02  0.00000000000E+00 0. -1.
         13    1    5    5    0    0  0.30198705366E+02  0.29350551317E+02  0.55646566352E+03  0.55805685315E+03  0.00000000000E+00 0. -1.
        -14    1    5    5    0    0 -0.21537753969E+02 -0.28347839739E+02  0.25619582177E+03  0.25865763850E+03  0.00000000000E+00 0.  1.
          5    1    4    4  501    0 -0.70304739526E+02 -0.43619287685E+01  0.78142878204E+02  0.10528800804E+03  0.41800000000E+01 0.  1.
         -5    1    4    4    0  501  0.54116626631E+02 -0.59319989601E+01  0.87922558743E+02  0.10349708511E+03  0.41800000000E+01 0.  1.
</event>
<event>
11    1  0.6625361E-009  0.1442418E+03  0.7561462E-02  0.1102912E+00
         22   -1    0    0    0    0  0.00000000000E+00  0.00000000000E+00  0.39844788020E+03  0.39844788020E+03  0.00000000000E+00 0.  1.
         22   -1    0    0    0    0 -0.00000000000E+00 -0.00000000000E+00 -0.12693923402E+04  0.12693923402E+04  0.00000000000E+00 0. -1.
         24    2    1    2    0    0 -0.32417651237E+02  0.52740281888E+02 -0.12143089743E+04  0.12188749766E+04  0.85308160137E+02 0.  0.
         25    2    1    2    0    0 -0.37103171229E+02 -0.76683433777E+02  0.97134038708E+02  0.17983562359E+03  0.12509530648E+03 0.  0.
        -24    2    1    2    0    0  0.69520822466E+02  0.23943151889E+02  0.24623047555E+03  0.26912962021E+03  0.79968031780E+02 0.  0.
        -13    1    3    3    0    0  0.21520221084E+02 -0.12282415639E+01 -0.12086495821E+03  0.12277201072E+03  0.00000000000E+00 0.  1.
         14    1    3    3    0    0 -0.53937872321E+02  0.53968523452E+02 -0.10934440161E+04  0.10961029659E+04  0.00000000000E+00 0. -1.
         13    1    5    5    0    0 -0.10754999492E+02  0.23529151765E+02  0.87643524729E+02  0.91382046507E+02  0.00000000000E+00 0. -1.
        -14    1    5    5    0    0  0.80275821958E+02  0.41400012366E+00  0.15858695082E+03  0.17774757370E+03  0.00000000000E+00 0.  1.
          5    1    4    4  501    0 -0.40906703886E+02 -0.10926954716E+03  0.85753809398E+02  0.14485986534E+03  0.41800000000E+01 0. -1.
         -5    1    4    4    0  501  0.38035326572E+01  0.32586113382E+02  0.11380229310E+02  0.34975758250E+02  0.41800000000E+01 0. -1.
</event>
<event>
11    1  0.6625361E-009  0.1360796E+03  0.7561462E-02  0.1112017E+00
         22   -1    0    0    0    0  0.00000000000E+00  0.00000000000E+00  0.91625757522E+03  0.91625757522E+03  0.00000000000E+00 0.  1.
         22   -1    0    0    0    0 -0.00000000000E+00 -0.00000000000E+00 -0.99234379983E+03  0.99234379983E+03  0.00000000000E+00 0. -1.
        -24    2    1    2    0    0 -0.49565351739E+02  0.19923213661E+02 -0.97365357632E+03  0.97844174764E+03  0.80581066702E+02 0.  0.
         25    2    1    2    0    0  0.77508681275E+02 -0.30059320494E+02  0.43879448643E+03  0.46378763919E+03  0.12508882654E+03 0.  0.
         24    2    1    2    0    0 -0.27943329536E+02  0.10136106833E+02  0.45877286529E+03  0.46637198822E+03  0.78401014936E+02 0.  0.
        -13    1    5    5    0    0 -0.25596025503E+02 -0.18851098631E+02  0.39504515404E+03  0.39632208388E+03  0.00000000000E+00 0.  1.
         14    1    5    5    0    0 -0.23473040325E+01  0.28987205464E+02  0.63727711249E+02  0.70049904339E+02  0.00000000000E+00 0. -1.
         11    1    3    3    0    0 -0.28775470538E+02  0.19585187206E+02 -0.92340894693E+03  0.92406476533E+03  0.00000000000E+00 0. -1.
        -12    1    3    3    0    0 -0.20789881201E+02  0.33802645438E+00 -0.50244629394E+02  0.54376982310E+02  0.00000000000E+00 0.  1.
          5    1    4    4  501    0 -0.15020060679E+01  0.10540095346E+02 -0.40261019937E+01  0.12125655834E+02  0.41800000000E+01 0.  1.
         -5    1    4    4    0  501  0.79010687343E+02 -0.40599415840E+02  0.44282058842E+03  0.45166198336E+03  0.41800000000E+01 0.  1.
</event>
<event>
11    1  0.6625361E-009  0.1470259E+03  0.7561462E-02  0.1099957E+00
         22   -1    0    0    0    0  0.00000000000E+00  0.00000000000E+00  0.53760094406E+03  0.53760094406E+03  0.00000000000E+00 0.  1.
         22   -1    0    0    0    0 -0.00000000000E+00 -0.00000000000E+00 -0.33382044052E+03  0.33382044052E+03  0.00000000000E+00 0. -1.
        -24    2    1    2    0    0  0.29877376698E+02 -0.24953173339E+01 -0.26599440880E+03  0.27993753032E+03  0.81933577519E+02 0.  0.
         25    2    1    2    0    0 -0.62750548568E+02  0.70288481039E+02  0.61214355581E+02  0.16814422278E+03  0.12508869019E+03 0.  0.
         24    2    1    2    0    0  0.32873171870E+02 -0.67793163705E+02  0.40856055676E+03  0.42333963148E+03  0.81352053274E+02 0.  0.
        -11    1    5    5    0    0  0.50363071692E+02 -0.29992742668E+02  0.32185271142E+03  0.32714701810E+03  0.00000000000E+00 0.  1.
         12    1    5    5    0    0 -0.17489899822E+02 -0.37800421036E+02  0.86707845335E+02  0.96192613381E+02  0.00000000000E+00 0. -1.
         11    1    3    3    0    0  0.19455020509E+02 -0.41388443703E+02 -0.16475988277E+03  0.17098923962E+03  0.00000000000E+00 0. -1.
        -12    1    3    3    0    0  0.10422356188E+02  0.38893126369E+02 -0.10123452602E+03  0.10894829070E+03  0.00000000000E+00 0.  1.
          5    1    4    4  501    0 -0.65030315118E+02  0.88678084359E+02  0.65136843461E+01  0.11023903580E+03  0.41800000000E+01 0. -1.
         -5    1    4    4    0  501  0.22797665501E+01 -0.18389603320E+02  0.54700671235E+02  0.57905186982E+02  0.41800000000E+01 0. -1.
</event>
<event>
11    1  0.6625361E-009  0.2628915E+03  0.7561462E-02  0.1017247E+00
         22   -1    0    0    0    0  0.00000000000E+00  0.00000000000E+00  0.69147788108E+03  0.69147788108E+03  0.00000000000E+00 0. -1.
         22   -1    0    0    0    0 -0.00000000000E+00 -0.00000000000E+00 -0.30813545001E+03  0.30813545001E+03  0.00000000000E+00 0. -1.
         24    2    1    2    0    0  0.23704895732E+02 -0.23456262398E+03 -0.19409804118E+03  0.31581681091E+03  0.80527397884E+02 0.  0.
         25    2    1    2    0    0  0.23058930169E+02  0.20933656240E+03  0.28492188362E+03  0.37574204971E+03  0.12509235604E+03 0.  0.
        -24    2    1    2    0    0 -0.46763825901E+02  0.25226061588E+02  0.29251858863E+03  0.30805447046E+03  0.80667356993E+02 0.  0.
        -11    1    3    3    0    0 -0.82067190918E+01  0.10686863523E+01 -0.18365355004E+02  0.20143946812E+02  0.00000000000E+00 0.  1.
         12    1    3    3    0    0  0.31911614824E+02 -0.23563131034E+03 -0.17573268617E+03  0.29567286409E+03  0.00000000000E+00 0. -1.
         13    1    5    5    0    0 -0.56824156083E+02  0.29475012580E+02  0.28981983998E+03  0.29680515617E+03  0.00000000000E+00 0. -1.
        -14    1    5    5    0    0  0.10060330182E+02 -0.42489509921E+01  0.26987486471E+01  0.11249314297E+02  0.00000000000E+00 0.  1.
          5    1    4    4  501    0 -0.42036540869E+02  0.15307066658E+03  0.18673865701E+03  0.24512547431E+03  0.41800000000E+01 0.  1.
         -5    1    4    4    0  501  0.65095471038E+02  0.56265895820E+02  0.98183226614E+02  0.13061657540E+03  0.41800000000E+01 0.  1.
</event>
<event>
11    1  0.6625361E-009  0.1943821E+03  0.7561462E-02  0.1058569E+00
         22   -1    0    0    0    0  0.00000000000E+00  0.00000000000E+00  0.11786759682E+04  0.11786759682E+04  0.00000000000E+00 0. -1.
         22   -1    0    0    0    0 -0.00000000000E+00 -0.00000000000E+00 -0.44518581772E+03  0.44518581772E+03  0.00000000000E+00 0. -1.
         24    2    1    2    0    0  0.50629958898E+02  0.15023912645E+02 -0.41103804822E+03  0.42161868812E+03  0.77594654460E+02 0.  0.
         25    2    1    2    0    0  0.10963760966E+03 -0.63066280817E+02  0.46556847368E+03  0.49839659328E+03  0.12508956505E+03 0.  0.
        -24    2    1    2    0    0 -0.16026756855E+03  0.48042368172E+02  0.67895972501E+03  0.70384650451E+03  0.80123848245E+02 0.  0.
        -13    1    3    3    0    0  0.36482791219E+02 -0.94929088476E+01 -0.70847636585E+02  0.80252707015E+02  0.00000000000E+00 0.  1.
         14    1    3    3    0    0  0.14147167678E+02  0.24516821493E+02 -0.34019041163E+03  0.34136598111E+03  0.00000000000E+00 0. -1.
         13    1    5    5    0    0 -0.16500032150E+03  0.54781621567E+02  0.60669463867E+03  0.63111371143E+03  0.00000000000E+00 0. -1.
        -14    1    5    5    0    0  0.47327529418E+01 -0.67392533948E+01  0.72265086337E+02  0.72732793085E+02  0.00000000000E+00 0.  1.
          5    1    4    4  501    0  0.72774708759E+02  0.12082068260E+02  0.33642193229E+03  0.34444059507E+03  0.41800000000E+01 0.  1.
         -5    1    4    4    0  501  0.36862900897E+02 -0.75148349078E+02  0.12914654139E+03  0.15395599821E+03  0.41800000000E+01 0.  1.
</event>
<event>
11    1  0.6625361E-009  0.1519488E+03  0.7561462E-02  0.1094904E+00
         22   -1    0    0    0    0  0.00000000000E+00  0.00000000000E+00  0.25668173992E+03  0.25668173992E+03  0.00000000000E+00 0. -1.
         22   -1    0    0    0    0 -0.00000000000E+00 -0.00000000000E+00 -0.34958921747E+03  0.34958921747E+03  0.00000000000E+00 0.  1.
        -24    2    1    2    0    0 -0.97252341528E+01  0.78290478630E+02 -0.23514183689E+03  0.25544354999E+03  0.61120737503E+02 0.  0.
         25    2    1    2    0    0 -0.76722910559E+02 -0.78965604990E+02  0.62943918072E+01  0.16675887404E+03  0.12508769294E+03 0.  0.
         24    2    1    2    0    0  0.86448144711E+02  0.67512635984E+00  0.13593996753E+03  0.18406853337E+03  0.89038265279E+02 0.  0.
        -11    1    5    5    0    0  0.56251301567E+02 -0.18238437892E+02  0.19449393996E+02  0.62250529890E+02  0.00000000000E+00 0.  1.
         12    1    5    5    0    0  0.30196843144E+02  0.18913564252E+02  0.11649057354E+03  0.12181800348E+03  0.00000000000E+00 0. -1.
         13    1    3    3    0    0 -0.26108111246E+02  0.11424457373E+02 -0.45451552050E+02  0.53646950359E+02  0.00000000000E+00 0. -1.
        -14    1    3    3    0    0  0.16382877093E+02  0.66866021258E+02 -0.18969028484E+03  0.20179659963E+03  0.00000000000E+00 0.  1.
          5    1    4    4  501    0 -0.71809372110E+02  0.92288611422E+00  0.37043425414E+02  0.80914309043E+02  0.41800000000E+01 0. -1.
         -5    1    4    4    0  501 -0.49135384487E+01 -0.79888491104E+02 -0.30749033607E+02  0.85844564993E+02  0.41800000000E+01 0. -1.
</event>
<event>
11    1  0.6625361E-009  0.1889147E+03  0.7561462E-02  0.1062652E+00
         22   -1    0    0    0    0  0.00000000000E+00  0.00000000000E+00  0.44985559014E+03  0.44985559014E+03  0.00000000000E+00 0.  1.
         22   -1    0    0    0    0 -0.00000000000E+00 -0.00000000000E+00 -0.26970463998E+03  0.26970463998E+03  0.00000000000E+00 0.  1.
         24    2    1    2    0    0  0.43122250774E+02 -0.34573780967E+02 -0.12085414955E+03  0.15081462037E+03  0.71305325258E+02 0.  0.
         25    2    1    2    0    0 -0.16047104761E+03 -0.39855839872E+02 -0.22843966513E+02  0.20858768846E+03  0.12509009505E+03 0.  0.
        -24    2    1    2    0    0  0.11734879684E+03  0.74429620839E+02  0.32384906623E+03  0.36015792129E+03  0.74330357133E+02 0.  0.
        -13    1    3    3    0    0  0.13833656442E+02 -0.14845779420E+02 -0.11277897568E+03  0.11458998461E+03  0.00000000000E+00 0.  1.
         14    1    3    3    0    0  0.29288594332E+02 -0.19728001547E+02 -0.80751738771E+01  0.36224635762E+02  0.00000000000E+00 0. -1.
         11    1    5    5    0    0  0.33341244460E+02  0.62355779624E+02  0.11899082494E+03  0.13841494954E+03  0.00000000000E+00 0. -1.
        -12    1    5    5    0    0  0.84007552377E+02  0.12073841215E+02  0.20485824129E+03  0.22174297175E+03  0.00000000000E+00 0.  1.
          5    1    4    4  501    0 -0.62715143947E+02 -0.63432531876E+02  0.30896462916E+02  0.94493064302E+02  0.41800000000E+01 0. -1.
         -5    1    4    4    0  501 -0.97755903664E+02  0.23576692004E+02 -0.53740429429E+02  0.11409462416E+03  0.41800000000E+01 0. -1.
</event>
<event>
11    1  0.6625361E-009  0.3074708E+03  0.7561462E-02  0.9970781E-01
         22   -1    0    0    0    0  0.00000000000E+00  0.00000000000E+00  0.29412196842E+03  0.29412196842E+03  0.00000000000E+00 0.  1.
         22   -1    0    0    0    0 -0.00000000000E+00 -0.00000000000E+00 -0.23165096914E+03  0.23165096914E+03  0.00000000000E+00 0. -1.
        -24    2    1    2    0    0 -0.78315624686E+02  0.10332052735E+03 -0.72454435224E+02  0.16934864107E+03  0.81368597180E+02 0.  0.
         25    2    1    2    0    0 -0.53467909497E+01  0.51939045113E+02  0.36078952726E+02  0.14026643094E+03  0.12508688276E+03 0.  0.
         24    2    1    2    0    0  0.83662415636E+02 -0.15525957246E+03  0.98846481781E+02  0.21615786555E+03  0.76476540502E+02 0.  0.
        -11    1    5    5    0    0  0.12101746792E+02 -0.58993056405E+02  0.70845352926E+02  0.92982240296E+02  0.00000000000E+00 0.  1.
         12    1    5    5    0    0  0.71560668844E+02 -0.96266516057E+02  0.28001128855E+02  0.12317562525E+03  0.00000000000E+00 0. -1.
         13    1    3    3    0    0 -0.77185481096E+02  0.91784893878E+02 -0.27653041614E+02  0.12307215748E+03  0.00000000000E+00 0. -1.
        -14    1    3    3    0    0 -0.11301435895E+01  0.11535633471E+02 -0.44801393609E+02  0.46276483590E+02  0.00000000000E+00 0.  1.
          5    1    4    4  501    0 -0.11357540338E+02  0.55889813180E+02  0.78453533781E+02  0.97082924877E+02  0.41800000000E+01 0. -1.
         -5    1    4    4    0  501  0.60107493879E+01 -0.39507680672E+01 -0.42374581055E+02  0.43183506065E+02  0.41800000000E+01 0. -1.
</event>
<event>
11    1  0.6625361E-009  0.1451061E+03  0.7561462E-02  0.1101987E+00
         22   -1    0    0    0    0  0.00000000000E+00  0.00000000000E+00  0.36968874721E+03  0.36968874721E+03  0.00000000000E+00 0.  1.
         22   -1    0    0    0    0 -0.00000000000E+00 -0.00000000000E+00 -0.11975745918E+04  0.11975745918E+04  0.00000000000E+00 0. -1.
         24    2    1    2    0    0 -0.72932406417E+02  0.12056599187E+02 -0.97862534098E+03  0.98480130907E+03  0.81618397819E+02 0.  0.
         25    2    1    2    0    0  0.74876002662E+02  0.29795438788E+02 -0.18362593010E+03  0.23634876401E+03  0.12509225435E+03 0.  0.
        -24    2    1    2    0    0 -0.19435962451E+01 -0.41852037975E+02  0.33436542644E+03  0.34611326597E+03  0.78985972378E+02 0.  0.
        -11    1    3    3    0    0  0.14245351432E+02  0.26646636479E+01 -0.32475298268E+03  0.32507619142E+03  0.00000000000E+00 0.  1.
         12    1    3    3    0    0 -0.87177757849E+02  0.93919355392E+01 -0.65387235830E+03  0.65972511765E+03  0.00000000000E+00 0. -1.
         11    1    5    5    0    0  0.18044407121E+02  0.18239501165E+02  0.81802427152E+02  0.85731657624E+02  0.00000000000E+00 0. -1.
        -12    1    5    5    0    0 -0.19988003366E+02 -0.60091539140E+02  0.25256299929E+03  0.26038160835E+03  0.00000000000E+00 0.  1.
          5    1    4    4  501    0  0.57816758121E+02 -0.10952096978E+02 -0.18267754644E+03  0.19196688340E+03  0.41800000000E+01 0. -1.
         -5    1    4    4    0  501  0.17059244541E+02  0.40747535767E+02 -0.94838365852E+00  0.44381880615E+02  0.41800000000E+01 0. -1.
</event>
<event>
11    1  0.6625361E-009  0.1384450E+03  0.7561462E-02  0.1109307E+00
         22   -1    0    0    0    0  0.00000000000E+00  0.00000000000E+00  0.11355182993E+03  0.11355182993E+03  0.00000000000E+00 0. -1.
         22   -1    0    0    0    0 -0.00000000000E+00 -0.00000000000E+00 -0.14298238227E+04  0.14298238227E+04  0.00000000000E+00 0.  1.
         24    2    1    2    0    0  0.10576153369E+02  0.57385353911E+02 -0.12629663029E+04  0.12667774700E+04  0.78970515244E+02 0.  0.
         25    2    1    2    0    0 -0.34341158516E+02 -0.74692772831E+02 -0.99810724980E+02  0.17991041846E+03  0.12508897781E+03 0.  0.
        -24    2    1    2    0    0  0.23765005147E+02  0.17307418920E+02  0.46505035148E+02  0.96687764167E+02  0.79507755762E+02 0.  0.
        -13    1    3    3    0    0  0.44121632930E+02  0.40044098214E+02 -0.68984929493E+03  0.69241771931E+03  0.00000000000E+00 0.  1.
         14    1    3    3    0    0 -0.33545479561E+02  0.17341255698E+02 -0.57311700801E+03  0.57435975070E+03  0.00000000000E+00 0. -1.
         11    1    5    5    0    0  0.14054653971E+02 -0.31731879703E+02  0.17095802671E+02  0.38687361718E+02  0.00000000000E+00 0. -1.
        -12    1    5    5    0    0  0.97103511759E+01  0.49039298623E+02  0.29409232476E+02  0.58000402449E+02  0.00000000000E+00 0.  1.
          5    1    4    4  501    0  0.45567828212E+02 -0.28207483834E+02 -0.18882178603E+02  0.56974539761E+02  0.41800000000E+01 0.  1.
         -5    1    4    4    0  501 -0.79908986728E+02 -0.46485288997E+02 -0.80928546377E+02  0.12293587870E+03  0.41800000000E+01 0.  1.
</event>
<event>
11    1  0.6625361E-009  0.1951578E+03  0.7561462E-02  0.1058002E+00
         22   -1    0    0    0    0  0.00000000000E+00  0.00000000000E+00  0.64275828742E+03  0.64275828742E+03  0.00000000000E+00 0. -1.
         22   -1    0    0    0    0 -0.00000000000E+00 -0.00000000000E+00 -0.46281979665E+03  0.46281979665E+03  0.00000000000E+00 0.  1.
         24    2    1    2    0    0  0.31039813654E+01 -0.35324235868E+02 -0.32597009184E+03  0.33794974444E+03  0.81829656318E+02 0.  0.
         25    2    1    2    0    0  0.14694866450E+03  0.27705788514E+02 -0.37032506134E+02  0.19844493196E+03  0.12508982290E+03 0.  0.
        -24    2    1    2    0    0 -0.15005264587E+03  0.76184473535E+01  0.54294108875E+03  0.56918340767E+03  0.81307370137E+02 0.  0.
        -11    1    3    3    0    0 -0.24493693544E+02 -0.49875844516E+02 -0.24390134404E+03  0.25015076756E+03  0.00000000000E+00 0.  1.
         12    1    3    3    0    0  0.27597674909E+02  0.14551608648E+02 -0.82068747803E+02  0.87798976877E+02  0.00000000000E+00 0. -1.
         13    1    5    5    0    0 -0.15581501077E+03 -0.37409474666E+01  0.52099392997E+03  0.54380785884E+03  0.00000000000E+00 0. -1.
        -14    1    5    5    0    0  0.57623648974E+01  0.11359394820E+02  0.21947158779E+02  0.25375548829E+02  0.00000000000E+00 0.  1.
          5    1    4    4  501    0  0.63651808659E+02  0.74365880652E+02 -0.30680004769E+02  0.10266728809E+03  0.41800000000E+01 0. -1.
         -5    1    4    4    0  501  0.83296855845E+02 -0.46660092138E+02 -0.63525013643E+01  0.95777643872E+02  0.41800000000E+01 0. -1.
</event>
<event>
11    1  0.6625361E-009  0.1298547E+03  0.7561462E-02  0.1119448E+00
         22   -1    0    0    0    0  0.00000000000E+00  0.00000000000E+00  0.25823951378E+03  0.25823951378E+03  0.00000000000E+00 0. -1.
         22   -1    0    0    0    0 -0.00000000000E+00 -0.00000000000E+00 -0.27710307971E+04  0.27710307971E+04  0.00000000000E+00 0.  1.
         24    2    1    2    0    0 -0.80150565252E+01 -0.15704627270E+02 -0.27176805440E+04  0.27188196017E+04  0.76691659299E+02 0.  0.
         25    2    1    2    0    0  0.27074507299E+02  0.39628011006E+02  0.72999108056E+02  0.15257764279E+03  0.12509060357E+03 0.  0.
        -24    2    1    2    0    0 -0.19059450774E+02 -0.23923383736E+02  0.13189015261E+03  0.15787306645E+03  0.81199149007E+02 0.  0.
        -11    1    3    3    0    0  0.11184212803E+02  0.27439969468E+02 -0.77753199199E+03  0.77809641890E+03  0.00000000000E+00 0.  1.
         12    1    3    3    0    0 -0.19199269328E+02 -0.43144596738E+02 -0.19401485520E+04  0.19407231827E+04  0.00000000000E+00 0. -1.
         13    1    5    5    0    0 -0.43695690217E+02  0.76948992261E+01  0.87216088316E+02  0.97852802100E+02  0.00000000000E+00 0. -1.
        -14    1    5    5    0    0  0.24636239443E+02 -0.31618282962E+02  0.44674064298E+02  0.60020264347E+02  0.00000000000E+00 0.  1.
          5    1    4    4  501    0 -0.41286534371E+02 -0.17248946464E+02  0.23393738360E+02  0.50664025392E+02  0.41800000000E+01 0.  1.
         -5    1    4    4    0  501  0.68361041670E+02  0.56876957470E+02  0.49605369696E+02  0.10191361740E+03  0.41800000000E+01 0.  1.
</event>
<event>
11    1  0.6625361E-009  0.2338181E+03  0.7561462E-02  0.1032891E+00
         22   -1    0    0    0    0  0.00000000000E+00  0.00000000000E+00  0.11762183873E+04  0.11762183873E+04  0.00000000000E+00 0. -1.
         22   -1    0    0    0    0 -0.00000000000E+00 -0.00000000000E+00 -0.11281175370E+04  0.11281175370E+04  0.00000000000E+00 0.  1.
        -24    2    1    2    0    0  0.21969461788E+02  0.41632158618E+02 -0.10286587881E+04  0.10326067944E+04  0.76954503357E+02 0.  0.
         25    2    1    2    0    0 -0.13754951288E+03  0.12150526640E+03  0.56754351522E+02  0.22924628667E+03  0.12509758303E+03 0.  0.
         24    2    1    2    0    0  0.11558005109E+03 -0.16313742502E+03  0.10200052868E+04  0.10424828432E+04  0.79919494246E+02 0.  0.
        -13    1    5    5    0    0  0.35709168830E+02 -0.23600806570E+01  0.16772416341E+03  0.17149959100E+03  0.00000000000E+00 0.  1.
         14    1    5    5    0    0  0.79870882265E+02 -0.16077734436E+03  0.85228112341E+03  0.87098325220E+03  0.00000000000E+00 0. -1.
         13    1    3    3    0    0 -0.45717276276E+01  0.36271788798E+02 -0.18853882813E+03  0.19205060028E+03  0.00000000000E+00 0. -1.
        -14    1    3    3    0    0  0.26541189416E+02  0.53603698194E+01 -0.84011995997E+03  0.84055619410E+03  0.00000000000E+00 0.  1.
          5    1    4    4  501    0 -0.34674664725E+02  0.10067243050E+03  0.63394564831E+02  0.12399037820E+03  0.41800000000E+01 0.  1.
         -5    1    4    4    0  501 -0.10287484816E+03  0.20832835899E+02 -0.66402133090E+01  0.10525590847E+03  0.41800000000E+01 0.  1.
</event>
<event>
11    1  0.6625361E-009  0.1824025E+03  0.7561462E-02  0.1067716E+00
         22   -1    0    0    0    0  0.00000000000E+00  0.00000000000E+00  0.16831561279E+04  0.16831561279E+04  0.00000000000E+00 0.  1.
         22   -1    0    0    0    0 -0.00000000000E+00 -0.00000000000E+00 -0.11492277052E+03  0.11492277052E+03  0.00000000000E+00 0. -1.
         24    2    1    2    0    0  0.37268487511E+02  0.13708326507E+03  0.12353936597E+02  0.16362495186E+03  0.80248011799E+02 0.  0.
         25    2    1    2    0    0 -0.12134781286E+03 -0.67514794824E+02  0.20796901470E+03  0.27961264990E+03  0.12509429923E+03 0.  0.
        -24    2    1    2    0    0  0.84079325352E+02 -0.69568470243E+02  0.13479104061E+04  0.13548412967E+04  0.82603700555E+02 0.  0.
        -11    1    3    3    0    0 -0.13065795740E+02  0.81799369439E+02  0.27614943860E+02  0.87318022100E+02  0.00000000000E+00 0.  1.
         12    1    3    3    0    0  0.50334283251E+02  0.55283895627E+02 -0.15261007264E+02  0.76306929756E+02  0.00000000000E+00 0. -1.
         13    1    5    5    0    0  0.76725073516E+02 -0.40037994218E+02  0.58931920451E+03  0.59563991026E+03  0.00000000000E+00 0. -1.
        -14    1    5    5    0    0  0.73542518362E+01 -0.29530476024E+02  0.75859120159E+03  0.75920138643E+03  0.00000000000E+00 0.  1.
          5    1    4    4  501    0 -0.68614002033E+02  0.30168540225E+02  0.71795113944E+02  0.10387508306E+03  0.41800000000E+01 0.  1.
         -5    1    4    4    0  501 -0.52733810830E+02 -0.97683335048E+02  0.13617390075E+03  0.17573756684E+03  0.41800000000E+01 0.  1.
</event>
<event>
11    1  0.6625361E-009  0.1513032E+03  0.7561462E-02  0.1095555E+00
         22   -1    0    0    0    0  0.00000000000E+00  0.00000000000E+00  0.19648189363E+03  0.19648189363E+03  0.00000000000E+00 0. -1.
         22   -1    0    0    0    0 -0.00000000000E+00 -0.00000000000E+00 -0.44708220045E+04  0.44708220045E+04  0.00000000000E+00 0.  1.
        -24    2    1    2    0    0  0.66347853161E+02  0.42376433994E+02 -0.30547231284E+04  0.30567997269E+04  0.80581507265E+02 0.  0.
         25    2    1    2    0    0 -0.11380807261E+03 -0.39727550837E+02 -0.13982570990E+04  0.14090088780E+04  0.12511014131E+03 0.  0.
         24    2    1    2    0    0  0.47460219444E+02 -0.26488831568E+01  0.17864011662E+03  0.20149529323E+03  0.80178381843E+02 0.  0.
        -11    1    5    5    0    0 -0.11862511366E+02  0.32483228972E+01 -0.88472068993E+00  0.12330997861E+02  0.00000000000E+00 0.  1.
         12    1    5    5    0    0  0.59322730810E+02 -0.58972060540E+01  0.17952483731E+03  0.18916429537E+03  0.00000000000E+00 0. -1.
         11    1    3    3    0    0  0.54137509747E+02 -0.71313048947E+01 -0.21055233324E+04  0.21062312857E+04  0.00000000000E+00 0. -1.
        -12    1    3    3    0    0  0.12210343414E+02  0.49507738888E+02 -0.94919979600E+03  0.95056844121E+03  0.00000000000E+00 0.  1.
          5    1    4    4  501    0 -0.83814112934E+02  0.87195466225E+01 -0.38471584692E+03  0.39385859302E+03  0.41800000000E+01 0. -1.
         -5    1    4    4    0  501 -0.29993959672E+02 -0.48447097459E+02 -0.10135412521E+04  0.10151502849E+04  0.41800000000E+01 0. -1.
</event>
<event>
11    1  0.6625361E-009  0.1638555E+03  0.7561462E-02  0.1083506E+00
         22   -1    0    0    0    0  0.00000000000E+00  0.00000000000E+00  0.61322004061E+03  0.61322004061E+03  0.00000000000E+00 0. -1.
         22   -1    0    0    0    0 -0.00000000000E+00 -0.00000000000E+00 -0.64496504921E+03  0.64496504921E+03  0.00000000000E+00 0. -1.
         24    2    1    2    0    0  0.74591041425E+02 -0.78660757140E+02 -0.60905002285E+03  0.62389050074E+03  0.80907900769E+02 0.  0.
         25    2    1    2    0    0 -0.11371012968E+02  0.41065962053E+02  0.17254880005E+03  0.21735106136E+03  0.12511068020E+03 0.  0.
        -24    2    1    2    0    0 -0.63220028457E+02  0.37594795087E+02  0.40475621420E+03  0.41694352771E+03  0.67854047423E+02 0.  0.
        -13    1    3    3    0    0 -0.92958367881E+01  0.96655786463E+01 -0.55795238829E+02  0.57384184826E+02  0.00000000000E+00 0.  1.
         14    1    3    3    0    0  0.83886878213E+02 -0.88326335786E+02 -0.55325478402E+03  0.56650631591E+03  0.00000000000E+00 0. -1.
         13    1    5    5    0    0 -0.57112851337E+02  0.35716775112E+02  0.40498607763E+03  0.41054998342E+03  0.00000000000E+00 0. -1.
        -14    1    5    5    0    0 -0.61071771204E+01  0.18780199756E+01 -0.22986343045E+00  0.63935442914E+01  0.00000000000E+00 0.  1.
          5    1    4    4  501    0 -0.51305379591E+02  0.59275344874E+02  0.67908497340E+02  0.10380195035E+03  0.41800000000E+01 0. -1.
         -5    1    4    4    0  501  0.39934366623E+02 -0.18209382821E+02  0.10464030271E+03  0.11354911102E+03  0.41800000000E+01 0. -1.
</event>
<event>
11    1  0.6625361E-009  0.1481484E+03  0.7561462E-02  0.1098786E+00
         22   -1    0    0    0    0  0.00000000000E+00  0.00000000000E+00  0.31149636383E+04  0.31149636383E+04  0.00000000000E+00 0. -1.
         22   -1    0    0    0    0 -0.00000000000E+00 -0.00000000000E+00 -0.17786256604E+03  0.17786256604E+03  0.00000000000E+00 0. -1.
        -24    2    1    2    0    0  0.41128524556E+02  0.67910070894E+02 -0.14118337945E+03  0.18024542085E+03  0.79071687987E+02 0.  0.
         25    2    1    2    0    0  0.24547298636E+02 -0.10585135714E+03  0.41260584281E+03  0.44462927739E+03  0.12507810804E+03 0.  0.
         24    2    1    2    0    0 -0.65675823192E+02  0.37941286249E+02  0.26656786089E+04  0.26679515061E+04  0.79811891313E+02 0.  0.
        -13    1    5    5    0    0 -0.27467090969E+02  0.10841247696E+02  0.23852384816E+03  0.24034475214E+03  0.00000000000E+00 0.  1.
         14    1    5    5    0    0 -0.38208732223E+02  0.27100038553E+02  0.24271547608E+04  0.24276067540E+04  0.00000000000E+00 0. -1.
         11    1    3    3    0    0  0.56475924779E+02  0.31151992591E+02 -0.11712748810E+03  0.13371172420E+03  0.00000000000E+00 0. -1.
        -12    1    3    3    0    0 -0.15347400223E+02  0.36758078303E+02 -0.24055891357E+02  0.46533696641E+02  0.00000000000E+00 0.  1.
          5    1    4    4  501    0 -0.46406616691E+01 -0.28601253485E+02  0.62354461780E+01  0.29931933293E+02  0.41800000000E+01 0. -1.
         -5    1    4    4    0  501  0.29187960305E+02 -0.77250103658E+02  0.40637039663E+03  0.41469734409E+03  0.41800000000E+01 0. -1.
</event>
<event>
11    1  0.6625361E-009  0.1614425E+03  0.7561462E-02  0.1085728E+00
         22   -1    0    0    0    0  0.00000000000E+00  0.00000000000E+00  0.36258990838E+03  0.36258990838E+03  0.00000000000E+00 0. -1.
         22   -1    0    0    0    0 -0.00000000000E+00 -0.00000000000E+00 -0.76461770335E+03  0.76461770335E+03  0.00000000000E+00 0.  1.
        -24    2    1    2    0    0  0.34989042612E+01  0.44963218946E+02 -0.63687486209E+03  0.64614554441E+03  0.99300257808E+02 0.  0.
         25    2    1    2    0    0  0.98976818490E+02 -0.39941086711E+02 -0.46141358532E+02  0.17078689352E+03  0.12508971591E+03 0.  0.
         24    2    1    2    0    0 -0.10247572275E+03 -0.50221322353E+01  0.28098842566E+03  0.31027517380E+03  0.82399590750E+02 0.  0.
        -13    1    5    5    0    0 -0.51304196491E+01  0.17310408904E+02  0.82977352515E+01  0.19870175452E+02  0.00000000000E+00 0.  1.
         14    1    5    5    0    0 -0.97345303102E+02 -0.22332541139E+02  0.27269069041E+03  0.29040499835E+03  0.00000000000E+00 0. -1.
         11    1    3    3    0    0 -0.45999405557E+02  0.29894662873E+02 -0.25912839983E+03  0.26487197620E+03  0.00000000000E+00 0. -1.
        -12    1    3    3    0    0  0.49498309818E+02  0.15068556073E+02 -0.37774646227E+03  0.38127356821E+03  0.00000000000E+00 0.  1.
          5    1    4    4  501    0  0.58933060540E+02 -0.71916780354E+02 -0.67643458337E+02  0.11505754550E+03  0.41800000000E+01 0.  1.
         -5    1    4    4    0  501  0.40043757950E+02  0.31975693643E+02  0.21502099805E+02  0.55729348020E+02  0.41800000000E+01 0.  1.
</event>
<event>
11    1  0.6625361E-009  0.1437819E+03  0.7561462E-02  0.1103407E+00
         22   -1    0    0    0    0  0.00000000000E+00  0.00000000000E+00  0.38727535164E+03  0.38727535164E+03  0.00000000000E+00 0.  1.
         22   -1    0    0    0    0 -0.00000000000E+00 -0.00000000000E+00 -0.12135579599E+04  0.12135579599E+04  0.00000000000E+00 0. -1.
        -24    2    1    2    0    0 -0.13285744413E+02  0.29076101965E+01 -0.11440478419E+04  0.11469919496E+04  0.80994460901E+02 0.  0.
         25    2    1    2    0    0  0.23677393510E+02 -0.72142197803E+02  0.39192874234E+02  0.15148846491E+03  0.12509019923E+03 0.  0.
         24    2    1    2    0    0 -0.10391649098E+02  0.69234587606E+02  0.27857235935E+03  0.30235289709E+03  0.94410277463E+02 0.  0.
        -13    1    5    5    0    0  0.19780873796E+02  0.73409432037E+02  0.24719494196E+03  0.25862244104E+03  0.00000000000E+00 0.  1.
         14    1    5    5    0    0 -0.30172522894E+02 -0.41748444311E+01  0.31377417393E+02  0.43730456047E+02  0.00000000000E+00 0. -1.
         11    1    3    3    0    0 -0.63904346435E+01 -0.98082935251E+01 -0.11091921296E+04  0.11092539027E+04  0.00000000000E+00 0. -1.
        -12    1    3    3    0    0 -0.68953097693E+01  0.12715903722E+02 -0.34855712255E+02  0.37738046864E+02  0.00000000000E+00 0.  1.
          5    1    4    4  501    0  0.27870301004E+02  0.92475995646E+01  0.60298397139E+02  0.67198518386E+02  0.41800000000E+01 0. -1.
         -5    1    4    4    0  501 -0.41929074939E+01 -0.81389797367E+02 -0.21105522905E+02  0.84289946529E+02  0.41800000000E+01 0. -1.
</event>
<event>
11    1  0.6625361E-009  0.1437007E+03  0.7561462E-02  0.1103495E+00
         22   -1    0    0    0    0  0.00000000000E+00  0.00000000000E+00  0.16318765869E+04  0.16318765869E+04  0.00000000000E+00 0. -1.
         22   -1    0    0    0    0 -0.00000000000E+00 -0.00000000000E+00 -0.15796336190E+04  0.15796336190E+04  0.00000000000E+00 0. -1.
         24    2    1    2    0    0 -0.13469004558E+02 -0.49402606985E+02 -0.15196431552E+04  0.15226878694E+04  0.81492310848E+02 0.  0.
         25    2    1    2    0    0  0.52301057295E+02 -0.10978434941E+02  0.25030351773E+02  0.13831054349E+03  0.12508941323E+03 0.  0.
        -24    2    1    2    0    0 -0.38832052737E+02  0.60381041926E+02  0.15468557714E+04  0.15505117930E+04  0.78550903224E+02 0.  0.
        -13    1    3    3    0    0  0.52678536249E+01  0.10737408280E+02 -0.41133877593E+02  0.42837344738E+02  0.00000000000E+00 0.  1.
         14    1    3    3    0    0 -0.18736858183E+02 -0.60140015264E+02 -0.14785092776E+04  0.14798505246E+04  0.00000000000E+00 0. -1.
         11    1    5    5    0    0 -0.30592256239E+02  0.85920954351E+01  0.11194604903E+04  0.11199113803E+04  0.00000000000E+00 0. -1.
        -12    1    5    5    0    0 -0.82397964983E+01  0.51788946491E+02  0.42739528103E+03  0.43060041276E+03  0.00000000000E+00 0.  1.
          5    1    4    4  501    0  0.91313622379E+01 -0.63547631283E+02 -0.34927946767E+01  0.64431011421E+02  0.41800000000E+01 0.  1.
         -5    1    4    4    0  501  0.43169695057E+02  0.52569196342E+02  0.28523146450E+02  0.73879532069E+02  0.41800000000E+01 0.  1.
</event>
<event>
11    1  0.6625361E-009  0.1410322E+03  0.7561462E-02  0.1106411E+00
         22   -1    0    0    0    0  0.00000000000E+00  0.00000000000E+00  0.59454924962E+03  0.59454924962E+03  0.00000000000E+00 0. -1.
         22   -1    0    0    0    0 -0.00000000000E+00 -0.00000000000E+00 -0.21145732538E+04  0.21145732538E+04  0.00000000000E+00 0.  1.
        -24    2    1    2    0    0 -0.88392328215E+00 -0.49825378307E+02 -0.20076701704E+04  0.20102113335E+04  0.87901891043E+02 0.  0.
         25    2    1    2    0    0 -0.51676021171E+02  0.90600860643E+01 -0.55270637092E+02  0.14647602659E+03  0.12509151337E+03 0.  0.
         24    2    1    2    0    0  0.52559944453E+02  0.40765292243E+02  0.54291680331E+03  0.55243514337E+03  0.77469836090E+02 0.  0.
        -13    1    5    5    0    0 -0.10137088028E+02  0.36084745459E+02  0.15573609086E+03  0.16018301846E+03  0.00000000000E+00 0.  1.
         14    1    5    5    0    0  0.62697032481E+02  0.46805467842E+01  0.38718071245E+03  0.39225212491E+03  0.00000000000E+00 0. -1.
         11    1    3    3    0    0 -0.53265653396E+00  0.10524465955E+02 -0.33487644791E+02  0.35106558650E+02  0.00000000000E+00 0. -1.
        -12    1    3    3    0    0 -0.35126674820E+00 -0.60349844262E+02 -0.19741825256E+04  0.19751047748E+04  0.00000000000E+00 0.  1.
          5    1    4    4  501    0  0.29841560619E+02 -0.99997780019E+01  0.16810711004E+02  0.35924736669E+02  0.41800000000E+01 0.  1.
         -5    1    4    4    0  501 -0.81517581790E+02  0.19059864066E+02 -0.72081348095E+02  0.11055128992E+03  0.41800000000E+01 0.  1.
</event>
<event>
11    1  0.6625361E-009  0.1603472E+03  0.7561462E-02  0.1086751E+00
         22   -1    0    0    0    0  0.00000000000E+00  0.00000000000E+00  0.83942056675E+03  0.83942056675E+03  0.00000000000E+00 0. -1.
         22   -1    0    0    0    0 -0.00000000000E+00 -0.00000000000E+00 -0.53389566509E+03  0.53389566509E+03  0.00000000000E+00 0. -1.
        -24    2    1    2    0    0 -0.62971290970E+02 -0.43252539972E+02 -0.41116164563E+03  0.42790216152E+03  0.90610127991E+02 0.  0.
         25    2    1    2    0    0  0.14937851122E+03  0.86714433008E+02 -0.45105168455E+01  0.21330203346E+03  0.12507629756E+03 0.  0.
         24    2    1    2    0    0 -0.86407220250E+02 -0.43461893036E+02  0.72119706414E+03  0.73211203686E+03  0.80670225804E+02 0.  0.
        -13    1    5    5    0    0  0.81358110618E+01 -0.21880216952E+02  0.71415796134E+02  0.75134221584E+02  0.00000000000E+00 0.  1.
         14    1    5    5    0    0 -0.94543031311E+02 -0.21581676084E+02  0.64978126800E+03  0.65697781527E+03  0.00000000000E+00 0. -1.
         13    1    3    3    0    0 -0.84628315490E+02 -0.40998432460E+02 -0.36410190639E+03  0.37604922747E+03  0.00000000000E+00 0. -1.
        -14    1    3    3    0    0  0.21657024520E+02 -0.22541075117E+01 -0.47059739244E+02  0.51852934049E+02  0.00000000000E+00 0.  1.
          5    1    4    4  501    0 -0.36781570465E+01  0.53744271120E+02 -0.15736805356E+02  0.56276948747E+02  0.41800000000E+01 0.  1.
         -5    1    4    4    0  501  0.15305666827E+03  0.32970161888E+02  0.11226288510E+02  0.15702508471E+03  0.41800000000E+01 0.  1.
</event>
<event>
11    1  0.6625361E-009  0.1407655E+03  0.7561462E-02  0.1106707E+00
         22   -1    0    0    0    0  0.00000000000E+00  0.00000000000E+00  0.37873397166E+03  0.37873397166E+03  0.00000000000E+00 0. -1.
         22   -1    0    0    0    0 -0.00000000000E+00 -0.00000000000E+00 -0.11755436605E+04  0.11755436605E+04  0.00000000000E+00 0. -1.
         24    2    1    2    0    0  0.46682929237E+02 -0.15762300176E+02 -0.97533604055E+03  0.97973646416E+03  0.78583721015E+02 0.  0.
         25    2    1    2    0    0  0.13239384082E+02  0.43083332092E+02 -0.16740163567E+03  0.21379038698E+03  0.12510622345E+03 0.  0.
        -24    2    1    2    0    0 -0.59922313319E+02 -0.27321031916E+02  0.34592798737E+03  0.36075078103E+03  0.78344311528E+02 0.  0.
        -11    1    3    3    0    0  0.97462179516E+01  0.27720945657E+02 -0.52167239203E+03  0.52249930546E+03  0.00000000000E+00 0.  1.
         12    1    3    3    0    0  0.36936711286E+02 -0.43483245832E+02 -0.45366364852E+03  0.45723715870E+03  0.00000000000E+00 0. -1.
         11    1    5    5    0    0 -0.21309794915E+02 -0.48770078584E+02  0.24274737768E+03  0.24851341472E+03  0.00000000000E+00 0. -1.
        -12    1    5    5    0    0 -0.38612518404E+02  0.21449046667E+02  0.10318060969E+03  0.11223736631E+03  0.00000000000E+00 0.  1.
          5    1    4    4  501    0  0.38091630479E+02 -0.31416174990E+02 -0.38334887611E+02  0.62649695703E+02  0.41800000000E+01 0.  1.
         -5    1    4    4    0  501 -0.24852246397E+02  0.74499507081E+02 -0.12906674805E+03  0.15114069128E+03  0.41800000000E+01 0.  1.
</event>
<event>
11    1  0.6625361E-009  0.1436039E+03  0.7561462E-02  0.1103600E+00
         22   -1    0    0    0    0  0.00000000000E+00  0.00000000000E+00  0.40713268159E+03  0.40713268159E+03  0.00000000000E+00 0. -1.
         22   -1    0    0    0    0 -0.00000000000E+00 -0.00000000000E+00 -0.31474081970E+03  0.31474081970E+03  0.00000000000E+00 0. -1.
         24    2    1    2    0    0 -0.12231118010E+02  0.31009333271E+01 -0.14400833459E+03  0.16947299464E+03  0.88450434963E+02 0.  0.
         25    2    1    2    0    0  0.53858969354E+02  0.53547220693E+02 -0.11475817876E+03  0.18597073903E+03  0.12509029843E+03 0.  0.
        -24    2    1    2    0    0 -0.41627851344E+02 -0.56648154020E+02  0.35115837524E+03  0.36642976761E+03  0.77567252917E+02 0.  0.
        -13    1    3    3    0    0  0.43915180276E+01  0.24574724928E+02 -0.21696317935E+01  0.25058129179E+02  0.00000000000E+00 0.  1.
         14    1    3    3    0    0 -0.16622636037E+02 -0.21473791600E+02 -0.14183870280E+03  0.14441486546E+03  0.00000000000E+00 0. -1.
         13    1    5    5    0    0 -0.46705946520E+02 -0.27684156026E+02  0.31583811862E+03  0.32047086468E+03  0.00000000000E+00 0. -1.
        -14    1    5    5    0    0  0.50780951759E+01 -0.28963997995E+02  0.35320256620E+02  0.45958902926E+02  0.00000000000E+00 0.  1.
          5    1    4    4  501    0 -0.18775471636E+02 -0.11548100205E+02 -0.78804006897E+02  0.81935467635E+02  0.41800000000E+01 0.  1.
         -5    1    4    4    0  501  0.72634440990E+02  0.65095320898E+02 -0.35954171863E+02  0.10403527140E+03  0.41800000000E+01 0.  1.
</event>
<event>
11    1  0.6625361E-009  0.1380126E+03  0.7561462E-02  0.1109798E+00
         22   -1    0    0    0    0  0.00000000000E+00  0.00000000000E+00  0.60313163278E+03  0.60313163278E+03  0.00000000000E+00 0. -1.
         22   -1    0    0    0    0 -0.00000000000E+00 -0.00000000000E+00 -0.17230441399E+03  0.17230441399E+03  0.00000000000E+00 0.  1.
         24    2    1    2    0    0  0.30921786738E+02  0.14339370528E+02 -0.11400613992E+03  0.14331556600E+03  0.79876010656E+02 0.  0.
         25    2    1    2    0    0 -0.18545596988E+02 -0.70233823911E+02  0.98775289286E+02  0.17515895984E+03  0.12508946498E+03 0.  0.
        -24    2    1    2    0    0 -0.12376189750E+02  0.55894453383E+02  0.44605806943E+03  0.45696152093E+03  0.81047333801E+02 0.  0.
        -11    1    3    3    0    0  0.28314063304E+02  0.54832322425E+01 -0.12538702048E+03  0.12866101554E+03  0.00000000000E+00 0.  1.
         12    1    3    3    0    0  0.26077234336E+01  0.88561382859E+01  0.11380880561E+02  0.14654550460E+02  0.00000000000E+00 0. -1.
         11    1    5    5    0    0 -0.87105237575E+01  0.27541661815E+01  0.31975729164E+03  0.31988776815E+03  0.00000000000E+00 0. -1.
        -12    1    5    5    0    0 -0.36656659923E+01  0.53140287201E+02  0.12630077779E+03  0.13707375278E+03  0.00000000000E+00 0.  1.
          5    1    4    4  501    0  0.93605378937E+01 -0.15604279403E+02  0.11092338479E+03  0.11248370059E+03  0.41800000000E+01 0.  1.
         -5    1    4    4    0  501 -0.27906134882E+02 -0.54629544508E+02 -0.12148095503E+02  0.62675259246E+02  0.41800000000E+01 0.  1.
</event>
<event>
11    1  0.6625361E-009  0.1304322E+03  0.7561462E-02  0.1118739E+00
         22   -1    0    0    0    0  0.00000000000E+00  0.00000000000E+00  0.20536782743E+04  0.20536782743E+04  0.00000000000E+00 0. -1.
         22   -1    0    0    0    0 -0.00000000000E+00 -0.00000000000E+00 -0.37615352681E+03  0.37615352681E+03  0.00000000000E+00 0.  1.
         24    2    1    2    0    0 -0.60512074926E+01 -0.36573702949E+02 -0.36344629963E+03  0.37402915369E+03  0.80189414764E+02 0.  0.
         25    2    1    2    0    0  0.78430431540E+01  0.19318023425E+02  0.64084554935E+03  0.65327334475E+03  0.12509334710E+03 0.  0.
        -24    2    1    2    0    0 -0.17918356614E+01  0.17255679524E+02  0.14001254978E+04  0.14025293027E+04  0.80225097043E+02 0.  0.
        -13    1    3    3    0    0 -0.17399016327E+02 -0.17714179490E+02 -0.34328147851E+03  0.34417828434E+03  0.00000000000E+00 0.  1.
         14    1    3    3    0    0  0.11347808835E+02 -0.18859523459E+02 -0.20164821122E+02  0.29850869357E+02  0.00000000000E+00 0. -1.
         13    1    5    5    0    0 -0.15682464878E+02  0.39034759996E+02  0.12008386369E+04  0.12015752511E+04  0.00000000000E+00 0. -1.
        -14    1    5    5    0    0  0.13890629217E+02 -0.21779080472E+02  0.19928686090E+03  0.20095405160E+03  0.00000000000E+00 0.  1.
          5    1    4    4  501    0 -0.50171482885E+02  0.38333843408E+02  0.26305841524E+03  0.27056212498E+03  0.41800000000E+01 0. -1.
         -5    1    4    4    0  501  0.58014526039E+02 -0.19015819982E+02  0.37778713411E+03  0.38271121977E+03  0.41800000000E+01 0. -1.
</event>
<event>
11    1  0.6625361E-009  0.1582895E+03  0.7561462E-02  0.1088697E+00
         22   -1    0    0    0    0  0.00000000000E+00  0.00000000000E+00  0.10874820435E+04  0.10874820435E+04  0.00000000000E+00 0.  1.
         22   -1    0    0    0    0 -0.00000000000E+00 -0.00000000000E+00 -0.16993606642E+04  0.16993606642E+04  0.00000000000E+00 0. -1.
        -24    2    1    2    0    0  0.30758941135E+02  0.14246945886E+02 -0.14760543091E+04  0.14788888186E+04  0.85010154553E+02 0.  0.
         25    2    1    2    0    0  0.34914472816E+02 -0.85860441187E+02 -0.19032013704E+03  0.24588742957E+03  0.12509131738E+03 0.  0.
         24    2    1    2    0    0 -0.65673413951E+02  0.71613495301E+02  0.10544958254E+04  0.10620664596E+04  0.81130936324E+02 0.  0.
        -11    1    5    5    0    0 -0.71204750061E+02  0.84964131823E+02  0.97351304255E+03  0.97980440097E+03  0.00000000000E+00 0.  1.
         12    1    5    5    0    0  0.55313361100E+01 -0.13350636522E+02  0.80982782857E+02  0.82262058654E+02  0.00000000000E+00 0. -1.
         13    1    3    3    0    0  0.59999424134E+02  0.13617411185E+02 -0.90797920854E+03  0.91006132097E+03  0.00000000000E+00 0. -1.
        -14    1    3    3    0    0 -0.29240482999E+02  0.62953470080E+00 -0.56807510053E+03  0.56882749758E+03  0.00000000000E+00 0.  1.
          5    1    4    4  501    0  0.38360436555E+02  0.23073983769E+02 -0.40079246974E+02  0.60230808211E+02  0.41800000000E+01 0.  1.
         -5    1    4    4    0  501 -0.34459637388E+01 -0.10893442496E+03 -0.15024089006E+03  0.18565662136E+03  0.41800000000E+01 0.  1.
</event>
<event>
11    1  0.6625361E-009  0.1969408E+03  0.7561462E-02  0.1056708E+00
         22   -1    0    0    0    0  0.00000000000E+00  0.00000000000E+00  0.33790468799E+03  0.33790468799E+03  0.00000000000E+00 0.  1.
         22   -1    0    0    0    0 -0.00000000000E+00 -0.00000000000E+00 -0.17436785785E+03  0.17436785785E+03  0.00000000000E+00 0. -1.
         24    2    1    2    0    0 -0.10138481548E+03  0.11474592865E+03 -0.13028829740E+02  0.17331734903E+03  0.80147639518E+02 0.  0.
         25    2    1    2    0    0  0.72930229779E+02 -0.13427271301E+03  0.89894429262E+02  0.21695863770E+03  0.12506823012E+03 0.  0.
        -24    2    1    2    0    0  0.28454585704E+02  0.19526784363E+02  0.86671230616E+02  0.12199655911E+03  0.78614880667E+02 0.  0.
        -13    1    3    3    0    0 -0.11380553674E+03  0.92679896581E+02 -0.16756363898E+02  0.14772284574E+03  0.00000000000E+00 0.  1.
         14    1    3    3    0    0  0.12420721261E+02  0.22066032064E+02  0.37275341573E+01  0.25594503289E+02  0.00000000000E+00 0. -1.
         13    1    5    5    0    0  0.31557978071E+02  0.44732481244E+02  0.36596116978E+02  0.65849651754E+02  0.00000000000E+00 0. -1.
        -14    1    5    5    0    0 -0.31033923679E+01 -0.25205696881E+02  0.50075113638E+02  0.56146907354E+02  0.00000000000E+00 0.  1.
          5    1    4    4  501    0  0.10712798637E+03 -0.84116762569E+02  0.67967805104E+02  0.15227977587E+03  0.41800000000E+01 0. -1.
         -5    1    4    4    0  501 -0.34197756591E+02 -0.50155950439E+02  0.21926624158E+02  0.64678861827E+02  0.41800000000E+01 0. -1.
</event>
<event>
11    1  0.6625361E-009  0.1762798E+03  0.7561462E-02  0.1072692E+00
         22   -1    0    0    0    0  0.00000000000E+00  0.00000000000E+00  0.26593100382E+03  0.26593100382E+03  0.00000000000E+00 0.  1.
         22   -1    0    0    0    0 -0.00000000000E+00 -0.00000000000E+00 -0.33976420192E+04  0.33976420192E+04  0.00000000000E+00 0. -1.
        -24    2    1    2    0    0 -0.14299918093E+03  0.22737058997E+02 -0.25415366015E+04  0.25469440021E+04  0.80930299700E+02 0.  0.
         25    2    1    2    0    0  0.76986560090E+02  0.72908786434E+01 -0.83608381655E+03  0.84891923095E+03  0.12509046742E+03 0.  0.
         24    2    1    2    0    0  0.66012620840E+02 -0.30027937640E+02  0.24590940274E+03  0.26770978992E+03  0.77056823926E+02 0.  0.
        -13    1    5    5    0    0  0.69365486649E+02 -0.50030097867E+02  0.19732580961E+03  0.21506291305E+03  0.00000000000E+00 0.  1.
         14    1    5    5    0    0 -0.33528658086E+01  0.20002160226E+02  0.48583593129E+02  0.52646876870E+02  0.00000000000E+00 0. -1.
         13    1    3    3    0    0 -0.13292156060E+03  0.17814219928E+01 -0.23836929401E+04  0.23873967721E+04  0.00000000000E+00 0. -1.
        -14    1    3    3    0    0 -0.10077620328E+02  0.20955637004E+02 -0.15784366144E+03  0.15954723003E+03  0.00000000000E+00 0.  1.
          5    1    4    4  501    0  0.77428951063E+02  0.53553969266E+02 -0.66487291960E+03  0.67151823631E+03  0.41800000000E+01 0. -1.
         -5    1    4    4    0  501 -0.44239097323E+00 -0.46263090623E+02 -0.17121089695E+03  0.17740099464E+03  0.41800000000E+01 0. -1.
</event>
<event>
11    1  0.6625361E-009  0.1422277E+03  0.7561462E-02  0.1105096E+00
         22   -1    0    0    0    0  0.00000000000E+00  0.00000000000E+00  0.12586798719E+04  0.12586798719E+04  0.00000000000E+00 0. -1.
         22   -1    0    0    0    0 -0.00000000000E+00 -0.00000000000E+00 -0.40840815434E+03  0.40840815434E+03  0.00000000000E+00 0. -1.
        -24    2    1    2    0    0 -0.92610488604E+01  0.66754947942E+02 -0.37982077506E+03  0.39416670556E+03  0.81003583259E+02 0.  0.
         25    2    1    2    0    0 -0.15628765258E+02 -0.82541429536E+02  0.27179064833E+03  0.31076381536E+03  0.12508655613E+03 0.  0.
         24    2    1    2    0    0  0.24889814118E+02  0.15786481594E+02  0.95830184429E+03  0.96215750532E+03  0.80845064363E+02 0.  0.
        -11    1    5    5    0    0 -0.15958450112E+02 -0.14466291607E+02  0.97258329941E+02  0.99614900821E+02  0.00000000000E+00 0.  1.
         12    1    5    5    0    0  0.40848264230E+02  0.30252773202E+02  0.86104351435E+03  0.86254260450E+03  0.00000000000E+00 0. -1.
         11    1    3    3    0    0 -0.18362151173E+02  0.82476807876E+02 -0.27186348324E+03  0.28469166822E+03  0.00000000000E+00 0. -1.
        -12    1    3    3    0    0  0.91011023121E+01 -0.15721859934E+02 -0.10795729182E+03  0.10947503734E+03  0.00000000000E+00 0.  1.
          5    1    4    4  501    0 -0.26510198814E+02 -0.77752858054E+02  0.68386164655E+02  0.10696932968E+03  0.41800000000E+01 0.  1.
         -5    1    4    4    0  501  0.10881433557E+02 -0.47885714816E+01  0.20340448367E+03  0.20379448567E+03  0.41800000000E+01 0.  1.
</event>
<event>
11    1  0.6625361E-009  0.1291074E+03  0.7561462E-02  0.1120371E+00
         22   -1    0    0    0    0  0.00000000000E+00  0.00000000000E+00  0.14563665056E+04  0.14563665056E+04  0.00000000000E+00 0. -1.
         22   -1    0    0    0    0 -0.00000000000E+00 -0.00000000000E+00 -0.14267364377E+04  0.14267364377E+04  0.00000000000E+00 0.  1.
         24    2    1    2    0    0 -0.24388739059E+02  0.20764516901E+02 -0.14029899154E+04  0.14056535434E+04  0.80344295194E+02 0.  0.
         25    2    1    2    0    0  0.16069841552E+02 -0.26911248028E+02  0.17555155226E+03  0.21781773129E+03  0.12507502343E+03 0.  0.
        -24    2    1    2    0    0  0.83188975072E+01  0.61467311271E+01  0.12570684309E+04  0.12596316686E+04  0.79648692277E+02 0.  0.
        -13    1    3    3    0    0  0.24943041568E+01  0.43015854252E+02 -0.10640035522E+04  0.10648756474E+04  0.00000000000E+00 0.  1.
         14    1    3    3    0    0 -0.26883043216E+02 -0.22251337351E+02 -0.33898636317E+03  0.34077789606E+03  0.00000000000E+00 0. -1.
         11    1    5    5    0    0  0.39681252799E+02 -0.11252857199E+02  0.84472837398E+03  0.84573474235E+03  0.00000000000E+00 0. -1.
        -12    1    5    5    0    0 -0.31362355292E+02  0.17399588327E+02  0.41234005696E+03  0.41389692628E+03  0.00000000000E+00 0.  1.
          5    1    4    4  501    0 -0.34940708379E+02 -0.55975403459E+02  0.11932914520E+03  0.13642219830E+03  0.41800000000E+01 0.  1.
         -5    1    4    4    0  501  0.51010549931E+02  0.29064155431E+02  0.56222407059E+02  0.81395532989E+02  0.41800000000E+01 0.  1.
</event>
<event>
11    1  0.6625361E-009  0.1340637E+03  0.7561462E-02  0.1114374E+00
         22   -1    0    0    0    0  0.00000000000E+00  0.00000000000E+00  0.77037569424E+02  0.77037569424E+02  0.00000000000E+00 0. -1.
         22   -1    0    0    0    0 -0.00000000000E+00 -0.00000000000E+00 -0.13803299097E+04  0.13803299097E+04  0.00000000000E+00 0. -1.
         24    2    1    2    0    0 -0.35469484328E+02  0.31450850564E+02 -0.11839955031E+04  0.11876553703E+04  0.80204032919E+02 0.  0.
         25    2    1    2    0    0  0.63339697827E+02 -0.23516412077E+02 -0.11577083407E+03  0.18334535534E+03  0.12509074444E+03 0.  0.
        -24    2    1    2    0    0 -0.27870213499E+02 -0.79344384867E+01 -0.35260030263E+01  0.86366753420E+02  0.81283942353E+02 0.  0.
        -13    1    3    3    0    0 -0.37376447049E+02  0.39375817249E+02 -0.40561465383E+03  0.40923184282E+03  0.00000000000E+00 0.  1.
         14    1    3    3    0    0  0.19069627213E+01 -0.79249666855E+01 -0.77838084932E+03  0.77842352752E+03  0.00000000000E+00 0. -1.
         13    1    5    5    0    0 -0.45052311190E+02  0.79399940341E+01  0.22829810507E+02  0.51126847122E+02  0.00000000000E+00 0. -1.
        -14    1    5    5    0    0  0.17182097691E+02 -0.15874432521E+02 -0.26355813533E+02  0.35239906298E+02  0.00000000000E+00 0.  1.
          5    1    4    4  501    0  0.71164725539E+02  0.30607354071E+02 -0.99433309653E+02  0.12611773766E+03  0.41800000000E+01 0. -1.
         -5    1    4    4    0  501 -0.78250277119E+01 -0.54123766148E+02 -0.16337524418E+02  0.57227617676E+02  0.41800000000E+01 0. -1.
</event>
<event>
11    1  0.6625361E-009  0.1431543E+03  0.7561462E-02  0.1104086E+00
         22   -1    0    0    0    0  0.00000000000E+00  0.00000000000E+00  0.69122688799E+03  0.69122688799E+03  0.00000000000E+00 0.  1.
         22   -1    0    0    0    0 -0.00000000000E+00 -0.00000000000E+00 -0.13005042936E+04  0.13005042936E+04  0.00000000000E+00 0.  1.
        -24    2    1    2    0    0  0.34772632254E+02 -0.60737589923E+02 -0.11673468238E+04  0.11723512294E+04  0.82526403723E+02 0.  0.
         25    2    1    2    0    0  0.30338309795E+02  0.87302395268E+02 -0.78310999923E+02  0.17413244595E+03  0.12508946703E+03 0.  0.
         24    2    1    2    0    0 -0.65110942049E+02 -0.26564805345E+02  0.63638041816E+03  0.64524750617E+03  0.80119809977E+02 0.  0.
        -13    1    5    5    0    0 -0.72760547011E+02 -0.78562216484E+01  0.59169322231E+03  0.59620188422E+03  0.00000000000E+00 0.  1.
         14    1    5    5    0    0  0.76496049620E+01 -0.18708583696E+02  0.44687195841E+02  0.49045621947E+02  0.00000000000E+00 0. -1.
         13    1    3    3    0    0  0.18015164599E+01  0.16698930648E+02 -0.40968666744E+03  0.41003081009E+03  0.00000000000E+00 0. -1.
        -14    1    3    3    0    0  0.32971115794E+02 -0.77436520571E+02 -0.75766015636E+03  0.76232041934E+03  0.00000000000E+00 0.  1.
          5    1    4    4  501    0 -0.27544751368E+02  0.10067054718E+02 -0.71371459436E+02  0.77274941221E+02  0.41800000000E+01 0. -1.
         -5    1    4    4    0  501  0.57883061163E+02  0.77235340550E+02 -0.69395404866E+01  0.96857504725E+02  0.41800000000E+01 0. -1.
</event>
<event>
11    1  0.6625361E-009  0.1405833E+03  0.7561462E-02  0.1106909E+00
         22   -1    0    0    0    0  0.00000000000E+00  0.00000000000E+00  0.97388822545E+03  0.97388822545E+03  0.00000000000E+00 0.  1.
         22   -1    0    0    0    0 -0.00000000000E+00 -0.00000000000E+00 -0.25155563404E+03  0.25155563404E+03  0.00000000000E+00 0. -1.
         24    2    1    2    0    0 -0.16867992735E+02 -0.18231950899E+02 -0.16161374739E+03  0.18276670585E+03  0.81656182914E+02 0.  0.
         25    2    1    2    0    0 -0.19857574248E+02 -0.35488176836E+02 -0.19807863904E+02  0.13301604512E+03  0.12508869988E+03 0.  0.
        -24    2    1    2    0    0  0.36725566983E+02  0.53720127735E+02  0.90375420271E+03  0.90966110851E+03  0.80480146809E+02 0.  0.
        -13    1    3    3    0    0 -0.24555571205E+02  0.28711966875E+02 -0.71169220283E+02  0.80575498973E+02  0.00000000000E+00 0.  1.
         14    1    3    3    0    0  0.76875784702E+01 -0.46943917774E+02 -0.90444527111E+02  0.10219120688E+03  0.00000000000E+00 0. -1.
         13    1    5    5    0    0  0.31856406959E+02  0.69184074331E+02  0.51834515345E+03  0.52391121854E+03  0.00000000000E+00 0. -1.
        -14    1    5    5    0    0  0.48691600245E+01 -0.15463946596E+02  0.38540904926E+03  0.38574988997E+03  0.00000000000E+00 0.  1.
          5    1    4    4  501    0 -0.29624501330E+02  0.22089254716E+02  0.36267221229E+02  0.51945452050E+02  0.41800000000E+01 0. -1.
         -5    1    4    4    0  501  0.97669270815E+01 -0.57577431552E+02 -0.56075085133E+02  0.81070593075E+02  0.41800000000E+01 0. -1.
</event>
<event>
11    1  0.6625361E-009  0.1926823E+03  0.7561462E-02  0.1059822E+00
         22   -1    0    0    0    0  0.00000000000E+00  0.00000000000E+00  0.33647415521E+03  0.33647415521E+03  0.00000000000E+00 0.  1.
         22   -1    0    0    0    0 -0.00000000000E+00 -0.00000000000E+00 -0.34177349204E+04  0.34177349204E+04  0.00000000000E+00 0.  1.
        -24    2    1    2    0    0  0.14704309317E+03  0.34382947458E+02 -0.31885311680E+04  0.31936535549E+04  0.99439232296E+02 0.  0.
         25    2    1    2    0    0 -0.98730858884E+02  0.15404661103E+01 -0.18896786691E+03  0.24719723497E+03  0.12508981861E+03 0.  0.
         24    2    1    2    0    0 -0.48312234283E+02 -0.35923413568E+02  0.29623826971E+03  0.31335828578E+03  0.82533261185E+02 0.  0.
        -11    1    5    5    0    0 -0.21875304789E+02 -0.43879869644E+02  0.70124506925E+02  0.85565287303E+02  0.00000000000E+00 0.  1.
         12    1    5    5    0    0 -0.26436929494E+02  0.79564560761E+01  0.22611376278E+03  0.22779299847E+03  0.00000000000E+00 0. -1.
         13    1    3    3    0    0  0.10759857501E+02  0.66276735805E+01 -0.37845476370E+02  0.39899632482E+02  0.00000000000E+00 0. -1.
        -14    1    3    3    0    0  0.13628323567E+03  0.27755273878E+02 -0.31506856916E+04  0.31537539224E+04  0.00000000000E+00 0.  1.
          5    1    4    4  501    0 -0.49258105215E+02 -0.61240867621E+02 -0.82786874301E+02  0.11422759628E+03  0.41800000000E+01 0. -1.
         -5    1    4    4    0  501 -0.49472753670E+02  0.62781333731E+02 -0.10618099261E+03  0.13296963868E+03  0.41800000000E+01 0. -1.
</event>
<event>
11    1  0.6625361E-009  0.1437073E+03  0.7561462E-02  0.1103488E+00
         22   -1    0    0    0    0  0.00000000000E+00  0.00000000000E+00  0.12320154154E+03  0.12320154154E+03  0.00000000000E+00 0.  1.
         22   -1    0    0    0    0 -0.00000000000E+00 -0.00000000000E+00 -0.96324921416E+03  0.96324921416E+03  0.00000000000E+00 0.  1.
        -24    2    1    2    0    0  0.32807896790E+02  0.54990440640E+02 -0.60630192441E+03  0.61471739360E+03  0.78582083219E+02 0.  0.
         25    2    1    2    0    0 -0.86500187874E+02 -0.68052159135E+02 -0.30645661924E+03  0.34881898885E+03  0.12508256728E+03 0.  0.
         24    2    1    2    0    0  0.53692291084E+02  0.13061718495E+02  0.72710871032E+02  0.12291437326E+03  0.82265434873E+02 0.  0.
        -13    1    5    5    0    0  0.28535667995E+02 -0.29164427207E+02  0.59272001111E+02  0.71958448273E+02  0.00000000000E+00 0.  1.
         14    1    5    5    0    0  0.25156623090E+02  0.42226145702E+02  0.13438869921E+02  0.50955924983E+02  0.00000000000E+00 0. -1.
         11    1    3    3    0    0  0.35369943846E+01  0.24728145287E+02 -0.42145869833E+02  0.48992508025E+02  0.00000000000E+00 0. -1.
        -12    1    3    3    0    0  0.29270902405E+02  0.30262295353E+02 -0.56415605458E+03  0.56572488558E+03  0.00000000000E+00 0.  1.
          5    1    4    4  501    0  0.28190647374E+02 -0.80347060452E+01 -0.24105360463E+02  0.38181276873E+02  0.41800000000E+01 0. -1.
         -5    1    4    4    0  501 -0.11469083525E+03 -0.60017453090E+02 -0.28235125878E+03  0.31063771197E+03  0.41800000000E+01 0. -1.
</event>
<event>
11    1  0.6625361E-009  0.1709576E+03  0.7561462E-02  0.1077201E+00
         22   -1    0    0    0    0  0.00000000000E+00  0.00000000000E+00  0.35054734123E+03  0.35054734123E+03  0.00000000000E+00 0. -1.
         22   -1    0    0    0    0 -0.00000000000E+00 -0.00000000000E+00 -0.30318602644E+03  0.30318602644E+03  0.00000000000E+00 0. -1.
         24    2    1    2    0    0 -0.16158607280E+02  0.23370448636E+02 -0.21502489402E+03  0.23257638084E+03  0.83957068888E+02 0.  0.
         25    2    1    2    0    0  0.46010065367E+02 -0.12644009270E+03  0.10892097136E+03  0.21357728332E+03  0.12508978693E+03 0.  0.
        -24    2    1    2    0    0 -0.29851458087E+02  0.10306964406E+03  0.15346523745E+03  0.20757970351E+03  0.89572836998E+02 0.  0.
        -11    1    3    3    0    0 -0.35371325299E+02  0.14775110072E+02 -0.36884303417E+02  0.53196676302E+02  0.00000000000E+00 0.  1.
         12    1    3    3    0    0  0.19212718018E+02  0.85953385643E+01 -0.17814059060E+03  0.17937970454E+03  0.00000000000E+00 0. -1.
         13    1    5    5    0    0 -0.56686949801E+02  0.75709793879E+02  0.13552516491E+03  0.16526479810E+03  0.00000000000E+00 0. -1.
        -14    1    5    5    0    0  0.26835491714E+02  0.27359850180E+02  0.17940072544E+02  0.42314905415E+02  0.00000000000E+00 0.  1.
          5    1    4    4  501    0  0.71235475064E+02 -0.11706107508E+03  0.45323510934E+02  0.14439349449E+03  0.41800000000E+01 0.  1.
         -5    1    4    4    0  501 -0.25225409697E+02 -0.93790176165E+01  0.63597460421E+02  0.69183788837E+02  0.41800000000E+01 0.  1.
</event>
<event>
11    1  0.6625361E-009  0.2307738E+03  0.7561462E-02  0.1034671E+00
         22   -1    0    0    0    0  0.00000000000E+00  0.00000000000E+00  0.19374444168E+04  0.19374444168E+04  0.00000000000E+00 0. -1.
         22   -1    0    0    0    0 -0.00000000000E+00 -0.00000000000E+00 -0.37637875916E+03  0.37637875916E+03  0.00000000000E+00 0. -1.
        -24    2    1    2    0    0 -0.11576976768E+01  0.75865568896E+01 -0.33239064262E+03  0.34297755440E+03  0.84209069668E+02 0.  0.
         25    2    1    2    0    0 -0.12617550119E+03  0.14030626742E+03  0.37676175674E+03  0.43954860739E+03  0.12508977232E+03 0.  0.
         24    2    1    2    0    0  0.12733319887E+03 -0.14789282431E+03  0.15166945435E+04  0.15312970142E+04  0.80138481967E+02 0.  0.
        -11    1    5    5    0    0  0.90720204325E+02 -0.57484929474E+02  0.61122832212E+03  0.62059224484E+03  0.00000000000E+00 0.  1.
         12    1    5    5    0    0  0.36612994543E+02 -0.90407894832E+02  0.90546622138E+03  0.91070476933E+03  0.00000000000E+00 0. -1.
         11    1    3    3    0    0 -0.36635731607E+02  0.20195768075E+02 -0.23235050126E+03  0.23608642763E+03  0.00000000000E+00 0. -1.
        -12    1    3    3    0    0  0.35478033930E+02 -0.12609211185E+02 -0.10004014136E+03  0.10689112676E+03  0.00000000000E+00 0.  1.
          5    1    4    4  501    0 -0.14157703731E+03  0.13862321932E+03  0.37399959398E+03  0.42326542869E+03  0.41800000000E+01 0.  1.
         -5    1    4    4    0  501  0.15401536114E+02  0.16830480946E+01  0.27621627659E+01  0.16283178704E+02  0.41800000000E+01 0.  1.
</event>
<event>
11    1  0.6625361E-009  0.1523684E+03  0.7561462E-02  0.1094483E+00
         22   -1    0    0    0    0  0.00000000000E+00  0.00000000000E+00  0.57618391499E+03  0.57618391499E+03  0.00000000000E+00 0. -1.
         22   -1    0    0    0    0 -0.00000000000E+00 -0.00000000000E+00 -0.40032294190E+03  0.40032294190E+03  0.00000000000E+00 0. -1.
         24    2    1    2    0    0 -0.77333578634E+01  0.43977188665E+02 -0.19882225817E+03  0.21861890889E+03  0.79184209484E+02 0.  0.
         25    2    1    2    0    0 -0.64420481244E+02 -0.91444736674E+02 -0.14683115134E+03  0.22297746889E+03  0.12508967328E+03 0.  0.
        -24    2    1    2    0    0  0.72153839107E+02  0.47467548009E+02  0.52151438259E+03  0.53491047911E+03  0.81808464095E+02 0.  0.
        -11    1    3    3    0    0 -0.31322348012E+01 -0.19622492085E+02 -0.17740408338E+02  0.26637852362E+02  0.00000000000E+00 0.  1.
         12    1    3    3    0    0 -0.46011230622E+01  0.63599680750E+02 -0.18108184983E+03  0.19198105653E+03  0.00000000000E+00 0. -1.
         11    1    5    5    0    0  0.86250372288E+02  0.24442232661E+02  0.44006434678E+03  0.44910263723E+03  0.00000000000E+00 0. -1.
        -12    1    5    5    0    0 -0.14096533181E+02  0.23025315348E+02  0.81450035815E+02  0.85807841884E+02  0.00000000000E+00 0.  1.
          5    1    4    4  501    0  0.27071215982E+01 -0.92515632090E+02 -0.11739875027E+03  0.14955403590E+03  0.41800000000E+01 0.  1.
         -5    1    4    4    0  501 -0.67127602842E+02  0.10708954157E+01 -0.29432401067E+02  0.73423432996E+02  0.41800000000E+01 0.  1.
</event>
<event>
11    1  0.6625361E-009  0.1330687E+03  0.7561462E-02  0.1115555E+00
         22   -1    0    0    0    0  0.00000000000E+00  0.00000000000E+00  0.61030596575E+03  0.61030596575E+03  0.00000000000E+00 0. -1.
         22   -1    0    0    0    0 -0.00000000000E+00 -0.00000000000E+00 -0.13100406889E+04  0.13100406889E+04  0.00000000000E+00 0.  1.
        -24    2    1    2    0    0  0.15149257742E+02  0.42171896119E+02 -0.12437267794E+04  0.12471141988E+04  0.80184502297E+02 0.  0.
         25    2    1    2    0    0 -0.19531201409E+02 -0.69109490230E+02  0.23936445060E+02  0.14622799082E+03  0.12510828281E+03 0.  0.
         24    2    1    2    0    0  0.43819436667E+01  0.26937594111E+02  0.52005561120E+03  0.52700446496E+03  0.80814800255E+02 0.  0.
        -11    1    5    5    0    0 -0.11702356095E+02  0.71615040751E+01  0.11760218550E+02  0.18070279996E+02  0.00000000000E+00 0.  1.
         12    1    5    5    0    0  0.16084299761E+02  0.19776090036E+02  0.50829539265E+03  0.50893418496E+03  0.00000000000E+00 0. -1.
         11    1    3    3    0    0  0.45726002210E+02  0.20792801518E+02 -0.51824444987E+03  0.52067313902E+03  0.00000000000E+00 0. -1.
        -12    1    3    3    0    0 -0.30576744468E+02  0.21379094600E+02 -0.72548232949E+03  0.72644105982E+03  0.00000000000E+00 0.  1.
          5    1    4    4  501    0  0.32613934054E+02  0.97740666460E+01 -0.22271061626E+02  0.40898333208E+02  0.41800000000E+01 0.  1.
         -5    1    4    4    0  501 -0.52145135462E+02 -0.78883556876E+02  0.46207506686E+02  0.10532965761E+03  0.41800000000E+01 0.  1.
</event>
<event>
11    1  0.6625361E-009  0.1267478E+03  0.7561462E-02  0.1123331E+00
         22   -1    0    0    0    0  0.00000000000E+00  0.00000000000E+00  0.23785080008E+03  0.23785080008E+03  0.00000000000E+00 0. -1.
         22   -1    0    0    0    0 -0.00000000000E+00 -0.00000000000E+00 -0.79641045984E+03  0.79641045984E+03  0.00000000000E+00 0. -1.
        -24    2    1    2    0    0 -0.12520077199E+02 -0.11286315344E+02 -0.67701651788E+03  0.68206298129E+03  0.81082746113E+02 0.  0.
         25    2    1    2    0    0  0.12864477043E+02  0.30783869861E+02 -0.69092159555E+02  0.14675000549E+03  0.12509474883E+03 0.  0.
         24    2    1    2    0    0 -0.34439984366E+00 -0.19497554516E+02  0.18754901767E+03  0.20544827314E+03  0.81572579119E+02 0.  0.
        -13    1    5    5    0    0 -0.25157409889E+02 -0.35828904148E+02  0.15637500629E+03  0.16238764804E+03  0.00000000000E+00 0.  1.
         14    1    5    5    0    0  0.24813010046E+02  0.16331349631E+02  0.31174011381E+02  0.43060625099E+02  0.00000000000E+00 0. -1.
         11    1    3    3    0    0 -0.44947871126E+02  0.24212908599E+01 -0.46147961039E+03  0.46366971497E+03  0.00000000000E+00 0. -1.
        -12    1    3    3    0    0  0.32427793926E+02 -0.13707606204E+02 -0.21553690749E+03  0.21839326633E+03  0.00000000000E+00 0.  1.
          5    1    4    4  501    0 -0.38086879614E+02 -0.12295932612E+02  0.11679028484E+02  0.41900745386E+02  0.41800000000E+01 0.  1.
         -5    1    4    4    0  501  0.50951356657E+02  0.43079802473E+02 -0.80771188038E+02  0.10484926010E+03  0.41800000000E+01 0.  1.
</event>
<event>
11    1  0.6625361E-009  0.1665897E+03  0.7561462E-02  0.1081038E+00
         22   -1    0    0    0    0  0.00000000000E+00  0.00000000000E+00  0.17800925869E+04  0.17800925869E+04  0.00000000000E+00 0.  1.
         22   -1    0    0    0    0 -0.00000000000E+00 -0.00000000000E+00 -0.67215798736E+03  0.67215798736E+03  0.00000000000E+00 0. -1.
         24    2    1    2    0    0  0.24383030415E+02 -0.19037630651E+02 -0.61058708763E+03  0.61651480197E+03  0.79479216835E+02 0.  0.
         25    2    1    2    0    0 -0.42713971333E+02 -0.90141779649E+02  0.58878703487E+02  0.17048899377E+03  0.12509904670E+03 0.  0.
        -24    2    1    2    0    0  0.18330940919E+02  0.10917941030E+03  0.16596429837E+04  0.16652467785E+04  0.79848813747E+02 0.  0.
        -13    1    3    3    0    0  0.47119410397E+02 -0.13688647709E+02 -0.22822972155E+03  0.23344469090E+03  0.00000000000E+00 0.  1.
         14    1    3    3    0    0 -0.22736379982E+02 -0.53489829427E+01 -0.38235736608E+03  0.38307011106E+03  0.00000000000E+00 0. -1.
         11    1    5    5    0    0 -0.33616580619E+01  0.54208069236E+02  0.12687352192E+04  0.12698971895E+04  0.00000000000E+00 0. -1.
        -12    1    5    5    0    0  0.21692598981E+02  0.54971341065E+02  0.39090776448E+03  0.39534958900E+03  0.00000000000E+00 0.  1.
          5    1    4    4  501    0 -0.61235573924E+02 -0.11401162439E+03  0.48579360336E+02  0.13829632193E+03  0.41800000000E+01 0.  1.
         -5    1    4    4    0  501  0.18521602591E+02  0.23869844740E+02  0.10299343151E+02  0.32192671834E+02  0.41800000000E+01 0.  1.
</event>
<event>
11    1  0.6625361E-009  0.1297010E+03  0.7561462E-02  0.1119637E+00
         22   -1    0    0    0    0  0.00000000000E+00  0.00000000000E+00  0.21274964765E+03  0.21274964765E+03  0.00000000000E+00 0.  1.
         22   -1    0    0    0    0 -0.00000000000E+00 -0.00000000000E+00 -0.84899432764E+03  0.84899432764E+03  0.00000000000E+00 0.  1.
         24    2    1    2    0    0  0.27763620777E+01  0.33264848871E+02 -0.64300199476E+03  0.64909437984E+03  0.82205172127E+02 0.  0.
         25    2    1    2    0    0  0.63091093480E+00 -0.40890929012E+02 -0.17205930395E+03  0.21662227482E+03  0.12509332415E+03 0.  0.
        -24    2    1    2    0    0 -0.34072730125E+01  0.76260801410E+01  0.17881661872E+03  0.19602732062E+03  0.79884671197E+02 0.  0.
        -13    1    3    3    0    0  0.33404052838E+02 -0.13838289627E+01 -0.42108593069E+03  0.42241106372E+03  0.00000000000E+00 0.  1.
         14    1    3    3    0    0 -0.30627690760E+02  0.34648677833E+02 -0.22191606407E+03  0.22668331613E+03  0.00000000000E+00 0. -1.
         13    1    5    5    0    0  0.37196524138E+02  0.53371019640E+01  0.63941300558E+02  0.74165733209E+02  0.00000000000E+00 0. -1.
        -14    1    5    5    0    0 -0.40603797151E+02  0.22889781770E+01  0.11487531816E+03  0.12186158741E+03  0.00000000000E+00 0.  1.
          5    1    4    4  501    0  0.54050907800E+02 -0.49366241801E+02 -0.71771354324E+02  0.10260178441E+03  0.41800000000E+01 0. -1.
         -5    1    4    4    0  501 -0.53419996865E+02  0.84753127891E+01 -0.10028794962E+03  0.11402049040E+03  0.41800000000E+01 0. -1.
</event>
<event>
11    1  0.6625361E-009  0.2007075E+03  0.7561462E-02  0.1054024E+00
         22   -1    0    0    0    0  0.00000000000E+00  0.00000000000E+00  0.28876880666E+04  0.28876880666E+04  0.00000000000E+00 0.  1.
         22   -1    0    0    0    0 -0.00000000000E+00 -0.00000000000E+00 -0.75453100052E+03  0.75453100052E+03  0.00000000000E+00 0.  1.
        -24    2    1    2    0    0 -0.13731842790E+03  0.83372779760E+02 -0.63293006900E+03  0.65792017416E+03  0.80318816504E+02 0.  0.
         25    2    1    2    0    0  0.13454948911E+03 -0.33695304439E+02 -0.27774084047E+02  0.18882954395E+03  0.12508500455E+03 0.  0.
         24    2    1    2    0    0  0.27689387867E+01 -0.49677475320E+02  0.27938612191E+04  0.27954693490E+04  0.80702236509E+02 0.  0.
        -11    1    5    5    0    0  0.33462863928E+02 -0.54237849435E+02  0.18375476902E+04  0.18386525016E+04  0.00000000000E+00 0.  1.
         12    1    5    5    0    0 -0.30693925141E+02  0.45603741150E+01  0.95631352888E+03  0.95681684746E+03  0.00000000000E+00 0. -1.
         11    1    3    3    0    0 -0.97724633049E+02  0.37809341019E+02 -0.26313387824E+03  0.28322974429E+03  0.00000000000E+00 0. -1.
        -12    1    3    3    0    0 -0.39593794852E+02  0.45563438741E+02 -0.36979619075E+03  0.37469042987E+03  0.00000000000E+00 0.  1.
          5    1    4    4  501    0 -0.43866724385E+01  0.31835742923E+02 -0.11100897527E+02  0.34255798756E+02  0.41800000000E+01 0.  1.
         -5    1    4    4    0  501  0.13893616155E+03 -0.65531047362E+02 -0.16673186521E+02  0.15457374520E+03  0.41800000000E+01 0.  1.
</event>
<event>
11    1  0.6625361E-009  0.1525998E+03  0.7561462E-02  0.1094252E+00
         22   -1    0    0    0    0  0.00000000000E+00  0.00000000000E+00  0.81080438949E+02  0.81080438949E+02  0.00000000000E+00 0. -1.
         22   -1    0    0    0    0 -0.00000000000E+00 -0.00000000000E+00 -0.89713759114E+03  0.89713759114E+03  0.00000000000E+00 0. -1.
         24    2    1    2    0    0 -0.20062618351E+02 -0.30109487787E+02 -0.65337871348E+03  0.65942495867E+03  0.81415250256E+02 0.  0.
         25    2    1    2    0    0  0.22950991504E+02 -0.68770037747E+02 -0.10683985346E+03  0.17977898218E+03  0.12509860927E+03 0.  0.
        -24    2    1    2    0    0 -0.28883731530E+01  0.98879525535E+02 -0.55838585245E+02  0.13901408924E+03  0.80134051040E+02 0.  0.
        -13    1    3    3    0    0  0.24043125145E+02 -0.23026335180E+02 -0.13189720051E+03  0.13603365569E+03  0.00000000000E+00 0.  1.
         14    1    3    3    0    0 -0.44105743496E+02 -0.70831526071E+01 -0.52148151297E+03  0.52339130298E+03  0.00000000000E+00 0. -1.
         13    1    5    5    0    0  0.23183885155E+02  0.47686157369E+02  0.74444131545E+01  0.53543266829E+02  0.00000000000E+00 0. -1.
        -14    1    5    5    0    0 -0.26072258308E+02  0.51193368166E+02 -0.63282998400E+02  0.85470822413E+02  0.00000000000E+00 0.  1.
          5    1    4    4  501    0 -0.50788803334E+02 -0.23551818854E+02 -0.56311945883E+02  0.79515397028E+02  0.41800000000E+01 0. -1.
         -5    1    4    4    0  501  0.73739794837E+02 -0.45218218893E+02 -0.50527907579E+02  0.10026358515E+03  0.41800000000E+01 0. -1.
</event>
<event>
11    1  0.6625361E-009  0.2793030E+03  0.7561462E-02  0.1009352E+00
         22   -1    0    0    0    0  0.00000000000E+00  0.00000000000E+00  0.31857445755E+03  0.31857445755E+03  0.00000000000E+00 0.  1.
         22   -1    0    0    0    0 -0.00000000000E+00 -0.00000000000E+00 -0.15066457013E+04  0.15066457013E+04  0.00000000000E+00 0.  1.
         24    2    1    2    0    0  0.12873145919E+03 -0.19098148432E+03 -0.93641967028E+03  0.96767242153E+03  0.80389057500E+02 0.  0.
         25    2    1    2    0    0  0.12830713436E+03  0.98342521656E+02 -0.46098957411E+03  0.50427262087E+03  0.12508203879E+03 0.  0.
        -24    2    1    2    0    0 -0.25703859356E+03  0.92638962659E+02  0.20933800062E+03  0.35327511646E+03  0.79561884274E+02 0.  0.
        -13    1    3    3    0    0  0.98550715757E+02 -0.18837473066E+03 -0.84644401732E+03  0.87273407014E+03  0.00000000000E+00 0.  1.
         14    1    3    3    0    0  0.30180743438E+02 -0.26067536572E+01 -0.89975652953E+02  0.94938351384E+02  0.00000000000E+00 0. -1.
         11    1    5    5    0    0 -0.21715130563E+02  0.23951018064E+02  0.54375100528E+02  0.63260174826E+02  0.00000000000E+00 0. -1.
        -12    1    5    5    0    0 -0.23532346300E+03  0.68687944595E+02  0.15496290009E+03  0.29001494164E+03  0.00000000000E+00 0.  1.
          5    1    4    4  501    0  0.10121666091E+03  0.12827266880E+03 -0.35677776185E+03  0.39243666210E+03  0.41800000000E+01 0. -1.
         -5    1    4    4    0  501  0.27090473454E+02 -0.29930147148E+02 -0.10421181226E+03  0.11183595877E+03  0.41800000000E+01 0. -1.
</event>
<event>
11    1  0.6625361E-009  0.1521541E+03  0.7561462E-02  0.1094698E+00
         22   -1    0    0    0    0  0.00000000000E+00  0.00000000000E+00  0.11754444240E+03  0.11754444240E+03  0.00000000000E+00 0.  1.
         22   -1    0    0    0    0 -0.00000000000E+00 -0.00000000000E+00 -0.19990110686E+04  0.19990110686E+04  0.00000000000E+00 0. -1.
        -24    2    1    2    0    0 -0.24908165132E+02 -0.78125541925E+02 -0.65089919669E+03  0.66103730903E+03  0.81095885758E+02 0.  0.
         25    2    1    2    0    0  0.35349054247E+02  0.16171060772E+03 -0.12950293081E+04  0.13115442371E+04  0.12508997079E+03 0.  0.
         24    2    1    2    0    0 -0.10440889115E+02 -0.83585065794E+02  0.64461878614E+02  0.14397396483E+03  0.97353445570E+02 0.  0.
        -13    1    5    5    0    0 -0.52216292956E+01 -0.92476109480E+02  0.81950353402E+02  0.12367278059E+03  0.00000000000E+00 0.  1.
         14    1    5    5    0    0 -0.52192598196E+01  0.88910436857E+01 -0.17488474788E+02  0.20301184234E+02  0.00000000000E+00 0. -1.
         13    1    3    3    0    0  0.77245005335E+00 -0.84646811457E+02 -0.40744316628E+03  0.41614374093E+03  0.00000000000E+00 0. -1.
        -14    1    3    3    0    0 -0.25680615186E+02  0.65212695326E+01 -0.24345603041E+03  0.24489356810E+03  0.00000000000E+00 0.  1.
          5    1    4    4  501    0 -0.50356097894E+01 -0.18205315011E+02 -0.21604803701E+03  0.21691246520E+03  0.41800000000E+01 0.  1.
         -5    1    4    4    0  501  0.40384664037E+02  0.17991592273E+03 -0.10789812711E+04  0.10946317719E+04  0.41800000000E+01 0.  1.
</event>
<event>
11    1  0.6625361E-009  0.1664068E+03  0.7561462E-02  0.1081202E+00
         22   -1    0    0    0    0  0.00000000000E+00  0.00000000000E+00  0.14974716478E+04  0.14974716478E+04  0.00000000000E+00 0.  1.
         22   -1    0    0    0    0 -0.00000000000E+00 -0.00000000000E+00 -0.63122481308E+02  0.63122481308E+02  0.00000000000E+00 0.  1.
        -24    2    1    2    0    0  0.10490384966E+03  0.35513993195E+01  0.57619966208E+02  0.14202218591E+03  0.76372839905E+02 0.  0.
         25    2    1    2    0    0 -0.13079765832E+03  0.81277864936E+01  0.41669315830E+03  0.45437375512E+03  0.12509289680E+03 0.  0.
         24    2    1    2    0    0  0.25893808658E+02 -0.11679185813E+02  0.96003604198E+03  0.96419818808E+03  0.84864900196E+02 0.  0.
        -11    1    5    5    0    0 -0.94512780373E+01 -0.48916268686E+01  0.80379237469E+03  0.80386282181E+03  0.00000000000E+00 0.  1.
         12    1    5    5    0    0  0.35345086696E+02 -0.67875589445E+01  0.15624366729E+03  0.16033536627E+03  0.00000000000E+00 0. -1.
         11    1    3    3    0    0  0.10990100219E+03 -0.55052782178E+01  0.66343231232E+02  0.12849109970E+03  0.00000000000E+00 0. -1.
        -12    1    3    3    0    0 -0.49971525345E+01  0.90566775374E+01 -0.87232650236E+01  0.13531086214E+02  0.00000000000E+00 0.  1.
          5    1    4    4  501    0 -0.86497248365E+02 -0.55807303930E+02  0.22536197666E+03  0.24779370870E+03  0.41800000000E+01 0.  1.
         -5    1    4    4    0  501 -0.44300409950E+02  0.63935090423E+02  0.19133118164E+03  0.20658004642E+03  0.41800000000E+01 0.  1.
</event>
<event>
11    1  0.6625361E-009  0.1292413E+03  0.7561462E-02  0.1120205E+00
         22   -1    0    0    0    0  0.00000000000E+00  0.00000000000E+00  0.75140803100E+03  0.75140803100E+03  0.00000000000E+00 0.  1.
         22   -1    0    0    0    0 -0.00000000000E+00 -0.00000000000E+00 -0.36040677899E+03  0.36040677899E+03  0.00000000000E+00 0.  1.
        -24    2    1    2    0    0  0.42097955401E+01 -0.40616494740E+01 -0.31644901042E+03  0.32663467741E+03  0.80721849076E+02 0.  0.
         25    2    1    2    0    0 -0.33408624370E+02 -0.97916399535E+01  0.81881292714E+02  0.15350801676E+03  0.12509257659E+03 0.  0.
         24    2    1    2    0    0  0.29198828830E+02  0.13853289428E+02  0.62556896971E+03  0.63167211582E+03  0.81416465233E+02 0.  0.
        -13    1    5    5    0    0  0.31063618845E+02  0.27265394813E+02  0.60841623214E+03  0.60981854818E+03  0.00000000000E+00 0.  1.
         14    1    5    5    0    0 -0.18647900153E+01 -0.13412105385E+02  0.17152737570E+02  0.21853567645E+02  0.00000000000E+00 0. -1.
         11    1    3    3    0    0  0.16036944760E+02  0.30643861492E+02 -0.77214676266E+02  0.84606950513E+02  0.00000000000E+00 0. -1.
        -12    1    3    3    0    0 -0.11827149220E+02 -0.34705510966E+02 -0.23923433415E+03  0.24202772690E+03  0.00000000000E+00 0.  1.
          5    1    4    4  501    0 -0.15838842560E+02 -0.51003202415E+02  0.92850105339E+02  0.10719519603E+03  0.41800000000E+01 0. -1.
         -5    1    4    4    0  501 -0.17569781810E+02  0.41211562461E+02 -0.10968812625E+02  0.46312820728E+02  0.41800000000E+01 0. -1.
</event>
<event>
11    1  0.6625361E-009  0.1706329E+03  0.7561462E-02  0.1077482E+00
         22   -1    0    0    0    0  0.00000000000E+00  0.00000000000E+00  0.31460480514E+03  0.31460480514E+03  0.00000000000E+00 0. -1.
         22   -1    0    0    0    0 -0.00000000000E+00 -0.00000000000E+00 -0.16445304304E+03  0.16445304304E+03  0.00000000000E+00 0.  1.
         24    2    1    2    0    0 -0.77925802070E+02  0.55778464314E+01 -0.17800012008E+02  0.11542836326E+03  0.83086242048E+02 0.  0.
         25    2    1    2    0    0 -0.73687456000E+02  0.26558861106E+02  0.63901266841E+02  0.16082885077E+03  0.12508930034E+03 0.  0.
        -24    2    1    2    0    0  0.15161325807E+03 -0.32136707537E+02  0.10405050726E+03  0.20280063416E+03  0.79260590195E+02 0.  0.
        -13    1    3    3    0    0 -0.91113707945E+02  0.19630140129E+02 -0.21860872146E+02  0.95733734431E+02  0.00000000000E+00 0.  1.
         14    1    3    3    0    0  0.13187905875E+02 -0.14052293698E+02  0.40608601384E+01  0.19694628826E+02  0.00000000000E+00 0. -1.
         11    1    5    5    0    0  0.30524638867E+02 -0.38718265408E+02  0.49378305141E+02  0.69778755168E+02  0.00000000000E+00 0. -1.
        -12    1    5    5    0    0  0.12108861920E+03  0.65815578707E+01  0.54672202122E+02  0.13302187899E+03  0.00000000000E+00 0.  1.
          5    1    4    4  501    0 -0.72287534267E+02  0.19372098065E+02 -0.19140513367E+02  0.77360179975E+02  0.41800000000E+01 0. -1.
         -5    1    4    4    0  501 -0.13999217327E+01  0.71867630404E+01  0.83041780208E+02  0.83468670794E+02  0.41800000000E+01 0. -1.
</event>
<event>
11    1  0.6625361E-009  0.2163699E+03  0.7561462E-02  0.1043516E+00
         22   -1    0    0    0    0  0.00000000000E+00  0.00000000000E+00  0.11887588981E+03  0.11887588981E+03  0.00000000000E+00 0.  1.
         22   -1    0    0    0    0 -0.00000000000E+00 -0.00000000000E+00 -0.14767476754E+04  0.14767476754E+04  0.00000000000E+00 0.  1.
         24    2    1    2    0    0  0.37779527153E+02  0.95455851799E+02 -0.97521956436E+03  0.98388048847E+03  0.80177955617E+02 0.  0.
         25    2    1    2    0    0 -0.11909431410E+03  0.79195947194E+02 -0.35330130335E+03  0.40115719607E+03  0.12509928582E+03 0.  0.
        -24    2    1    2    0    0  0.81314786948E+02 -0.17465179899E+03 -0.29350917873E+02  0.21058588066E+03  0.79809719234E+02 0.  0.
        -11    1    3    3    0    0  0.53470249891E+02  0.82631628858E+02 -0.91635313782E+03  0.92162363626E+03  0.00000000000E+00 0.  1.
         12    1    3    3    0    0 -0.15690722738E+02  0.12824222941E+02 -0.58866426532E+02  0.62256852207E+02  0.00000000000E+00 0. -1.
         13    1    5    5    0    0  0.38266852756E+02 -0.68345352017E+02 -0.51543806457E+02  0.93766748617E+02  0.00000000000E+00 0. -1.
        -14    1    5    5    0    0  0.43047934192E+02 -0.10630644698E+03  0.22192888584E+02  0.11681913204E+03  0.00000000000E+00 0.  1.
          5    1    4    4  501    0 -0.14478476882E+02  0.26225071077E+02 -0.22605336052E+03  0.22806791718E+03  0.41800000000E+01 0.  1.
         -5    1    4    4    0  501 -0.10461583722E+03  0.52970876118E+02 -0.12724794283E+03  0.17308927890E+03  0.41800000000E+01 0.  1.
</event>
<event>
11    1  0.6625361E-009  0.2161077E+03  0.7561462E-02  0.1043683E+00
         22   -1    0    0    0    0  0.00000000000E+00  0.00000000000E+00  0.51119473982E+03  0.51119473982E+03  0.00000000000E+00 0.  1.
         22   -1    0    0    0    0 -0.00000000000E+00 -0.00000000000E+00 -0.72782102233E+03  0.72782102233E+03  0.00000000000E+00 0.  1.
         24    2    1    2    0    0 -0.20459870456E+03  0.39278811874E+01 -0.24564006086E+03  0.32987204174E+03  0.81243253659E+02 0.  0.
         25    2    1    2    0    0  0.15013666142E+03  0.73290660348E+02 -0.40582703909E+03  0.45635007959E+03  0.12508905422E+03 0.  0.
        -24    2    1    2    0    0  0.54462043140E+02 -0.77218541536E+02  0.43484081744E+03  0.45279364082E+03  0.83706196637E+02 0.  0.
        -11    1    3    3    0    0 -0.14596509078E+03 -0.32826715221E+02 -0.18444888962E+03  0.23749693438E+03  0.00000000000E+00 0.  1.
         12    1    3    3    0    0 -0.58633613786E+02  0.36754596409E+02 -0.61191171244E+02  0.92375107366E+02  0.00000000000E+00 0. -1.
         11    1    5    5    0    0  0.15269155350E+02 -0.60178829571E+02  0.36975342257E+03  0.37492963625E+03  0.00000000000E+00 0. -1.
        -12    1    5    5    0    0  0.39192887790E+02 -0.17039711965E+02  0.65087394864E+02  0.77864004568E+02  0.00000000000E+00 0.  1.
          5    1    4    4  501    0  0.59140198797E+02  0.90127995137E+02 -0.28029277654E+03  0.30033669706E+03  0.41800000000E+01 0. -1.
         -5    1    4    4    0  501  0.90996462626E+02 -0.16837334788E+02 -0.12553426255E+03  0.15601338253E+03  0.41800000000E+01 0. -1.
</event>
<event>
11    1  0.6625361E-009  0.1685153E+03  0.7561462E-02  0.1079331E+00
         22   -1    0    0    0    0  0.00000000000E+00  0.00000000000E+00  0.14901107180E+03  0.14901107180E+03  0.00000000000E+00 0. -1.
         22   -1    0    0    0    0 -0.00000000000E+00 -0.00000000000E+00 -0.57496326096E+03  0.57496326096E+03  0.00000000000E+00 0.  1.
         24    2    1    2    0    0  0.70113178355E+02  0.91086345826E+02 -0.41377227574E+03  0.43725561475E+03  0.82294570211E+02 0.  0.
         25    2    1    2    0    0 -0.10356682206E+03 -0.46934858033E+02 -0.57113344097E+02  0.17843386423E+03  0.12509093612E+03 0.  0.
        -24    2    1    2    0    0  0.33453643702E+02 -0.44151487793E+02  0.44933430678E+02  0.10828485378E+03  0.81474512664E+02 0.  0.
        -13    1    3    3    0    0  0.75713338717E+02  0.10299069198E+03 -0.36480083914E+03  0.38654785542E+03  0.00000000000E+00 0.  1.
         14    1    3    3    0    0 -0.56001603617E+01 -0.11904346157E+02 -0.48971436606E+02  0.50707759334E+02  0.00000000000E+00 0. -1.
         13    1    5    5    0    0  0.56895662505E+02 -0.48208105151E+02  0.36659892086E+02  0.83096844115E+02  0.00000000000E+00 0. -1.
        -14    1    5    5    0    0 -0.23442018802E+02  0.40566173587E+01  0.82735385923E+01  0.25188009663E+02  0.00000000000E+00 0.  1.
          5    1    4    4  501    0 -0.10515170413E+03  0.15119515158E+02 -0.29259782036E+02  0.11026825411E+03  0.41800000000E+01 0.  1.
         -5    1    4    4    0  501  0.15848820728E+01 -0.62054373191E+02 -0.27853562061E+02  0.68165610118E+02  0.41800000000E+01 0.  1.
</event>
<event>
11    1  0.6625361E-009  0.1776642E+03  0.7561462E-02  0.1071548E+00
         22   -1    0    0    0    0  0.00000000000E+00  0.00000000000E+00  0.11077972258E+04  0.11077972258E+04  0.00000000000E+00 0.  1.
         22   -1    0    0    0    0 -0.00000000000E+00 -0.00000000000E+00 -0.78433446253E+03  0.78433446253E+03  0.00000000000E+00 0.  1.
        -24    2    1    2    0    0 -0.15882067333E+02  0.22694687756E+02 -0.66821935147E+03  0.67394045521E+03  0.83134508999E+02 0.  0.
         25    2    1    2    0    0 -0.11099785972E+03 -0.18401693435E+02 -0.42252822522E+02  0.17346918179E+03  0.12508840409E+03 0.  0.
         24    2    1    2    0    0  0.12687992705E+03 -0.42929943209E+01  0.10339349373E+04  0.10447220514E+04  0.79408842957E+02 0.  0.
        -11    1    5    5    0    0  0.12485598320E+03 -0.18809721273E+02  0.99734121287E+03  0.10053021024E+04  0.00000000000E+00 0.  1.
         12    1    5    5    0    0  0.20239438527E+01  0.14516726953E+02  0.36593724424E+02  0.39419948977E+02  0.00000000000E+00 0. -1.
         13    1    3    3    0    0  0.15134712363E+02  0.46834212730E+01 -0.24209348572E+02  0.28932447381E+02  0.00000000000E+00 0. -1.
        -14    1    3    3    0    0 -0.31016779696E+02  0.18011266483E+02 -0.64401000289E+03  0.64500800783E+03  0.00000000000E+00 0.  1.
          5    1    4    4  501    0 -0.10080517876E+03 -0.24790590468E+02 -0.81603382594E+02  0.13210920442E+03  0.41800000000E+01 0.  1.
         -5    1    4    4    0  501 -0.10192680958E+02  0.63888970325E+01  0.39350560072E+02  0.41359977375E+02  0.41800000000E+01 0.  1.
</event>
<event>
11    1  0.6625361E-009  0.1422534E+03  0.7561462E-02  0.1105068E+00
         22   -1    0    0    0    0  0.00000000000E+00  0.00000000000E+00  0.58275013042E+02  0.58275013042E+02  0.00000000000E+00 0. -1.
         22   -1    0    0    0    0 -0.00000000000E+00 -0.00000000000E+00 -0.74948381237E+03  0.74948381237E+03  0.00000000000E+00 0.  1.
        -24    2    1    2    0    0 -0.59691256610E+02  0.31824595018E+02 -0.47104568892E+03  0.48243871598E+03  0.79292008821E+02 0.  0.
         25    2    1    2    0    0  0.63021427748E+02 -0.26265965989E+02 -0.19423310871E+03  0.24091092793E+03  0.12509985352E+03 0.  0.
         24    2    1    2    0    0 -0.33301711383E+01 -0.55586290300E+01 -0.25930001696E+02  0.84409181503E+02  0.80065951175E+02 0.  0.
        -11    1    5    5    0    0  0.19905906500E+02 -0.12659970184E+02 -0.46780540930E+02  0.52392165143E+02  0.00000000000E+00 0.  1.
         12    1    5    5    0    0 -0.23236077638E+02  0.71013411544E+01  0.20850539234E+02  0.32017016359E+02  0.00000000000E+00 0. -1.
         13    1    3    3    0    0 -0.30298077728E+02  0.27850916526E+00 -0.45201005637E+02  0.54416743673E+02  0.00000000000E+00 0. -1.
        -14    1    3    3    0    0 -0.29393178882E+02  0.31546085853E+02 -0.42584468329E+03  0.42802197231E+03  0.00000000000E+00 0.  1.
          5    1    4    4  501    0 -0.27572615762E+02  0.24568135238E+02 -0.37231613739E+02  0.52607108556E+02  0.41800000000E+01 0.  1.
         -5    1    4    4    0  501  0.90594043510E+02 -0.50834101226E+02 -0.15700149497E+03  0.18830381937E+03  0.41800000000E+01 0.  1.
</event>
<event>
11    1  0.6625361E-009  0.1455469E+03  0.7561462E-02  0.1101518E+00
         22   -1    0    0    0    0  0.00000000000E+00  0.00000000000E+00  0.10257127396E+03  0.10257127396E+03  0.00000000000E+00 0.  1.
         22   -1    0    0    0    0 -0.00000000000E+00 -0.00000000000E+00 -0.72855219453E+03  0.72855219453E+03  0.00000000000E+00 0. -1.
        -24    2    1    2    0    0 -0.22119488415E+02 -0.23541637126E+02 -0.52748870375E+03  0.53446327999E+03  0.79769572047E+02 0.  0.
         25    2    1    2    0    0  0.19553547762E+02 -0.56480103616E+02 -0.11795065177E+03  0.18202423919E+03  0.12509246206E+03 0.  0.
         24    2    1    2    0    0  0.25659406533E+01  0.80021740741E+02  0.19458434957E+02  0.11463594930E+03  0.79703871545E+02 0.  0.
        -13    1    5    5    0    0  0.23916937849E+02  0.62465638734E+02  0.41988933689E+02  0.78974973826E+02  0.00000000000E+00 0.  1.
         14    1    5    5    0    0 -0.21350997196E+02  0.17556102008E+02 -0.22530498733E+02  0.35660975479E+02  0.00000000000E+00 0. -1.
         13    1    3    3    0    0 -0.23849307301E+02 -0.96304880605E+01 -0.51513990866E+03  0.51578160228E+03  0.00000000000E+00 0. -1.
        -14    1    3    3    0    0  0.17298188858E+01 -0.13911149065E+02 -0.12348795091E+02  0.18681677705E+02  0.00000000000E+00 0.  1.
          5    1    4    4  501    0 -0.10420184151E+02 -0.78707243029E+02 -0.27561127539E+02  0.84145698013E+02  0.41800000000E+01 0. -1.
         -5    1    4    4    0  501  0.29973731913E+02  0.22227139413E+02 -0.90389524236E+02  0.97878541176E+02  0.41800000000E+01 0. -1.
</event>
<event>
11    1  0.6625361E-009  0.1603719E+03  0.7561462E-02  0.1086728E+00
         22   -1    0    0    0    0  0.00000000000E+00  0.00000000000E+00  0.43657648179E+03  0.43657648179E+03  0.00000000000E+00 0. -1.
         22   -1    0    0    0    0 -0.00000000000E+00 -0.00000000000E+00 -0.45762980718E+03  0.45762980718E+03  0.00000000000E+00 0. -1.
         24    2    1    2    0    0 -0.99015770412E+02  0.47805652552E+01 -0.24137815256E+03  0.27335543062E+03  0.81442018175E+02 0.  0.
         25    2    1    2    0    0 -0.13673769351E+01  0.28037464642E+02 -0.16754354670E+03  0.21096130579E+03  0.12508342559E+03 0.  0.
        -24    2    1    2    0    0  0.10038314735E+03 -0.32818029897E+02  0.38786837387E+03  0.40988955256E+03  0.80086019313E+02 0.  0.
        -11    1    3    3    0    0 -0.79914464707E+02  0.39054553439E+02 -0.17265836780E+03  0.19422278904E+03  0.00000000000E+00 0.  1.
         12    1    3    3    0    0 -0.19101305705E+02 -0.34273988184E+02 -0.68719784762E+02  0.79132641580E+02  0.00000000000E+00 0. -1.
         11    1    5    5    0    0  0.77709090369E+02 -0.29829455817E+02  0.37398312534E+03  0.38313428090E+03  0.00000000000E+00 0. -1.
        -12    1    5    5    0    0  0.22674056978E+02 -0.29885740807E+01  0.13885248534E+02  0.26755271663E+02  0.00000000000E+00 0.  1.
          5    1    4    4  501    0 -0.36119350759E+02  0.34805356241E+01 -0.16404324204E+03  0.16806064169E+03  0.41800000000E+01 0. -1.
         -5    1    4    4    0  501  0.34751973823E+02  0.24556929018E+02 -0.35003046583E+01  0.42900664099E+02  0.41800000000E+01 0. -1.
</event>
<event>
11    1  0.6625361E-009  0.2088557E+03  0.7561462E-02  0.1048432E+00
         22   -1    0    0    0    0  0.00000000000E+00  0.00000000000E+00  0.10102580846E+04  0.10102580846E+04  0.00000000000E+00 0. -1.
         22   -1    0    0    0    0 -0.00000000000E+00 -0.00000000000E+00 -0.13017529230E+04  0.13017529230E+04  0.00000000000E+00 0.  1.
        -24    2    1    2    0    0 -0.16503707909E+03 -0.19950641477E+02 -0.12426727118E+04  0.12564644112E+04  0.82656411415E+02 0.  0.
         25    2    1    2    0    0  0.21664488349E+03 -0.62011476756E+01  0.27277902820E+03  0.37017564639E+03  0.12509257044E+03 0.  0.
         24    2    1    2    0    0 -0.51607804401E+02  0.26151789152E+02  0.67839884526E+03  0.68537095002E+03  0.78492447594E+02 0.  0.
        -13    1    5    5    0    0  0.20989478333E+02  0.77234162823E+01  0.13643493737E+03  0.13825592752E+03  0.00000000000E+00 0.  1.
         14    1    5    5    0    0 -0.72597282734E+02  0.18428372870E+02  0.54196390790E+03  0.54711502250E+03  0.00000000000E+00 0. -1.
         13    1    3    3    0    0 -0.29361952531E+01  0.18003281523E+02 -0.89917693034E+02  0.91749282879E+02  0.00000000000E+00 0. -1.
        -14    1    3    3    0    0 -0.16210088384E+03 -0.37953923000E+02 -0.11527550188E+04  0.11647151283E+04  0.00000000000E+00 0.  1.
          5    1    4    4  501    0  0.14231823455E+03  0.54144145999E+02  0.19015548214E+03  0.24364451198E+03  0.41800000000E+01 0. -1.
         -5    1    4    4    0  501  0.74326648937E+02 -0.60345293674E+02  0.82623546065E+02  0.12653113441E+03  0.41800000000E+01 0. -1.
</event>
<event>
11    1  0.6625361E-009  0.1290456E+03  0.7561462E-02  0.1120447E+00
         22   -1    0    0    0    0  0.00000000000E+00  0.00000000000E+00  0.21150736412E+04  0.21150736412E+04  0.00000000000E+00 0. -1.
         22   -1    0    0    0    0 -0.00000000000E+00 -0.00000000000E+00 -0.15887572770E+03  0.15887572770E+03  0.00000000000E+00 0. -1.
        -24    2    1    2    0    0  0.19110441177E+02  0.22050084952E+02 -0.11356430383E+03  0.14277092784E+03  0.81457176003E+02 0.  0.
         25    2    1    2    0    0  0.12052318319E+02 -0.12927185936E+02  0.10446383386E+03  0.16393050830E+03  0.12509255954E+03 0.  0.
         24    2    1    2    0    0 -0.31162759497E+02 -0.91228990157E+01  0.19652983835E+04  0.19672479327E+04  0.81316345221E+02 0.  0.
        -13    1    5    5    0    0 -0.93606166038E+01  0.26641820539E+02  0.14418069644E+04  0.14420834685E+04  0.00000000000E+00 0.  1.
         14    1    5    5    0    0 -0.21802142893E+02 -0.35764719555E+02  0.52349141910E+03  0.52516446421E+03  0.00000000000E+00 0. -1.
         11    1    3    3    0    0  0.49684223443E+02  0.23313899864E+02 -0.83134185172E+02  0.99616026473E+02  0.00000000000E+00 0. -1.
        -12    1    3    3    0    0 -0.30573782265E+02 -0.12638149121E+01 -0.30430118661E+02  0.43154901366E+02  0.00000000000E+00 0.  1.
          5    1    4    4  501    0 -0.58185358547E+01 -0.27292079022E+02  0.12784232958E+03  0.13091923682E+03  0.41800000000E+01 0. -1.
         -5    1    4    4    0  501  0.17870854174E+02  0.14364893085E+02 -0.23378495720E+02  0.33011271475E+02  0.41800000000E+01 0. -1.
</event>
<event>
11    1  0.6625361E-009  0.1374227E+03  0.7561462E-02  0.1110471E+00
         22   -1    0    0    0    0  0.00000000000E+00  0.00000000000E+00  0.68864749051E+03  0.68864749051E+03  0.00000000000E+00 0.  1.
         22   -1    0    0    0    0 -0.00000000000E+00 -0.00000000000E+00 -0.38248732106E+03  0.38248732106E+03  0.00000000000E+00 0.  1.
        -24    2    1    2    0    0 -0.34105550342E+02  0.44712904467E+02 -0.33540181202E+03  0.35057300135E+03  0.85115341631E+02 0.  0.
         25    2    1    2    0    0 -0.39638635322E+01 -0.92163305872E+02  0.14122985909E+03  0.21000883996E+03  0.12509217641E+03 0.  0.
         24    2    1    2    0    0  0.38069413874E+02  0.47450401405E+02  0.50033212237E+03  0.51055297027E+03  0.81432683257E+02 0.  0.
        -13    1    5    5    0    0  0.11499175444E+02 -0.72180252433E+01  0.31930912935E+03  0.31959763925E+03  0.00000000000E+00 0.  1.
         14    1    5    5    0    0  0.26570238430E+02  0.54668426648E+02  0.18102299302E+03  0.19095533102E+03  0.00000000000E+00 0. -1.
         11    1    3    3    0    0  0.45292659386E+01 -0.11455294768E+02 -0.51384747930E+01  0.13346982857E+02  0.00000000000E+00 0. -1.
        -12    1    3    3    0    0 -0.38634816281E+02  0.56168199235E+02 -0.33026333722E+03  0.33722601849E+03  0.00000000000E+00 0.  1.
          5    1    4    4  501    0 -0.24139225962E+02  0.10356801697E+02  0.89450780951E+02  0.93321381173E+02  0.41800000000E+01 0. -1.
         -5    1    4    4    0  501  0.20175362429E+02 -0.10252010757E+03  0.51779078137E+02  0.11668745879E+03  0.41800000000E+01 0. -1.
</event>
<event>
11    1  0.6625361E-009  0.1488185E+03  0.7561462E-02  0.1098092E+00
         22   -1    0    0    0    0  0.00000000000E+00  0.00000000000E+00  0.35424665170E+03  0.35424665170E+03  0.00000000000E+00 0. -1.
         22   -1    0    0    0    0 -0.00000000000E+00 -0.00000000000E+00 -0.20036040556E+03  0.20036040556E+03  0.00000000000E+00 0. -1.
         24    2    1    2    0    0  0.82862072410E+02 -0.24940735147E+00 -0.11879967721E+03  0.16548254769E+03  0.80030775575E+02 0.  0.
         25    2    1    2    0    0 -0.70804957643E+02  0.23667658105E+01  0.50010709555E+02  0.15221711028E+03  0.12510009587E+03 0.  0.
        -24    2    1    2    0    0 -0.12057114767E+02 -0.21173584590E+01  0.22267521379E+03  0.23690739929E+03  0.79943778859E+02 0.  0.
        -13    1    3    3    0    0 -0.85303274142E+01 -0.69615767881E+01  0.44692154687E+01  0.11882925737E+02  0.00000000000E+00 0.  1.
         14    1    3    3    0    0  0.91392399824E+02  0.67121694366E+01 -0.12326889268E+03  0.15359962196E+03  0.00000000000E+00 0. -1.
         11    1    5    5    0    0  0.22276491857E+02 -0.22722116028E+02  0.15534279221E+03  0.15856834406E+03  0.00000000000E+00 0. -1.
        -12    1    5    5    0    0 -0.34333606624E+02  0.20604757569E+02  0.67332421573E+02  0.78339055223E+02  0.00000000000E+00 0.  1.
          5    1    4    4  501    0 -0.21541376207E+02  0.62093978151E+02  0.28452669304E+02  0.71740642609E+02  0.41800000000E+01 0. -1.
         -5    1    4    4    0  501 -0.49263581436E+02 -0.59727212340E+02  0.21558040251E+02  0.80476467674E+02  0.41800000000E+01 0. -1.
</event>
<event>
11    1  0.6625361E-009  0.1342702E+03  0.7561462E-02  0.1114131E+00
         22   -1    0    0    0    0  0.00000000000E+00  0.00000000000E+00  0.24923776857E+03  0.24923776857E+03  0.00000000000E+00 0. -1.
         22   -1    0    0    0    0 -0.00000000000E+00 -0.00000000000E+00 -0.69028973475E+03  0.69028973475E+03  0.00000000000E+00 0. -1.
         24    2    1    2    0    0 -0.18281413926E+02  0.29007591057E+02 -0.57115624651E+03  0.57776061336E+03  0.80076326008E+02 0.  0.
         25    2    1    2    0    0 -0.26946634703E+02 -0.48361539869E+02 -0.59957936057E+02  0.14936032951E+03  0.12509434150E+03 0.  0.
        -24    2    1    2    0    0  0.45228048629E+02  0.19353948812E+02  0.19006221639E+03  0.21240656044E+03  0.81072492882E+02 0.  0.
        -13    1    3    3    0    0 -0.25867447965E+02  0.49509048608E+02 -0.26491438781E+03  0.27073954944E+03  0.00000000000E+00 0.  1.
         14    1    3    3    0    0  0.75860340383E+01 -0.20501457551E+02 -0.30624185870E+03  0.30702106392E+03  0.00000000000E+00 0. -1.
         13    1    5    5    0    0  0.56815684091E+02  0.23844912821E+02  0.19024845853E+03  0.19997769326E+03  0.00000000000E+00 0. -1.
        -14    1    5    5    0    0 -0.11587635462E+02 -0.44909640092E+01 -0.18624214447E+00  0.12428867183E+02  0.00000000000E+00 0.  1.
          5    1    4    4  501    0  0.27189450646E+02 -0.41235443826E+02 -0.77377874431E+02  0.91893611886E+02  0.41800000000E+01 0. -1.
         -5    1    4    4    0  501 -0.54136085349E+02 -0.71260960432E+01  0.17419938374E+02  0.57466717626E+02  0.41800000000E+01 0. -1.
</event>
<event>
11    1  0.6625361E-009  0.1327596E+03  0.7561462E-02  0.1115924E+00
         22   -1    0    0    0    0  0.00000000000E+00  0.00000000000E+00  0.69228023858E+03  0.69228023858E+03  0.00000000000E+00 0.  1.
         22   -1    0    0    0    0 -0.00000000000E+00 -0.00000000000E+00 -0.29876496706E+03  0.29876496706E+03  0.00000000000E+00 0. -1.
        -24    2    1    2    0    0  0.18763200652E+02 -0.20862806079E+02 -0.18772437182E+03  0.20522219548E+03  0.78028170344E+02 0.  0.
         25    2    1    2    0    0 -0.33616062856E+02 -0.21489432209E+02 -0.55678055019E+02  0.14261530295E+03  0.12508894214E+03 0.  0.
         24    2    1    2    0    0  0.14852862204E+02  0.42352238288E+02  0.63691769836E+03  0.64320770721E+03  0.77702513001E+02 0.  0.
        -13    1    5    5    0    0  0.31115503474E+02  0.14162516754E+02  0.53776687030E+03  0.53885244570E+03  0.00000000000E+00 0.  1.
         14    1    5    5    0    0 -0.16262641270E+02  0.28189721534E+02  0.99150828056E+02  0.10435526151E+03  0.00000000000E+00 0. -1.
         11    1    3    3    0    0  0.48717687681E+02 -0.15087258609E+02 -0.13494451512E+03  0.14426039174E+03  0.00000000000E+00 0. -1.
        -12    1    3    3    0    0 -0.29954487029E+02 -0.57755474698E+01 -0.52779856705E+02  0.60961803742E+02  0.00000000000E+00 0.  1.
          5    1    4    4  501    0 -0.21819197001E+02 -0.24786427981E+01 -0.94775104021E+02  0.97375632322E+02  0.41800000000E+01 0. -1.
         -5    1    4    4    0  501 -0.11796865855E+02 -0.19010789411E+02  0.39097049002E+02  0.45239670629E+02  0.41800000000E+01 0. -1.
</event>
<event>
11    1  0.6625361E-009  0.1756184E+03  0.7561462E-02  0.1073243E+00
         22   -1    0    0    0    0  0.00000000000E+00  0.00000000000E+00  0.22419136799E+04  0.22419136799E+04  0.00000000000E+00 0.  1.
         22   -1    0    0    0    0 -0.00000000000E+00 -0.00000000000E+00 -0.10609069117E+04  0.10609069117E+04  0.00000000000E+00 0.  1.
         24    2    1    2    0    0  0.10606468638E+03 -0.63018172927E+02 -0.94441313065E+03  0.95525607088E+03  0.73327974138E+02 0.  0.
         25    2    1    2    0    0 -0.90216965273E+02  0.87052413034E+02 -0.39114860611E+02  0.18134885446E+03  0.12506083022E+03 0.  0.
        -24    2    1    2    0    0 -0.15847721105E+02 -0.24034240107E+02  0.21645347594E+04  0.21662156662E+04  0.80316827050E+02 0.  0.
        -13    1    3    3    0    0  0.28525439055E+02 -0.58970111156E+02 -0.46643880935E+03  0.47101628162E+03  0.00000000000E+00 0.  1.
         14    1    3    3    0    0  0.77539247323E+02 -0.40480617712E+01 -0.47797432130E+03  0.48423978926E+03  0.00000000000E+00 0. -1.
         13    1    5    5    0    0 -0.54619594686E+01 -0.28499771065E+02  0.25474448973E+03  0.25639193630E+03  0.00000000000E+00 0. -1.
        -14    1    5    5    0    0 -0.10385761637E+02  0.44655309584E+01  0.19097902697E+04  0.19098237299E+04  0.00000000000E+00 0.  1.
          5    1    4    4  501    0 -0.64064852185E+02  0.80331793334E+01  0.31641329300E+02  0.72024186046E+02  0.41800000000E+01 0.  1.
         -5    1    4    4    0  501 -0.26152113088E+02  0.79019233701E+02 -0.70756189911E+02  0.10932466842E+03  0.41800000000E+01 0.  1.
</event>
<event>
11    1  0.6625361E-009  0.1503410E+03  0.7561462E-02  0.1096531E+00
         22   -1    0    0    0    0  0.00000000000E+00  0.00000000000E+00  0.24479634554E+04  0.24479634554E+04  0.00000000000E+00 0.  1.
         22   -1    0    0    0    0 -0.00000000000E+00 -0.00000000000E+00 -0.21990466282E+03  0.21990466282E+03  0.00000000000E+00 0. -1.
        -24    2    1    2    0    0  0.26188391146E+02 -0.61732100465E+02 -0.18319218666E+03  0.21008670155E+03  0.77976668648E+02 0.  0.
         25    2    1    2    0    0  0.10895983297E+02  0.13301269482E+03  0.36479559176E+03  0.40808543751E+03  0.12508717403E+03 0.  0.
         24    2    1    2    0    0 -0.37084374443E+02 -0.71280594351E+02  0.20464553875E+04  0.20496959792E+04  0.82569849575E+02 0.  0.
        -11    1    5    5    0    0 -0.42337609574E+02 -0.28562911452E+02  0.16712471139E+04  0.16720272811E+04  0.00000000000E+00 0.  1.
         12    1    5    5    0    0  0.52532351314E+01 -0.42717682899E+02  0.37520827362E+03  0.37766869807E+03  0.00000000000E+00 0. -1.
         11    1    3    3    0    0  0.16713331254E+02  0.94397993538E+01 -0.92206492481E+02  0.94183239003E+02  0.00000000000E+00 0. -1.
        -12    1    3    3    0    0  0.94750598912E+01 -0.71171899818E+02 -0.90985694184E+02  0.11590346254E+03  0.00000000000E+00 0.  1.
          5    1    4    4  501    0  0.25044592108E+02  0.13968636341E+03  0.21644682740E+03  0.25885558369E+03  0.41800000000E+01 0. -1.
         -5    1    4    4    0  501 -0.14148608811E+02 -0.66736685977E+01  0.14834876436E+03  0.14922985382E+03  0.41800000000E+01 0. -1.
</event>
<event>
11    1  0.6625361E-009  0.1593978E+03  0.7561462E-02  0.1087645E+00
         22   -1    0    0    0    0  0.00000000000E+00  0.00000000000E+00  0.67544943509E+03  0.67544943509E+03  0.00000000000E+00 0. -1.
         22   -1    0    0    0    0 -0.00000000000E+00 -0.00000000000E+00 -0.32321748038E+03  0.32321748038E+03  0.00000000000E+00 0.  1.
         24    2    1    2    0    0  0.38208095739E+02  0.90905258699E+02 -0.26919046367E+03  0.29853765565E+03  0.83292265381E+02 0.  0.
         25    2    1    2    0    0 -0.23999368329E+02 -0.99587687636E+02  0.14686191173E+03  0.21842153512E+03  0.12508344686E+03 0.  0.
        -24    2    1    2    0    0 -0.14208727410E+02  0.86824289374E+01  0.47456050665E+03  0.48170772470E+03  0.80977682496E+02 0.  0.
        -13    1    3    3    0    0  0.35293264691E+02  0.56512708058E+02 -0.25065600608E+03  0.25936023999E+03  0.00000000000E+00 0.  1.
         14    1    3    3    0    0  0.29148310477E+01  0.34392550641E+02 -0.18534457588E+02  0.39177415659E+02  0.00000000000E+00 0. -1.
         13    1    5    5    0    0 -0.44045212645E+02  0.23179687851E+01  0.37481116232E+03  0.37739735178E+03  0.00000000000E+00 0. -1.
        -14    1    5    5    0    0  0.29836485235E+02  0.63644601523E+01  0.99749344331E+02  0.10431037292E+03  0.00000000000E+00 0.  1.
          5    1    4    4  501    0 -0.76057009254E+00  0.86143460864E+01  0.96126122809E+02  0.96604809982E+02  0.41800000000E+01 0.  1.
         -5    1    4    4    0  501 -0.23238798236E+02 -0.10820203372E+03  0.50735788916E+02  0.12181672513E+03  0.41800000000E+01 0.  1.
</event>
<event>
11    1  0.6625361E-009  0.1564538E+03  0.7561462E-02  0.1090461E+00
         22   -1    0    0    0    0  0.00000000000E+00  0.00000000000E+00  0.14232680142E+04  0.14232680142E+04  0.00000000000E+00 0. -1.
         22   -1    0    0    0    0 -0.00000000000E+00 -0.00000000000E+00 -0.31808191919E+03  0.31808191919E+03  0.00000000000E+00 0.  1.
         24    2    1    2    0    0 -0.75380757085E+02  0.20292084570E+02 -0.25475068785E+03  0.27773263500E+03  0.78380331407E+02 0.  0.
         25    2    1    2    0    0 -0.18758470053E+02  0.88317458562E+01  0.33554592105E+02  0.13116043447E+03  0.12508904422E+03 0.  0.
        -24    2    1    2    0    0  0.94139227139E+02 -0.29123830426E+02  0.13263821908E+04  0.13324568640E+04  0.80257004181E+02 0.  0.
        -13    1    3    3    0    0 -0.54293010936E+02  0.49916300306E+02 -0.18273802012E+03  0.19705976776E+03  0.00000000000E+00 0.  1.
         14    1    3    3    0    0 -0.21087746149E+02 -0.29624215736E+02 -0.72012667729E+02  0.80672867242E+02  0.00000000000E+00 0. -1.
         11    1    5    5    0    0  0.59790124206E+02 -0.56523823671E+02  0.93613802380E+03  0.93974688146E+03  0.00000000000E+00 0. -1.
        -12    1    5    5    0    0  0.34349102932E+02  0.27399993245E+02  0.39024416699E+03  0.39270998252E+03  0.00000000000E+00 0.  1.
          5    1    4    4  501    0 -0.19484184986E+02 -0.56879108033E+02  0.92711435791E+01  0.60977806606E+02  0.41800000000E+01 0.  1.
         -5    1    4    4    0  501  0.72571493292E+00  0.65710853889E+02  0.24283448526E+02  0.70182627860E+02  0.41800000000E+01 0.  1.
</event>
<event>
11    1  0.6625361E-009  0.1522950E+03  0.7561462E-02  0.1094557E+00
         22   -1    0    0    0    0  0.00000000000E+00  0.00000000000E+00  0.93620053083E+03  0.93620053083E+03  0.00000000000E+00 0. -1.
         22   -1    0    0    0    0 -0.00000000000E+00 -0.00000000000E+00 -0.37214097428E+03  0.37214097428E+03  0.00000000000E+00 0.  1.
         24    2    1    2    0    0 -0.12061808813E+02 -0.36659927995E+02 -0.33606472284E+03  0.34793702733E+03  0.81432422861E+02 0.  0.
         25    2    1    2    0    0  0.75056099285E+02  0.88090558712E+02  0.26458731853E+03  0.31471758884E+03  0.12508935616E+03 0.  0.
        -24    2    1    2    0    0 -0.62994290471E+02 -0.51430630717E+02  0.63553696086E+03  0.64568688893E+03  0.79943351875E+02 0.  0.
        -11    1    3    3    0    0  0.17782784509E+02  0.12424044514E+02 -0.18586946800E+03  0.18713108625E+03  0.00000000000E+00 0.  1.
         12    1    3    3    0    0 -0.29844593322E+02 -0.49083972509E+02 -0.15019525484E+03  0.16080594108E+03  0.00000000000E+00 0. -1.
         11    1    5    5    0    0 -0.47773246441E+02  0.74439872130E+01  0.37737098952E+03  0.38045572641E+03  0.00000000000E+00 0. -1.
        -12    1    5    5    0    0 -0.15221044030E+02 -0.58874617930E+02  0.25816597134E+03  0.26523116253E+03  0.00000000000E+00 0.  1.
          5    1    4    4  501    0  0.39823368800E+02 -0.27870218542E+02  0.85393522851E+02  0.98347221258E+02  0.41800000000E+01 0. -1.
         -5    1    4    4    0  501  0.35232730484E+02  0.11596077725E+03  0.17919379568E+03  0.21637036759E+03  0.41800000000E+01 0. -1.
</event>
<event>
11    1  0.6625361E-009  0.1946281E+03  0.7561462E-02  0.1058389E+00
         22   -1    0    0    0    0  0.00000000000E+00  0.00000000000E+00  0.26450794207E+03  0.26450794207E+03  0.00000000000E+00 0.  1.
         22   -1    0    0    0    0 -0.00000000000E+00 -0.00000000000E+00 -0.45219967195E+03  0.45219967195E+03  0.00000000000E+00 0.  1.
        -24    2    1    2    0    0 -0.19672948493E+02 -0.36936554670E+02 -0.27044492849E+03  0.28877944804E+03  0.92205077361E+02 0.  0.
         25    2    1    2    0    0  0.58901515312E+02 -0.11407283318E+03 -0.72673136787E+02  0.19341931771E+03  0.12509055870E+03 0.  0.
         24    2    1    2    0    0 -0.39228566820E+02  0.15100938785E+03  0.15542633538E+03  0.23450884828E+03  0.80587458796E+02 0.  0.
        -13    1    5    5    0    0 -0.26394875784E+02  0.13746787544E+03  0.89860001000E+02  0.16633979086E+03  0.00000000000E+00 0.  1.
         14    1    5    5    0    0 -0.12833691035E+02  0.13541512414E+02  0.65566334384E+02  0.68169057413E+02  0.00000000000E+00 0. -1.
         13    1    3    3    0    0 -0.23071156179E+02  0.14288316254E+02 -0.21572110529E+02  0.34666845566E+02  0.00000000000E+00 0. -1.
        -14    1    3    3    0    0  0.33982076862E+01 -0.51224870924E+02 -0.24887281796E+03  0.25411260247E+03  0.00000000000E+00 0.  1.
          5    1    4    4  501    0  0.12942574858E+02 -0.12413123155E+03 -0.75807662630E+02  0.14608335635E+03  0.41800000000E+01 0.  1.
         -5    1    4    4    0  501  0.45958940454E+02  0.10058398366E+02  0.31345258430E+01  0.47335961357E+02  0.41800000000E+01 0.  1.
</event>
<event>
11    1  0.6625361E-009  0.1559824E+03  0.7561462E-02  0.1090918E+00
         22   -1    0    0    0    0  0.00000000000E+00  0.00000000000E+00  0.60183558599E+03  0.60183558599E+03  0.00000000000E+00 0.  1.
         22   -1    0    0    0    0 -0.00000000000E+00 -0.00000000000E+00 -0.59472834994E+03  0.59472834994E+03  0.00000000000E+00 0. -1.
         24    2    1    2    0    0  0.53506931640E+02 -0.74727511865E+02 -0.42547860914E+03  0.44618906689E+03  0.98007366111E+02 0.  0.
         25    2    1    2    0    0 -0.74467688031E+02  0.66936780470E+02 -0.11391315771E+03  0.19659435734E+03  0.12508862737E+03 0.  0.
        -24    2    1    2    0    0  0.20960756392E+02  0.77907313960E+01  0.54649900290E+03  0.55378051170E+03  0.86669753432E+02 0.  0.
        -13    1    3    3    0    0  0.17968119023E+01  0.22739153353E+02 -0.52693375190E+02  0.57418545934E+02  0.00000000000E+00 0.  1.
         14    1    3    3    0    0  0.51710119737E+02 -0.97466665219E+02 -0.37278523395E+03  0.38877052096E+03  0.00000000000E+00 0. -1.
         13    1    5    5    0    0 -0.32424916464E+02  0.86197915349E+01  0.15024211212E+03  0.15394274347E+03  0.00000000000E+00 0. -1.
        -14    1    5    5    0    0  0.53385672856E+02 -0.82906013899E+00  0.39625689078E+03  0.39983776823E+03  0.00000000000E+00 0.  1.
          5    1    4    4  501    0 -0.26092806436E+02  0.17805152735E+02  0.25628186631E+02  0.40891739527E+02  0.41800000000E+01 0. -1.
         -5    1    4    4    0  501 -0.48374881596E+02  0.49131627735E+02 -0.13954134434E+03  0.15570261781E+03  0.41800000000E+01 0. -1.
</event>
<event>
11    1  0.6625361E-009  0.1435957E+03  0.7561462E-02  0.1103608E+00
         22   -1    0    0    0    0  0.00000000000E+00  0.00000000000E+00  0.39991544588E+03  0.39991544588E+03  0.00000000000E+00 0.  1.
         22   -1    0    0    0    0 -0.00000000000E+00 -0.00000000000E+00 -0.31311785973E+03  0.31311785973E+03  0.00000000000E+00 0. -1.
         24    2    1    2    0    0 -0.57614890273E+02  0.43838748019E+02 -0.22843326927E+03  0.25289611285E+03  0.80829289085E+02 0.  0.
         25    2    1    2    0    0  0.41482518066E+02 -0.43559868881E+02  0.45626485582E+01  0.13887538173E+03  0.12508913785E+03 0.  0.
        -24    2    1    2    0    0  0.16132372206E+02 -0.27887913763E+00  0.31066820686E+03  0.32126181102E+03  0.80212749966E+02 0.  0.
        -11    1    3    3    0    0 -0.70539357960E+02  0.55528785751E+02 -0.20405201753E+03  0.22292705741E+03  0.00000000000E+00 0.  1.
         12    1    3    3    0    0  0.12924467687E+02 -0.11690037732E+02 -0.24381251745E+02  0.29969055438E+02  0.00000000000E+00 0. -1.
         11    1    5    5    0    0  0.24357470023E+02 -0.28416771162E+02  0.75440520520E+02  0.84214436800E+02  0.00000000000E+00 0. -1.
        -12    1    5    5    0    0 -0.82250978172E+01  0.28137892025E+02  0.23522768634E+03  0.23704737422E+03  0.00000000000E+00 0.  1.
          5    1    4    4  501    0  0.10559380571E+02 -0.65348610164E+02  0.47437218359E+02  0.81545713892E+02  0.41800000000E+01 0. -1.
         -5    1    4    4    0  501  0.30923137495E+02  0.21788741283E+02 -0.42874569800E+02  0.57329667842E+02  0.41800000000E+01 0. -1.
</event>
<event>
11    1  0.6625361E-009  0.1372490E+03  0.7561462E-02  0.1110670E+00
         22   -1    0    0    0    0  0.00000000000E+00  0.00000000000E+00  0.54087966694E+03  0.54087966694E+03  0.00000000000E+00 0. -1.
         22   -1    0    0    0    0 -0.00000000000E+00 -0.00000000000E+00 -0.65979982391E+02  0.65979982391E+02  0.00000000000E+00 0.  1.
         24    2    1    2    0    0  0.24685681564E+02  0.46778402740E+02  0.47366389764E+02  0.10367163172E+03  0.75542243195E+02 0.  0.
         25    2    1    2    0    0 -0.65993978389E+02 -0.32444487322E+02  0.14133848588E+03  0.20256587668E+03  0.12509403209E+03 0.  0.
        -24    2    1    2    0    0  0.41308296825E+02 -0.14333915418E+02  0.28619480891E+03  0.30062214093E+03  0.80959041826E+02 0.  0.
        -11    1    3    3    0    0  0.32112165296E+02  0.34348546627E+02  0.65397034654E+02  0.80546793585E+02  0.00000000000E+00 0.  1.
         12    1    3    3    0    0 -0.74264837323E+01  0.12429856113E+02 -0.18030644889E+02  0.23124838134E+02  0.00000000000E+00 0. -1.
         11    1    5    5    0    0 -0.99676321611E+01 -0.29643635368E+02  0.16788171706E+03  0.17076993217E+03  0.00000000000E+00 0. -1.
        -12    1    5    5    0    0  0.51275928986E+02  0.15309719949E+02  0.11831309185E+03  0.12985220876E+03  0.00000000000E+00 0.  1.
          5    1    4    4  501    0 -0.87700397694E+02 -0.52760857356E+02  0.67014692257E+02  0.12240714523E+03  0.41800000000E+01 0.  1.
         -5    1    4    4    0  501  0.21706419305E+02  0.20316370034E+02  0.74323793622E+02  0.80158731457E+02  0.41800000000E+01 0.  1.
</event>
<event>
11    1  0.6625361E-009  0.1660740E+03  0.7561462E-02  0.1081500E+00
         22   -1    0    0    0    0  0.00000000000E+00  0.00000000000E+00  0.21131773247E+04  0.21131773247E+04  0.00000000000E+00 0.  1.
         22   -1    0    0    0    0 -0.00000000000E+00 -0.00000000000E+00 -0.10002205043E+04  0.10002205043E+04  0.00000000000E+00 0. -1.
        -24    2    1    2    0    0 -0.10915329638E+03  0.46425647602E+01 -0.97077229286E+03  0.98040803481E+03  0.82855745864E+02 0.  0.
         25    2    1    2    0    0  0.10569508964E+03 -0.60203615199E+02  0.30371279638E+03  0.35026387769E+03  0.12508954422E+03 0.  0.
         24    2    1    2    0    0  0.34582067420E+01  0.55561050438E+02  0.17800163169E+04  0.17827259164E+04  0.80960577962E+02 0.  0.
        -11    1    5    5    0    0  0.35396366798E+02  0.56069045257E+02  0.11943498132E+04  0.11961889971E+04  0.00000000000E+00 0.  1.
         12    1    5    5    0    0 -0.31938160056E+02 -0.50799481907E+00  0.58566650371E+03  0.58653691930E+03  0.00000000000E+00 0. -1.
         13    1    3    3    0    0 -0.10373918573E+03 -0.16642715032E+01 -0.55870181977E+03  0.56825373898E+03  0.00000000000E+00 0. -1.
        -14    1    3    3    0    0 -0.54141106556E+01  0.63068362633E+01 -0.41207047309E+03  0.41215429583E+03  0.00000000000E+00 0.  1.
          5    1    4    4  501    0  0.11879290904E+03 -0.47687315903E+02  0.15809233983E+03  0.20346128784E+03  0.41800000000E+01 0.  1.
         -5    1    4    4    0  501 -0.13097819402E+02 -0.12516299295E+02  0.14562045655E+03  0.14680258985E+03  0.41800000000E+01 0.  1.
</event>
<event>
11    1  0.6625361E-009  0.1726363E+03  0.7561462E-02  0.1075760E+00
         22   -1    0    0    0    0  0.00000000000E+00  0.00000000000E+00  0.53089991396E+03  0.53089991396E+03  0.00000000000E+00 0.  1.
         22   -1    0    0    0    0 -0.00000000000E+00 -0.00000000000E+00 -0.29212756114E+04  0.29212756114E+04  0.00000000000E+00 0. -1.
         24    2    1    2    0    0 -0.91832068585E+02 -0.48579722823E+02 -0.28498218230E+04  0.28528160461E+04  0.79258133962E+02 0.  0.
         25    2    1    2    0    0  0.30372028911E+02  0.14965605067E+03  0.12039567965E+03  0.23121984385E+03  0.12509237734E+03 0.  0.
        -24    2    1    2    0    0  0.61460039674E+02 -0.10107632784E+03  0.33905044593E+03  0.36813963539E+03  0.81103796044E+02 0.  0.
        -11    1    3    3    0    0 -0.10123424783E+02  0.10505211498E+02 -0.10965748312E+04  0.10966718760E+04  0.00000000000E+00 0.  1.
         12    1    3    3    0    0 -0.81708643801E+02 -0.59084934321E+02 -0.17532469918E+04  0.17561441701E+04  0.00000000000E+00 0. -1.
         13    1    5    5    0    0  0.61147174421E+01  0.15588226144E+01 -0.28333945169E+01  0.69172119982E+01  0.00000000000E+00 0. -1.
        -14    1    5    5    0    0  0.55345322232E+02 -0.10263515046E+03  0.34188384045E+03  0.36122242339E+03  0.00000000000E+00 0.  1.
          5    1    4    4  501    0  0.63436823688E+02  0.12744802632E+03  0.12676471330E+03  0.19066723618E+03  0.41800000000E+01 0.  1.
         -5    1    4    4    0  501 -0.33064794778E+02  0.22208024344E+02 -0.63690336498E+01  0.40552607667E+02  0.41800000000E+01 0.  1.
</event>
<event>
11    1  0.6625361E-009  0.1594878E+03  0.7561462E-02  0.1087560E+00
         22   -1    0    0    0    0  0.00000000000E+00  0.00000000000E+00  0.66217802068E+03  0.66217802068E+03  0.00000000000E+00 0. -1.
         22   -1    0    0    0    0 -0.00000000000E+00 -0.00000000000E+00 -0.56918787996E+03  0.56918787996E+03  0.00000000000E+00 0. -1.
        -24    2    1    2    0    0  0.52968784881E+02 -0.29553794705E+02 -0.50244766876E+03  0.51249555638E+03  0.80739807471E+02 0.  0.
         25    2    1    2    0    0 -0.69870079923E+02 -0.70252733539E+02  0.64013483892E+02  0.17193760716E+03  0.12509012749E+03 0.  0.
         24    2    1    2    0    0  0.16901295042E+02  0.99806528244E+02  0.53142432559E+03  0.54693273710E+03  0.80477377129E+02 0.  0.
        -11    1    5    5    0    0 -0.30142991942E+02  0.18657984394E+02  0.13782964213E+03  0.14231560208E+03  0.00000000000E+00 0.  1.
         12    1    5    5    0    0  0.47044286984E+02  0.81148543849E+02  0.39359468345E+03  0.40461713502E+03  0.00000000000E+00 0. -1.
         13    1    3    3    0    0  0.60564401417E+02 -0.72105796974E+01 -0.45915883424E+03  0.46319204899E+03  0.00000000000E+00 0. -1.
        -14    1    3    3    0    0 -0.75956165357E+01 -0.22343215008E+02 -0.43288834520E+02  0.49303507396E+02  0.00000000000E+00 0.  1.
          5    1    4    4  501    0 -0.60020174110E+02  0.19832099894E+02  0.48768926471E+02  0.79947570792E+02  0.41800000000E+01 0.  1.
         -5    1    4    4    0  501 -0.98499058132E+01 -0.90084833433E+02  0.15244557422E+02  0.91990036363E+02  0.41800000000E+01 0.  1.
</event>
<event>
11    1  0.6625361E-009  0.2146220E+03  0.7561462E-02  0.1044640E+00
         22   -1    0    0    0    0  0.00000000000E+00  0.00000000000E+00  0.25997609512E+03  0.25997609512E+03  0.00000000000E+00 0.  1.
         22   -1    0    0    0    0 -0.00000000000E+00 -0.00000000000E+00 -0.98455627875E+03  0.98455627875E+03  0.00000000000E+00 0.  1.
         24    2    1    2    0    0  0.13153174333E+02  0.92589806133E+02 -0.61818852114E+03  0.63036257187E+03  0.80337078326E+02 0.  0.
         25    2    1    2    0    0 -0.13719445307E+03 -0.20234977886E+03 -0.25716204240E+03  0.37622803089E+03  0.12508982459E+03 0.  0.
        -24    2    1    2    0    0  0.12404127874E+03  0.10975997273E+03  0.15077037990E+03  0.23794177111E+03  0.80318668690E+02 0.  0.
        -13    1    3    3    0    0 -0.17802229492E+02  0.90477747437E+02 -0.45478699493E+03  0.46404132673E+03  0.00000000000E+00 0.  1.
         14    1    3    3    0    0  0.30955403825E+02  0.21120586953E+01 -0.16340152620E+03  0.16632124514E+03  0.00000000000E+00 0. -1.
         11    1    5    5    0    0 -0.34618726062E+01 -0.63764111275E+01 -0.20183148942E+01  0.75310540976E+01  0.00000000000E+00 0. -1.
        -12    1    5    5    0    0  0.12750315134E+03  0.11613638385E+03  0.15278869480E+03  0.23041071701E+03  0.00000000000E+00 0.  1.
          5    1    4    4  501    0 -0.11432655877E+03 -0.11315092518E+03 -0.22893305023E+03  0.27982406579E+03  0.41800000000E+01 0.  1.
         -5    1    4    4    0  501 -0.22867894297E+02 -0.89198853680E+02 -0.28228992178E+02  0.96403965099E+02  0.41800000000E+01 0.  1.
</event>
<event>
11    1  0.6625361E-009  0.2092755E+03  0.7561462E-02  0.1048152E+00
         22   -1    0    0    0    0  0.00000000000E+00  0.00000000000E+00  0.37193525146E+03  0.37193525146E+03  0.00000000000E+00 0. -1.
         22   -1    0    0    0    0 -0.00000000000E+00 -0.00000000000E+00 -0.29602990703E+03  0.29602990703E+03  0.00000000000E+00 0. -1.
         24    2    1    2    0    0 -0.27029563178E+02  0.63849441620E+02 -0.57646108277E+02  0.11634374717E+03  0.73521733019E+02 0.  0.
         25    2    1    2    0    0  0.12468382251E+03  0.79211277076E+02 -0.12452054849E+03  0.23016970483E+03  0.12510892859E+03 0.  0.
        -24    2    1    2    0    0 -0.97654259335E+02 -0.14306071870E+03  0.25807200120E+03  0.32145170649E+03  0.82020230436E+02 0.  0.
        -11    1    3    3    0    0 -0.49093887518E+02  0.56918890053E+02 -0.31674434435E+02  0.81567393199E+02  0.00000000000E+00 0.  1.
         12    1    3    3    0    0  0.22064324340E+02  0.69305515671E+01 -0.25971673842E+02  0.34776353974E+02  0.00000000000E+00 0. -1.
         11    1    5    5    0    0 -0.20969675778E+02 -0.10045500778E+03  0.12032879177E+03  0.15814535725E+03  0.00000000000E+00 0. -1.
        -12    1    5    5    0    0 -0.76684583557E+02 -0.42605710916E+02  0.13774320943E+03  0.16330634924E+03  0.00000000000E+00 0.  1.
          5    1    4    4  501    0  0.88884979404E+02  0.59562810100E+02 -0.88641988390E+01  0.10744447092E+03  0.41800000000E+01 0.  1.
         -5    1    4    4    0  501  0.35798843109E+02  0.19648466977E+02 -0.11565634966E+03  0.12272523391E+03  0.41800000000E+01 0.  1.
</event>
<event>
11    1  0.6625361E-009  0.1380102E+03  0.7561462E-02  0.1109801E+00
         22   -1    0    0    0    0  0.00000000000E+00  0.00000000000E+00  0.98412809252E+02  0.98412809252E+02  0.00000000000E+00 0. -1.
         22   -1    0    0    0    0 -0.00000000000E+00 -0.00000000000E+00 -0.54443411788E+03  0.54443411788E+03  0.00000000000E+00 0.  1.
        -24    2    1    2    0    0 -0.32619470203E+02 -0.10317314793E+03 -0.14506609651E+03  0.19811673018E+03  0.80606067564E+02 0.  0.
         25    2    1    2    0    0 -0.24268673135E+02  0.34315636471E+02 -0.29640517792E+03  0.32445219426E+03  0.12508663182E+03 0.  0.
         24    2    1    2    0    0  0.56888143338E+02  0.68857511461E+02 -0.45500342040E+01  0.12027800270E+03  0.80426844935E+02 0.  0.
        -13    1    5    5    0    0 -0.10768835766E+02  0.48292273225E+02 -0.19203946857E+01  0.49515647958E+02  0.00000000000E+00 0.  1.
         14    1    5    5    0    0  0.67656979104E+02  0.20565238236E+02 -0.26296395184E+01  0.70762354746E+02  0.00000000000E+00 0. -1.
         13    1    3    3    0    0  0.31568044665E+00 -0.73516408654E+02 -0.39127358440E+02  0.83280923230E+02  0.00000000000E+00 0. -1.
        -14    1    3    3    0    0 -0.32935150649E+02 -0.29656739278E+02 -0.10593873807E+03  0.11483580695E+03  0.00000000000E+00 0.  1.
          5    1    4    4  501    0  0.39043528413E+02 -0.15852419355E+02 -0.16326251176E+03  0.16866480503E+03  0.41800000000E+01 0.  1.
         -5    1    4    4    0  501 -0.63312201548E+02  0.50168055826E+02 -0.13314266616E+03  0.15578738923E+03  0.41800000000E+01 0.  1.
</event>
<event>
11    1  0.6625361E-009  0.1408752E+03  0.7561462E-02  0.1106585E+00
         22   -1    0    0    0    0  0.00000000000E+00  0.00000000000E+00  0.67359372738E+03  0.67359372738E+03  0.00000000000E+00 0.  1.
         22   -1    0    0    0    0 -0.00000000000E+00 -0.00000000000E+00 -0.49492826817E+03  0.49492826817E+03  0.00000000000E+00 0.  1.
         24    2    1    2    0    0  0.14338382553E+02 -0.16857766216E+02 -0.41052960954E+03  0.41884231302E+03  0.80028428549E+02 0.  0.
         25    2    1    2    0    0 -0.41838089047E+02 -0.42362046133E+02 -0.12749129452E+02  0.13911708512E+03  0.12508418934E+03 0.  0.
        -24    2    1    2    0    0  0.27499706494E+02  0.59219812349E+02  0.60194419820E+03  0.61056259741E+03  0.78655245039E+02 0.  0.
        -13    1    3    3    0    0 -0.12436446041E+02 -0.42534791561E+02 -0.18176045623E+03  0.18708483940E+03  0.00000000000E+00 0.  1.
         14    1    3    3    0    0  0.26774828594E+02  0.25677025345E+02 -0.22876915330E+03  0.23175747362E+03  0.00000000000E+00 0. -1.
         11    1    5    5    0    0  0.30053381750E+02 -0.68814208313E+01  0.29288583281E+03  0.29450410993E+03  0.00000000000E+00 0. -1.
        -12    1    5    5    0    0 -0.25536752558E+01  0.66101233180E+02  0.30905836539E+03  0.31605848748E+03  0.00000000000E+00 0.  1.
          5    1    4    4  501    0 -0.84147913254E+02 -0.13340335868E+02 -0.18610171516E+02  0.87307770272E+02  0.41800000000E+01 0. -1.
         -5    1    4    4    0  501  0.42309824207E+02 -0.29021710264E+02  0.58610420637E+01  0.51809314849E+02  0.41800000000E+01 0. -1.
</event>
<event>
11    1  0.6625361E-009  0.2811552E+03  0.7561462E-02  0.1008498E+00
         22   -1    0    0    0    0  0.00000000000E+00  0.00000000000E+00  0.34437427670E+03  0.34437427670E+03  0.00000000000E+00 0. -1.
         22   -1    0    0    0    0 -0.00000000000E+00 -0.00000000000E+00 -0.40596892778E+03  0.40596892778E+03  0.00000000000E+00 0.  1.
        -24    2    1    2    0    0  0.42892226261E+02 -0.33451763453E+02 -0.27105669733E+02  0.10157165606E+03  0.81383784824E+02 0.  0.
         25    2    1    2    0    0 -0.15023824242E+03  0.24900994435E+03 -0.17114729941E+03  0.35988471901E+03  0.12509248982E+03 0.  0.
         24    2    1    2    0    0  0.10734601616E+03 -0.21555818090E+03  0.13665831807E+03  0.28888682941E+03  0.82411211428E+02 0.  0.
        -11    1    5    5    0    0  0.87859837809E+02 -0.13473609374E+03  0.12748326817E+03  0.20524412225E+03  0.00000000000E+00 0.  1.
         12    1    5    5    0    0  0.19486178351E+02 -0.80822087160E+02  0.91750499005E+01  0.83642707155E+02  0.00000000000E+00 0. -1.
         11    1    3    3    0    0  0.60050868487E+02 -0.95332225576E+01  0.10862998591E+01  0.60812574241E+02  0.00000000000E+00 0. -1.
        -12    1    3    3    0    0 -0.17158642227E+02 -0.23918540895E+02 -0.28191969593E+02  0.40759081824E+02  0.00000000000E+00 0.  1.
          5    1    4    4  501    0 -0.27147060351E+02  0.14173795134E+02 -0.69200635421E+02  0.75789575120E+02  0.41800000000E+01 0.  1.
         -5    1    4    4    0  501 -0.12309118207E+03  0.23483614922E+03 -0.10194666399E+03  0.28409514389E+03  0.41800000000E+01 0.  1.
</event>
<event>
11    1  0.6625361E-009  0.1906638E+03  0.7561462E-02  0.1061329E+00
         22   -1    0    0    0    0  0.00000000000E+00  0.00000000000E+00  0.21174462885E+04  0.21174462885E+04  0.00000000000E+00 0.  1.
         22   -1    0    0    0    0 -0.00000000000E+00 -0.00000000000E+00 -0.11408155510E+03  0.11408155510E+03  0.00000000000E+00 0.  1.
         24    2    1    2    0    0 -0.14095346257E+03 -0.18123857900E+02 -0.68420498998E+01  0.16321064564E+03  0.79965920036E+02 0.  0.
         25    2    1    2    0    0  0.16425827177E+03 -0.11052390558E+03  0.52026045341E+03  0.57053994540E+03  0.12509426991E+03 0.  0.
        -24    2    1    2    0    0 -0.23304809197E+02  0.12864776348E+03  0.14899463298E+04  0.14977772525E+04  0.79393143167E+02 0.  0.
        -11    1    3    3    0    0 -0.12353608138E+03 -0.18721190643E+02 -0.35302667515E+02  0.12983807114E+03  0.00000000000E+00 0.  1.
         12    1    3    3    0    0 -0.17417381184E+02  0.59733274303E+00  0.28460617615E+02  0.33372574500E+02  0.00000000000E+00 0. -1.
         11    1    5    5    0    0 -0.26713330549E+02  0.41913076977E+02  0.25590676008E+03  0.26068866086E+03  0.00000000000E+00 0. -1.
        -12    1    5    5    0    0  0.34085213511E+01  0.86734686503E+02  0.12340395698E+04  0.12370885917E+04  0.00000000000E+00 0.  1.
          5    1    4    4  501    0  0.15522618103E+03 -0.46628003780E+02  0.30032097838E+03  0.34129093230E+03  0.41800000000E+01 0. -1.
         -5    1    4    4    0  501  0.90320907316E+01 -0.63895901800E+02  0.21993947503E+03  0.22924901310E+03  0.41800000000E+01 0. -1.
</event>
<event>
11    1  0.6625361E-009  0.1297762E+03  0.7561462E-02  0.1119544E+00
         22   -1    0    0    0    0  0.00000000000E+00  0.00000000000E+00  0.26141668605E+04  0.26141668605E+04  0.00000000000E+00 0.  1.
         22   -1    0    0    0    0 -0.00000000000E+00 -0.00000000000E+00 -0.57190129581E+03  0.57190129581E+03  0.00000000000E+00 0. -1.
         24    2    1    2    0    0 -0.10193362065E+02  0.30087037353E+02 -0.52634218254E+03  0.53327345139E+03  0.79594889182E+02 0.  0.
         25    2    1    2    0    0 -0.16978446774E+02 -0.79500294778E+01  0.55423073171E+02  0.13809528647E+03  0.12508845064E+03 0.  0.
        -24    2    1    2    0    0  0.27171808838E+02 -0.22137007875E+02  0.25131846741E+04  0.25146994185E+04  0.79922493236E+02 0.  0.
        -11    1    3    3    0    0 -0.13312374583E+02  0.54397812245E+02 -0.26906650559E+03  0.27483290509E+03  0.00000000000E+00 0.  1.
         12    1    3    3    0    0  0.31190125179E+01 -0.24310774892E+02 -0.25727567696E+03  0.25844054629E+03  0.00000000000E+00 0. -1.
         11    1    5    5    0    0 -0.20089467680E+01 -0.42081697361E+02  0.76632100491E+03  0.76747820014E+03  0.00000000000E+00 0. -1.
        -12    1    5    5    0    0  0.29180755606E+02  0.19944689485E+02  0.17468636692E+04  0.17472212183E+04  0.00000000000E+00 0.  1.
          5    1    4    4  501    0  0.87881473659E+01  0.52774475509E+02  0.47237819053E+02  0.71493081821E+02  0.41800000000E+01 0.  1.
         -5    1    4    4    0  501 -0.25766594139E+02 -0.60724504987E+02  0.81852541178E+01  0.66602204651E+02  0.41800000000E+01 0.  1.
</event>
<event>
11    1  0.6625361E-009  0.1583518E+03  0.7561462E-02  0.1088638E+00
         22   -1    0    0    0    0  0.00000000000E+00  0.00000000000E+00  0.45659791840E+03  0.45659791840E+03  0.00000000000E+00 0.  1.
         22   -1    0    0    0    0 -0.00000000000E+00 -0.00000000000E+00 -0.34583240571E+04  0.34583240571E+04  0.00000000000E+00 0.  1.
        -24    2    1    2    0    0  0.89487618085E+02  0.39369264438E+02 -0.32389464354E+04  0.32413713712E+04  0.78462614904E+02 0.  0.
         25    2    1    2    0    0 -0.52140233186E+02 -0.81186827208E+02 -0.18314697634E+03  0.24186688622E+03  0.12508745291E+03 0.  0.
         24    2    1    2    0    0 -0.37347384899E+02  0.41817562770E+02  0.42036727304E+03  0.43168371807E+03  0.80614220093E+02 0.  0.
        -13    1    5    5    0    0 -0.22927192476E+02  0.61693421227E+02  0.36807292891E+03  0.37391097252E+03  0.00000000000E+00 0.  1.
         14    1    5    5    0    0 -0.14420192423E+02 -0.19875858457E+02  0.52294344135E+02  0.57772745542E+02  0.00000000000E+00 0. -1.
         13    1    3    3    0    0  0.61748752280E+02  0.25989436099E+02 -0.10135107776E+04  0.10157226273E+04  0.00000000000E+00 0. -1.
        -14    1    3    3    0    0  0.27738865805E+02  0.13379828339E+02 -0.22254356578E+04  0.22256487439E+04  0.00000000000E+00 0.  1.
          5    1    4    4  501    0 -0.48836537998E+01  0.19143804546E+02  0.72744383506E+01  0.21464509784E+02  0.41800000000E+01 0. -1.
         -5    1    4    4    0  501 -0.47256579387E+02 -0.10033063175E+03 -0.19042141469E+03  0.22040237643E+03  0.41800000000E+01 0. -1.
</event>
<event>
11    1  0.6625361E-009  0.1858830E+03  0.7561462E-02  0.1064981E+00
         22   -1    0    0    0    0  0.00000000000E+00  0.00000000000E+00  0.12684501949E+04  0.12684501949E+04  0.00000000000E+00 0.  1.
         22   -1    0    0    0    0 -0.00000000000E+00 -0.00000000000E+00 -0.65322238245E+02  0.65322238245E+02  0.00000000000E+00 0.  1.
         24    2    1    2    0    0 -0.43658953951E+02  0.23302343082E+02  0.68860897245E+01  0.87811332022E+02  0.72210167889E+02 0.  0.
         25    2    1    2    0    0 -0.58180865703E+02  0.97973363498E+02  0.51995148140E+03  0.54679152983E+03  0.12509053120E+03 0.  0.
        -24    2    1    2    0    0  0.10183981965E+03 -0.12127570658E+03  0.67629038554E+03  0.69916957130E+03  0.79939089235E+02 0.  0.
        -11    1    3    3    0    0 -0.35494283724E+02  0.40928788093E+02  0.26409636563E+02  0.60270048741E+02  0.00000000000E+00 0.  1.
         12    1    3    3    0    0 -0.81646702270E+01 -0.17626445010E+02 -0.19523546839E+02  0.27541283281E+02  0.00000000000E+00 0. -1.
         11    1    5    5    0    0 -0.80849941515E+00 -0.12578514390E+02  0.18996356844E+03  0.19038127541E+03  0.00000000000E+00 0. -1.
        -12    1    5    5    0    0  0.10264831907E+03 -0.10869719219E+03  0.48632681710E+03  0.50878829588E+03  0.00000000000E+00 0.  1.
          5    1    4    4  501    0 -0.29420685794E+02 -0.17471310736E+01  0.32082190738E+03  0.32219993463E+03  0.41800000000E+01 0.  1.
         -5    1    4    4    0  501 -0.28760179909E+02  0.99720494572E+02  0.19912957402E+03  0.22459159521E+03  0.41800000000E+01 0.  1.
</event>
<event>
11    1  0.6625361E-009  0.1585620E+03  0.7561462E-02  0.1088438E+00
         22   -1    0    0    0    0  0.00000000000E+00  0.00000000000E+00  0.35805324202E+02  0.35805324202E+02  0.00000000000E+00 0.  1.
         22   -1    0    0    0    0 -0.00000000000E+00 -0.00000000000E+00 -0.34637685594E+04  0.34637685594E+04  0.00000000000E+00 0. -1.
        -24    2    1    2    0    0 -0.35829327619E+02  0.12770099447E+02 -0.25019824636E+04  0.25043268529E+04  0.10143925060E+03 0.  0.
         25    2    1    2    0    0 -0.39048273514E+02  0.57602365887E+02 -0.80697449872E+03  0.81957197923E+03  0.12509031670E+03 0.  0.
         24    2    1    2    0    0  0.74877601134E+02 -0.70372465334E+02 -0.11900627287E+03  0.17567505152E+03  0.78360013497E+02 0.  0.
        -13    1    5    5    0    0  0.68430925462E+02 -0.83804371077E+02 -0.11892413604E+03  0.16077597552E+03  0.00000000000E+00 0.  1.
         14    1    5    5    0    0  0.64466756720E+01  0.13431905743E+02 -0.82136825250E-01  0.14899075997E+02  0.00000000000E+00 0. -1.
         13    1    3    3    0    0 -0.51274730632E+02  0.27472999391E+02 -0.23631824346E+04  0.23638982810E+04  0.00000000000E+00 0. -1.
        -14    1    3    3    0    0  0.15445403013E+02 -0.14702899944E+02 -0.13880002900E+03  0.14042857184E+03  0.00000000000E+00 0.  1.
          5    1    4    4  501    0  0.73489123317E+01  0.86763272756E+02 -0.54102310920E+03  0.54800123093E+03  0.41800000000E+01 0.  1.
         -5    1    4    4    0  501 -0.46397185846E+02 -0.29160906869E+02 -0.26595138952E+03  0.27157074830E+03  0.41800000000E+01 0.  1.
</event>
<event>
11    1  0.6625361E-009  0.1376252E+03  0.7561462E-02  0.1110240E+00
         22   -1    0    0    0    0  0.00000000000E+00  0.00000000000E+00  0.12171152116E+04  0.12171152116E+04  0.00000000000E+00 0.  1.
         22   -1    0    0    0    0 -0.00000000000E+00 -0.00000000000E+00 -0.10392858440E+03  0.10392858440E+03  0.00000000000E+00 0.  1.
        -24    2    1    2    0    0 -0.17381602835E+02 -0.50113161091E+02 -0.58556022473E+02  0.11292158670E+03  0.80678546980E+02 0.  0.
         25    2    1    2    0    0 -0.50723713860E+01 -0.11762042900E+02  0.24321421916E+03  0.27379912416E+03  0.12509488153E+03 0.  0.
         24    2    1    2    0    0  0.22453974221E+02  0.61875203991E+02  0.92852843047E+03  0.93432308511E+03  0.80385691183E+02 0.  0.
        -13    1    5    5    0    0  0.47740008773E+02  0.57237043877E+02  0.56633557720E+03  0.57121902422E+03  0.00000000000E+00 0.  1.
         14    1    5    5    0    0 -0.25286034553E+02  0.46381601141E+01  0.36219285328E+03  0.36310406089E+03  0.00000000000E+00 0. -1.
         13    1    3    3    0    0  0.13260148718E+02 -0.24334146649E+02  0.13240611719E+02  0.30713124814E+02  0.00000000000E+00 0. -1.
        -14    1    3    3    0    0 -0.30641751553E+02 -0.25779014442E+02 -0.71796634192E+02  0.82208461883E+02  0.00000000000E+00 0.  1.
          5    1    4    4  501    0  0.10642454341E+02 -0.39314987499E+01 -0.12533746713E+02  0.17415100444E+02  0.41800000000E+01 0.  1.
         -5    1    4    4    0  501 -0.15714825727E+02 -0.78305441504E+01  0.25574796587E+03  0.25638402372E+03  0.41800000000E+01 0.  1.
</event>
<event>
11    1  0.6625361E-009  0.1328900E+03  0.7561462E-02  0.1115768E+00
         22   -1    0    0    0    0  0.00000000000E+00  0.00000000000E+00  0.68161187957E+03  0.68161187957E+03  0.00000000000E+00 0. -1.
         22   -1    0    0    0    0 -0.00000000000E+00 -0.00000000000E+00 -0.54984278682E+03  0.54984278682E+03  0.00000000000E+00 0.  1.
        -24    2    1    2    0    0  0.39980907398E+02  0.21151161623E+02 -0.50023435958E+03  0.50890104436E+03  0.81853612351E+02 0.  0.
         25    2    1    2    0    0 -0.35884205249E+02 -0.92966840382E+01  0.58621007722E+02  0.14303265596E+03  0.12509122113E+03 0.  0.
         24    2    1    2    0    0 -0.40967021494E+01 -0.11854477585E+02  0.57338244461E+03  0.57952096608E+03  0.83185399757E+02 0.  0.
        -13    1    5    5    0    0  0.27015488853E+02  0.18754210170E+02  0.13401956408E+03  0.13799565426E+03  0.00000000000E+00 0.  1.
         14    1    5    5    0    0 -0.31112191003E+02 -0.30608687755E+02  0.43936288052E+03  0.44152531182E+03  0.00000000000E+00 0. -1.
         13    1    3    3    0    0  0.24396892914E+02  0.52764065264E+02 -0.29761557314E+03  0.30323964836E+03  0.00000000000E+00 0. -1.
        -14    1    3    3    0    0  0.15584014484E+02 -0.31612903641E+02 -0.20261878644E+03  0.20566139600E+03  0.00000000000E+00 0.  1.
          5    1    4    4  501    0  0.16327373386E+02  0.55461938393E+01  0.81917086040E+02  0.83816613944E+02  0.41800000000E+01 0.  1.
         -5    1    4    4    0  501 -0.52211578635E+02 -0.14842877878E+02 -0.23296078317E+02  0.59216042018E+02  0.41800000000E+01 0.  1.
</event>
<event>
11    1  0.6625361E-009  0.1634974E+03  0.7561462E-02  0.1083833E+00
         22   -1    0    0    0    0  0.00000000000E+00  0.00000000000E+00  0.86906713247E+03  0.86906713247E+03  0.00000000000E+00 0. -1.
         22   -1    0    0    0    0 -0.00000000000E+00 -0.00000000000E+00 -0.11954766072E+03  0.11954766072E+03  0.00000000000E+00 0. -1.
        -24    2    1    2    0    0 -0.16574250097E+02 -0.99026489832E+02 -0.23653427953E+02  0.13346115805E+03  0.84684382260E+02 0.  0.
         25    2    1    2    0    0  0.15097554902E+02  0.12242472166E+03  0.16459366437E+03  0.24073827918E+03  0.12509235017E+03 0.  0.
         24    2    1    2    0    0  0.14766951946E+01 -0.23398231833E+02  0.60857923533E+03  0.61441535597E+03  0.81165793810E+02 0.  0.
        -11    1    5    5    0    0 -0.29165426519E+02 -0.71241755107E+01  0.94230379083E+02  0.98897625467E+02  0.00000000000E+00 0.  1.
         12    1    5    5    0    0  0.30642121714E+02 -0.16274056323E+02  0.51434885625E+03  0.51551773050E+03  0.00000000000E+00 0. -1.
         11    1    3    3    0    0 -0.25251547774E+02 -0.53852197874E+02 -0.52357325598E+02  0.79240074613E+02  0.00000000000E+00 0. -1.
        -12    1    3    3    0    0  0.86772976770E+01 -0.45174291957E+02  0.28703897645E+02  0.54221083434E+02  0.00000000000E+00 0.  1.
          5    1    4    4  501    0 -0.10392666485E+02  0.13088464674E+02  0.11777288424E+03  0.11902621597E+03  0.41800000000E+01 0.  1.
         -5    1    4    4    0  501  0.25490221387E+02  0.10933625699E+03  0.46820780124E+02  0.12171206321E+03  0.41800000000E+01 0.  1.
</event>
<event>
11    1  0.6625361E-009  0.2400789E+03  0.7561462E-02  0.1029321E+00
         22   -1    0    0    0    0  0.00000000000E+00  0.00000000000E+00  0.18780079000E+03  0.18780079000E+03  0.00000000000E+00 0. -1.
         22   -1    0    0    0    0 -0.00000000000E+00 -0.00000000000E+00 -0.34918986523E+04  0.34918986523E+04  0.00000000000E+00 0.  1.
         24    2    1    2    0    0 -0.11784166126E+02  0.43973690175E+02 -0.32043413966E+04  0.32058519490E+04  0.87237496356E+02 0.  0.
         25    2    1    2    0    0  0.14963985701E+03 -0.16999804788E+03 -0.44650601859E+02  0.26255108433E+03  0.12509185645E+03 0.  0.
        -24    2    1    2    0    0 -0.13785569089E+03  0.12602435770E+03 -0.55105863805E+02  0.21129640895E+03  0.81995036237E+02 0.  0.
        -13    1    3    3    0    0 -0.20245283261E+02  0.64080001327E+02 -0.16645007616E+04  0.16658568076E+04  0.00000000000E+00 0.  1.
         14    1    3    3    0    0  0.84611171351E+01 -0.20106311153E+02 -0.15398406350E+04  0.15399951413E+04  0.00000000000E+00 0. -1.
         11    1    5    5    0    0 -0.14899047248E+03  0.12010325795E+03 -0.51902993027E+02  0.19828483085E+03  0.00000000000E+00 0. -1.
        -12    1    5    5    0    0  0.11134781597E+02  0.59210997504E+01 -0.32028707777E+01  0.13011578101E+02  0.00000000000E+00 0.  1.
          5    1    4    4  501    0  0.10709906170E+03 -0.15804810784E+03 -0.78766738236E+02  0.20656980626E+03  0.41800000000E+01 0.  1.
         -5    1    4    4    0  501  0.42540795317E+02 -0.11949940039E+02  0.34116136378E+02  0.55981278071E+02  0.41800000000E+01 0.  1.
</event>
<event>
11    1  0.6625361E-009  0.1834103E+03  0.7561462E-02  0.1066917E+00
         22   -1    0    0    0    0  0.00000000000E+00  0.00000000000E+00  0.62602920434E+03  0.62602920434E+03  0.00000000000E+00 0. -1.
         22   -1    0    0    0    0 -0.00000000000E+00 -0.00000000000E+00 -0.67430697387E+03  0.67430697387E+03  0.00000000000E+00 0. -1.
         24    2    1    2    0    0  0.36968749034E+02  0.27895688251E+02 -0.61845275916E+03  0.62524414961E+03  0.79382450716E+02 0.  0.
         25    2    1    2    0    0 -0.84221453136E+02  0.10370388608E+03  0.39790982288E+03  0.43798086627E+03  0.12508901997E+03 0.  0.
        -24    2    1    2    0    0  0.47252704102E+02 -0.13159957433E+03  0.17226516675E+03  0.23711116234E+03  0.83637011076E+02 0.  0.
        -11    1    3    3    0    0  0.27405503282E+01 -0.22551002320E+02 -0.74516084903E+02  0.77901894913E+02  0.00000000000E+00 0.  1.
         12    1    3    3    0    0  0.34228198706E+02  0.50446690570E+02 -0.54393667425E+03  0.54734225469E+03  0.00000000000E+00 0. -1.
         11    1    5    5    0    0  0.10948009115E+02 -0.10967880808E+03  0.15743213757E+03  0.19218266776E+03  0.00000000000E+00 0. -1.
        -12    1    5    5    0    0  0.36304694987E+02 -0.21920766250E+02  0.14833029183E+02  0.44928494587E+02  0.00000000000E+00 0.  1.
          5    1    4    4  501    0 -0.98698512074E+02  0.68030652661E+02  0.37330166928E+03  0.39209842473E+03  0.41800000000E+01 0. -1.
         -5    1    4    4    0  501  0.14477058938E+02  0.35673233421E+02  0.24608153595E+02  0.45882441539E+02  0.41800000000E+01 0. -1.
</event>
<event>
11    1  0.6625361E-009  0.1321077E+03  0.7561462E-02  0.1116706E+00
         22   -1    0    0    0    0  0.00000000000E+00  0.00000000000E+00  0.34164028255E+03  0.34164028255E+03  0.00000000000E+00 0.  1.
         22   -1    0    0    0    0 -0.00000000000E+00 -0.00000000000E+00 -0.21347526855E+04  0.21347526855E+04  0.00000000000E+00 0.  1.
         24    2    1    2    0    0  0.42317043903E+01 -0.24558124676E+02 -0.20370997882E+04  0.20388536599E+04  0.80794125641E+02 0.  0.
         25    2    1    2    0    0 -0.45431512150E+02  0.31750450722E+02 -0.37224851346E+02  0.14179164647E+03  0.12508824099E+03 0.  0.
        -24    2    1    2    0    0  0.41199807760E+02 -0.71923260467E+01  0.28121223655E+03  0.29574766170E+03  0.81469035234E+02 0.  0.
        -11    1    3    3    0    0 -0.74798799661E+01  0.24215399304E+01 -0.17888992359E+04  0.17889165125E+04  0.00000000000E+00 0.  1.
         12    1    3    3    0    0  0.11711584356E+02 -0.26979664606E+02 -0.24820055225E+03  0.24993714739E+03  0.00000000000E+00 0. -1.
         11    1    5    5    0    0 -0.10525417161E+02  0.13792468450E+02  0.12717020189E+02  0.21511373616E+02  0.00000000000E+00 0. -1.
        -12    1    5    5    0    0  0.51725224921E+02 -0.20984794497E+02  0.26849521636E+03  0.27423628808E+03  0.00000000000E+00 0.  1.
          5    1    4    4  501    0 -0.85226789662E+02  0.38257963550E+02 -0.38747594210E+02  0.10122314907E+03  0.41800000000E+01 0.  1.
         -5    1    4    4    0  501  0.39795277511E+02 -0.65075128280E+01  0.15227428644E+01  0.40568497399E+02  0.41800000000E+01 0.  1.
</event>
<event>
11    1  0.6625361E-009  0.1549659E+03  0.7561462E-02  0.1091910E+00
         22   -1    0    0    0    0  0.00000000000E+00  0.00000000000E+00  0.11551548622E+04  0.11551548622E+04  0.00000000000E+00 0. -1.
         22   -1    0    0    0    0 -0.00000000000E+00 -0.00000000000E+00 -0.23654572908E+04  0.23654572908E+04  0.00000000000E+00 0.  1.
         24    2    1    2    0    0 -0.39647705785E+02  0.82205475883E+02 -0.23075816746E+04  0.23107416174E+04  0.79145162890E+02 0.  0.
         25    2    1    2    0    0  0.64241874588E+02 -0.89205769828E+02  0.71865236707E+02  0.18137176944E+03  0.12508564539E+03 0.  0.
        -24    2    1    2    0    0 -0.24594168803E+02  0.70002939456E+01  0.10254140092E+04  0.10284987662E+04  0.75378674064E+02 0.  0.
        -13    1    3    3    0    0 -0.28032666136E+02  0.16778793386E+02 -0.15231917636E+04  0.15235420923E+04  0.00000000000E+00 0.  1.
         14    1    3    3    0    0 -0.11615039648E+02  0.65426682497E+02 -0.78438991097E+03  0.78719952513E+03  0.00000000000E+00 0. -1.
         11    1    5    5    0    0 -0.46209955408E+02 -0.14872383909E+02  0.67050498347E+03  0.67225997995E+03  0.00000000000E+00 0. -1.
        -12    1    5    5    0    0  0.21615786605E+02  0.21872677854E+02  0.35490902574E+03  0.35623878624E+03  0.00000000000E+00 0.  1.
          5    1    4    4  501    0 -0.17620249865E+02 -0.75255802891E+02  0.10677526736E+02  0.78137001806E+02  0.41800000000E+01 0.  1.
         -5    1    4    4    0  501  0.81862124452E+02 -0.13949966937E+02  0.61187709971E+02  0.10323476764E+03  0.41800000000E+01 0.  1.
</event>
<event>
11    1  0.6625361E-009  0.1261215E+03  0.7561462E-02  0.1124128E+00
         22   -1    0    0    0    0  0.00000000000E+00  0.00000000000E+00  0.15525110658E+04  0.15525110658E+04  0.00000000000E+00 0. -1.
         22   -1    0    0    0    0 -0.00000000000E+00 -0.00000000000E+00 -0.42977589743E+02  0.42977589743E+02  0.00000000000E+00 0.  1.
         24    2    1    2    0    0  0.28895583902E+02 -0.98307465625E+01  0.27226808330E+02  0.88570596793E+02  0.78561142923E+02 0.  0.
         25    2    1    2    0    0 -0.20686746909E+02 -0.77365472567E+01  0.38993176915E+03  0.41010099937E+03  0.12509296315E+03 0.  0.
        -24    2    1    2    0    0 -0.82088369929E+01  0.17567293819E+02  0.10923748986E+04  0.10968170594E+04  0.96688923320E+02 0.  0.
        -13    1    3    3    0    0  0.50725744741E+02  0.25476815961E+00 -0.19465771069E+01  0.50763719808E+02  0.00000000000E+00 0.  1.
         14    1    3    3    0    0 -0.21830160839E+02 -0.10085514722E+02  0.29173385437E+02  0.37806876984E+02  0.00000000000E+00 0. -1.
         11    1    5    5    0    0 -0.19430365324E+02  0.21319353781E+02  0.10771444292E+04  0.10775305913E+04  0.00000000000E+00 0. -1.
        -12    1    5    5    0    0  0.11221528331E+02 -0.37520599620E+01  0.15230469428E+02  0.19286468080E+02  0.00000000000E+00 0.  1.
          5    1    4    4  501    0  0.81511683295E+01 -0.63040613671E+02  0.17360870606E+03  0.18492705518E+03  0.41800000000E+01 0. -1.
         -5    1    4    4    0  501 -0.28837915239E+02  0.55304066414E+02  0.21632306309E+03  0.22517394419E+03  0.41800000000E+01 0. -1.
</event>
<event>
11    1  0.6625361E-009  0.1809412E+03  0.7561462E-02  0.1068884E+00
         22   -1    0    0    0    0  0.00000000000E+00  0.00000000000E+00  0.27729207817E+03  0.27729207817E+03  0.00000000000E+00 0. -1.
         22   -1    0    0    0    0 -0.00000000000E+00 -0.00000000000E+00 -0.15692387055E+04  0.15692387055E+04  0.00000000000E+00 0. -1.
        -24    2    1    2    0    0 -0.70892431644E+02  0.82038590148E+00 -0.12834285412E+04  0.12879898230E+04  0.81869127917E+02 0.  0.
         25    2    1    2    0    0  0.15745957031E+02  0.12047955619E+03 -0.22937060038E+03  0.28813424891E+03  0.12508882626E+03 0.  0.
         24    2    1    2    0    0  0.55146474613E+02 -0.12129994209E+03  0.22085251425E+03  0.27040671167E+03  0.81173561308E+02 0.  0.
        -11    1    5    5    0    0  0.72021252632E+01 -0.97716889210E+02  0.10975016740E+03  0.14712430217E+03  0.00000000000E+00 0.  1.
         12    1    5    5    0    0  0.47944349350E+02 -0.23583052882E+02  0.11110234685E+03  0.12328240950E+03  0.00000000000E+00 0. -1.
         11    1    3    3    0    0 -0.47733205257E+02  0.22233081834E+02 -0.11362493095E+04  0.11374687961E+04  0.00000000000E+00 0. -1.
        -12    1    3    3    0    0 -0.23159226386E+02 -0.21412695933E+02 -0.14717923166E+03  0.15052102692E+03  0.00000000000E+00 0.  1.
          5    1    4    4  501    0  0.22209266261E+01  0.14344982873E+03 -0.21209756820E+03  0.25609692835E+03  0.41800000000E+01 0.  1.
         -5    1    4    4    0  501  0.13525030405E+02 -0.22970272536E+02 -0.17273032186E+02  0.32037320561E+02  0.41800000000E+01 0.  1.
</event>
<event>
11    1  0.6625361E-009  0.1474661E+03  0.7561462E-02  0.1099496E+00
         22   -1    0    0    0    0  0.00000000000E+00  0.00000000000E+00  0.96840398378E+03  0.96840398378E+03  0.00000000000E+00 0. -1.
         22   -1    0    0    0    0 -0.00000000000E+00 -0.00000000000E+00 -0.50946000035E+03  0.50946000035E+03  0.00000000000E+00 0.  1.
         24    2    1    2    0    0  0.32311579796E+02  0.64234544947E+02 -0.37276174830E+03  0.38766674510E+03  0.78511587099E+02 0.  0.
         25    2    1    2    0    0 -0.39583242059E+02 -0.12999666525E+03 -0.59038812099E+02  0.19389882347E+03  0.12508079942E+03 0.  0.
        -24    2    1    2    0    0  0.72716622633E+01  0.65762120301E+02  0.89074454383E+03  0.89629841556E+03  0.74481365607E+02 0.  0.
        -13    1    3    3    0    0 -0.10216346942E+02  0.62938358879E+02 -0.21331068317E+03  0.22263660597E+03  0.00000000000E+00 0.  1.
         14    1    3    3    0    0  0.42527926738E+02  0.12961860678E+01 -0.15945106513E+03  0.16503013914E+03  0.00000000000E+00 0. -1.
         13    1    5    5    0    0 -0.12377931342E+02  0.54443186493E+02  0.82233864309E+03  0.82423183490E+03  0.00000000000E+00 0. -1.
        -14    1    5    5    0    0  0.19649593605E+02  0.11318933808E+02  0.68405900740E+02  0.72066580656E+02  0.00000000000E+00 0.  1.
          5    1    4    4  501    0  0.41532338853E+02 -0.16015177270E+02 -0.15592016856E+02  0.47349809538E+02  0.41800000000E+01 0.  1.
         -5    1    4    4    0  501 -0.81115580913E+02 -0.11398148798E+03 -0.43446795242E+02  0.14654901394E+03  0.41800000000E+01 0.  1.
</event>
<event>
11    1  0.6625361E-009  0.1581633E+03  0.7561462E-02  0.1088818E+00
         22   -1    0    0    0    0  0.00000000000E+00  0.00000000000E+00  0.87363058187E+03  0.87363058187E+03  0.00000000000E+00 0.  1.
         22   -1    0    0    0    0 -0.00000000000E+00 -0.00000000000E+00 -0.14630041069E+04  0.14630041069E+04  0.00000000000E+00 0. -1.
         24    2    1    2    0    0 -0.43946441282E+02  0.20767296777E+02 -0.95138648251E+03  0.95596065154E+03  0.79761882328E+02 0.  0.
         25    2    1    2    0    0 -0.39766936591E+02  0.28695995287E+02 -0.49570565259E+03  0.51359164294E+03  0.12508961706E+03 0.  0.
        -24    2    1    2    0    0  0.83713377873E+02 -0.49463292064E+02  0.85771861003E+03  0.86708239434E+03  0.81829809284E+02 0.  0.
        -13    1    3    3    0    0  0.26195692459E+01 -0.84222954221E+01 -0.11619377422E+02  0.14587910573E+02  0.00000000000E+00 0.  1.
         14    1    3    3    0    0 -0.46566010528E+02  0.29189592199E+02 -0.93976710509E+03  0.94137274097E+03  0.00000000000E+00 0. -1.
         11    1    5    5    0    0 -0.14008805117E+02 -0.17656327434E+02  0.21795792278E+03  0.21912016936E+03  0.00000000000E+00 0. -1.
        -12    1    5    5    0    0  0.97722182990E+02 -0.31806964630E+02  0.63976068725E+03  0.64796222498E+03  0.00000000000E+00 0.  1.
          5    1    4    4  501    0 -0.39094666222E+02  0.37643915902E+02 -0.49988983834E+03  0.50284468796E+03  0.41800000000E+01 0.  1.
         -5    1    4    4    0  501 -0.67227036846E+00 -0.89479206150E+01  0.41841857573E+01  0.10746954975E+02  0.41800000000E+01 0.  1.
</event>
<event>
11    1  0.6625361E-009  0.1475600E+03  0.7561462E-02  0.1099398E+00
         22   -1    0    0    0    0  0.00000000000E+00  0.00000000000E+00  0.30667555500E+04  0.30667555500E+04  0.00000000000E+00 0.  1.
         22   -1    0    0    0    0 -0.00000000000E+00 -0.00000000000E+00 -0.83026482949E+02  0.83026482949E+02  0.00000000000E+00 0.  1.
        -24    2    1    2    0    0  0.11474257392E+02  0.38008328000E+02 -0.46321661784E+02  0.10079351947E+03  0.80233070712E+02 0.  0.
         25    2    1    2    0    0  0.38731349888E+02  0.29179755915E+02  0.55171920554E+03  0.56779748893E+03  0.12509328942E+03 0.  0.
         24    2    1    2    0    0 -0.50205607280E+02 -0.67188083914E+02  0.24783315233E+04  0.24811910245E+04  0.84539454245E+02 0.  0.
        -13    1    5    5    0    0 -0.67086559587E+02 -0.74150440161E+02  0.21901988943E+04  0.21924803513E+04  0.00000000000E+00 0.  1.
         14    1    5    5    0    0  0.16880952307E+02  0.69623562462E+01  0.28813262902E+03  0.28871067327E+03  0.00000000000E+00 0. -1.
         11    1    3    3    0    0 -0.57899398669E+01 -0.24080517613E+02 -0.91878264143E+01  0.26416110357E+02  0.00000000000E+00 0. -1.
        -12    1    3    3    0    0  0.17264197259E+02  0.62088845613E+02 -0.37133835370E+02  0.74377409109E+02  0.00000000000E+00 0.  1.
          5    1    4    4  501    0 -0.15401633185E+02 -0.37504797921E+02  0.10038142783E+03  0.10834077545E+03  0.41800000000E+01 0.  1.
         -5    1    4    4    0  501  0.54132983074E+02  0.66684553836E+02  0.45133777771E+03  0.45945671348E+03  0.41800000000E+01 0.  1.
</event>
<event>
11    1  0.6625361E-009  0.1376395E+03  0.7561462E-02  0.1110223E+00
         22   -1    0    0    0    0  0.00000000000E+00  0.00000000000E+00  0.27036077448E+03  0.27036077448E+03  0.00000000000E+00 0. -1.
         22   -1    0    0    0    0 -0.00000000000E+00 -0.00000000000E+00 -0.61908399225E+03  0.61908399225E+03  0.00000000000E+00 0. -1.
         24    2    1    2    0    0 -0.30086152551E+01  0.83315881646E+01 -0.39984728609E+03  0.40785888698E+03  0.79953438768E+02 0.  0.
         25    2    1    2    0    0 -0.46102509450E+02 -0.37904829491E+02 -0.18108184219E+03  0.22803736639E+03  0.12509272330E+03 0.  0.
        -24    2    1    2    0    0  0.49111124705E+02  0.29573241326E+02  0.23220591050E+03  0.25354851337E+03  0.84147397981E+02 0.  0.
        -13    1    3    3    0    0 -0.62073596521E+01  0.44084410252E+02 -0.21602486043E+03  0.22056451860E+03  0.00000000000E+00 0.  1.
         14    1    3    3    0    0  0.31987443971E+01 -0.35752822087E+02 -0.18382242566E+03  0.18729436838E+03  0.00000000000E+00 0. -1.
         11    1    5    5    0    0  0.47921680314E+02  0.42667766940E+02  0.23166759665E+03  0.24038906198E+03  0.00000000000E+00 0. -1.
        -12    1    5    5    0    0  0.11894443905E+01 -0.13094525615E+02  0.53831384660E+00  0.13159451388E+02  0.00000000000E+00 0.  1.
          5    1    4    4  501    0  0.35045419588E+02  0.17374398469E+02 -0.64605434835E+02  0.75639842454E+02  0.41800000000E+01 0. -1.
         -5    1    4    4    0  501 -0.81147929037E+02 -0.55279227959E+02 -0.11647640735E+03  0.15239752393E+03  0.41800000000E+01 0. -1.
</event>
<event>
11    1  0.6625361E-009  0.1305516E+03  0.7561462E-02  0.1118593E+00
         22   -1    0    0    0    0  0.00000000000E+00  0.00000000000E+00  0.99570136307E+03  0.99570136307E+03  0.00000000000E+00 0. -1.
         22   -1    0    0    0    0 -0.00000000000E+00 -0.00000000000E+00 -0.25972477114E+03  0.25972477114E+03  0.00000000000E+00 0.  1.
         24    2    1    2    0    0  0.14967909753E+02 -0.32686690189E+02 -0.14515857314E+03  0.16975230739E+03  0.80326685914E+02 0.  0.
         25    2    1    2    0    0 -0.46344108654E+02  0.22262769226E+02 -0.54754810710E+02  0.14590621473E+03  0.12508847629E+03 0.  0.
        -24    2    1    2    0    0  0.31376198901E+02  0.10423920963E+02  0.93588997578E+03  0.93976761210E+03  0.78612937856E+02 0.  0.
        -13    1    3    3    0    0 -0.65448062691E+01 -0.48391701913E+02 -0.46027622884E+02  0.67105390033E+02  0.00000000000E+00 0.  1.
         14    1    3    3    0    0  0.21512716022E+02  0.15705011725E+02 -0.99130950256E+02  0.10264691736E+03  0.00000000000E+00 0. -1.
         11    1    5    5    0    0  0.38024261381E+02 -0.22586205226E+02  0.71061328589E+03  0.71198821845E+03  0.00000000000E+00 0. -1.
        -12    1    5    5    0    0 -0.66480624798E+01  0.33010126189E+02  0.22527668988E+03  0.22777939365E+03  0.00000000000E+00 0.  1.
          5    1    4    4  501    0  0.20922029315E+01 -0.47441696027E+02 -0.33618837205E+02  0.58333441953E+02  0.41800000000E+01 0. -1.
         -5    1    4    4    0  501 -0.48436311586E+02  0.69704465253E+02 -0.21135973505E+02  0.87572772779E+02  0.41800000000E+01 0. -1.
</event>
<event>
11    1  0.6625361E-009  0.1405927E+03  0.7561462E-02  0.1106898E+00
         22   -1    0    0    0    0  0.00000000000E+00  0.00000000000E+00  0.31094465274E+03  0.31094465274E+03  0.00000000000E+00 0. -1.
         22   -1    0    0    0    0 -0.00000000000E+00 -0.00000000000E+00 -0.78370469035E+03  0.78370469035E+03  0.00000000000E+00 0. -1.
         24    2    1    2    0    0  0.26478960276E+02 -0.49899235720E+02 -0.49618247384E+03  0.50556896429E+03  0.78815361772E+02 0.  0.
         25    2    1    2    0    0 -0.70131009029E+02  0.80893855411E+02 -0.24998307998E+03  0.29931882767E+03  0.12505217332E+03 0.  0.
        -24    2    1    2    0    0  0.43652048752E+02 -0.30994619691E+02  0.27340551621E+03  0.28976155112E+03  0.79655586158E+02 0.  0.
        -13    1    3    3    0    0 -0.96154534115E+00 -0.22238298018E+02 -0.28007587101E+02  0.35775569924E+02  0.00000000000E+00 0.  1.
         14    1    3    3    0    0  0.27440505617E+02 -0.27660937702E+02 -0.46817488674E+03  0.46979339437E+03  0.00000000000E+00 0. -1.
         13    1    5    5    0    0  0.39077315284E+02  0.17105365873E+02  0.17513705208E+03  0.18025708619E+03  0.00000000000E+00 0. -1.
        -14    1    5    5    0    0  0.45747334683E+01 -0.48099985564E+02  0.98268464124E+02  0.10950446493E+03  0.00000000000E+00 0.  1.
          5    1    4    4  501    0  0.13289981333E+02  0.79061553518E+02 -0.10782666336E+03  0.13442996162E+03  0.41800000000E+01 0. -1.
         -5    1    4    4    0  501 -0.83420990361E+02  0.18323018927E+01 -0.14215641662E+03  0.16488886606E+03  0.41800000000E+01 0. -1.
</event>
<event>
11    1  0.6625361E-009  0.1442935E+03  0.7561462E-02  0.1102857E+00
         22   -1    0    0    0    0  0.00000000000E+00  0.00000000000E+00  0.15409415782E+04  0.15409415782E+04  0.00000000000E+00 0.  1.
         22   -1    0    0    0    0 -0.00000000000E+00 -0.00000000000E+00 -0.94579422523E+03  0.94579422523E+03  0.00000000000E+00 0.  1.
        -24    2    1    2    0    0 -0.26103273002E+02 -0.42439742279E-01 -0.79990934364E+03  0.80520640284E+03  0.88436476976E+02 0.  0.
         25    2    1    2    0    0 -0.32777300296E+02  0.41844814104E+02 -0.10865297022E+03  0.17400525038E+03  0.12508804636E+03 0.  0.
         24    2    1    2    0    0  0.58880573298E+02 -0.41802374362E+02  0.15037096668E+04  0.15075241502E+04  0.79195586568E+02 0.  0.
        -11    1    5    5    0    0  0.70386134413E+02 -0.78346183023E+01  0.10640200662E+04  0.10663743669E+04  0.00000000000E+00 0.  1.
         12    1    5    5    0    0 -0.11505561115E+02 -0.33967756059E+02  0.43968960067E+03  0.44114978332E+03  0.00000000000E+00 0. -1.
         13    1    3    3    0    0  0.27380665697E+02  0.90375013544E+01 -0.46848932042E+03  0.46937577764E+03  0.00000000000E+00 0. -1.
        -14    1    3    3    0    0 -0.53483938699E+02 -0.90799410967E+01 -0.33142002322E+03  0.33583062520E+03  0.00000000000E+00 0.  1.
          5    1    4    4  501    0 -0.43397831977E+02  0.19125782582E+02 -0.13148144102E+03  0.13983565036E+03  0.41800000000E+01 0.  1.
         -5    1    4    4    0  501  0.10620531681E+02  0.22719031521E+02  0.22828470801E+02  0.34169600021E+02  0.41800000000E+01 0.  1.
</event>
<event>
11    1  0.6625361E-009  0.1595943E+03  0.7561462E-02  0.1087460E+00
         22   -1    0    0    0    0  0.00000000000E+00  0.00000000000E+00  0.39489937668E+03  0.39489937668E+03  0.00000000000E+00 0. -1.
         22   -1    0    0    0    0 -0.00000000000E+00 -0.00000000000E+00 -0.65086583497E+03  0.65086583497E+03  0.00000000000E+00 0. -1.
         24    2    1    2    0    0 -0.11067028510E+03  0.15679274683E+02 -0.52451105011E+03  0.53962254685E+03  0.59890731527E+02 0.  0.
         25    2    1    2    0    0  0.30660827604E+02 -0.22515211340E+02 -0.70690010842E+02  0.14863280288E+03  0.12509041277E+03 0.  0.
        -24    2    1    2    0    0  0.80009457495E+02  0.68359366568E+01  0.33923460266E+03  0.35750986193E+03  0.79277628697E+02 0.  0.
        -13    1    3    3    0    0 -0.44587069179E+02 -0.20168370032E-01 -0.97093340261E+02  0.10684158305E+03  0.00000000000E+00 0.  1.
         14    1    3    3    0    0 -0.66083215920E+02  0.15699443053E+02 -0.42741770985E+03  0.43278096380E+03  0.00000000000E+00 0. -1.
         11    1    5    5    0    0  0.44236502885E+02 -0.31240023046E+02  0.23184865967E+03  0.23808949624E+03  0.00000000000E+00 0. -1.
        -12    1    5    5    0    0  0.35772954610E+02  0.38075959703E+02  0.10738594299E+03  0.11942036569E+03  0.00000000000E+00 0.  1.
          5    1    4    4  501    0  0.77000251302E+02 -0.24861438101E+02 -0.28819103933E+02  0.85995017045E+02  0.41800000000E+01 0. -1.
         -5    1    4    4    0  501 -0.46339423698E+02  0.23462267608E+01 -0.41870906909E+02  0.62637785833E+02  0.41800000000E+01 0. -1.
</event>
<event>
11    1  0.6625361E-009  0.2038184E+03  0.7561462E-02  0.1051856E+00
         22   -1    0    0    0    0  0.00000000000E+00  0.00000000000E+00  0.93562250834E+03  0.93562250834E+03  0.00000000000E+00 0. -1.
         22   -1    0    0    0    0 -0.00000000000E+00 -0.00000000000E+00 -0.16475383003E+03  0.16475383003E+03  0.00000000000E+00 0.  1.
         24    2    1    2    0    0 -0.38533802218E+02 -0.15603127760E+03 -0.61250250379E+02  0.18959905376E+03  0.79784675925E+02 0.  0.
         25    2    1    2    0    0  0.10536656495E+03  0.13838879711E+03  0.30445281928E+03  0.37227887794E+03  0.12508585699E+03 0.  0.
        -24    2    1    2    0    0 -0.66832762729E+02  0.17642480488E+02  0.52766610940E+03  0.53849840667E+03  0.82286910747E+02 0.  0.
        -11    1    3    3    0    0 -0.42638874182E+02 -0.11767477108E+03 -0.78072341934E+02  0.14751513792E+03  0.00000000000E+00 0.  1.
         12    1    3    3    0    0  0.41050719642E+01 -0.38356506519E+02  0.16822091555E+02  0.42083915841E+02  0.00000000000E+00 0. -1.
         13    1    5    5    0    0 -0.33723492147E+02  0.48296830017E+02  0.22957322598E+03  0.23700996561E+03  0.00000000000E+00 0. -1.
        -14    1    5    5    0    0 -0.33109270582E+02 -0.30654349530E+02  0.29809288342E+03  0.30148844106E+03  0.00000000000E+00 0.  1.
          5    1    4    4  501    0  0.82163948793E+01  0.94540615046E+02  0.81651635464E+02  0.12525932705E+03  0.41800000000E+01 0. -1.
         -5    1    4    4    0  501  0.97150170067E+02  0.43848182065E+02  0.22280118382E+03  0.24701955090E+03  0.41800000000E+01 0. -1.
</event>
<event>
11    1  0.6625361E-009  0.3400903E+03  0.7561462E-02  0.9845204E-01
         22   -1    0    0    0    0  0.00000000000E+00  0.00000000000E+00  0.51580036914E+03  0.51580036914E+03  0.00000000000E+00 0.  1.
         22   -1    0    0    0    0 -0.00000000000E+00 -0.00000000000E+00 -0.41042763153E+03  0.41042763153E+03  0.00000000000E+00 0. -1.
         24    2    1    2    0    0 -0.15954740993E+03 -0.12683191826E+02 -0.25325426642E+03  0.31072991025E+03  0.82456741945E+02 0.  0.
         25    2    1    2    0    0  0.13057445277E+02  0.64101224488E+02 -0.66384793128E+02  0.15599325749E+03  0.12508993471E+03 0.  0.
        -24    2    1    2    0    0  0.14648996465E+03 -0.51418032662E+02  0.42501179715E+03  0.45950483293E+03  0.80040864173E+02 0.  0.
        -13    1    3    3    0    0 -0.12691572663E+03  0.25329177765E+02 -0.19291038651E+03  0.23230063740E+03  0.00000000000E+00 0.  1.
         14    1    3    3    0    0 -0.32631683291E+02 -0.38012369591E+02 -0.60343879911E+02  0.78429272845E+02  0.00000000000E+00 0. -1.
         11    1    5    5    0    0 -0.20935244686E+01 -0.22045754901E+02  0.73181891620E+02  0.76459057115E+02  0.00000000000E+00 0. -1.
        -12    1    5    5    0    0  0.14858348912E+03 -0.29372277760E+02  0.35182990554E+03  0.38304577581E+03  0.00000000000E+00 0.  1.
          5    1    4    4  501    0 -0.22595562712E+02  0.74981425982E+02 -0.83682968853E+02  0.11468690149E+03  0.41800000000E+01 0.  1.
         -5    1    4    4    0  501  0.35653007989E+02 -0.10880201494E+02  0.17298175725E+02  0.41306356008E+02  0.41800000000E+01 0.  1.
</event>
<event>
11    1  0.6625361E-009  0.1369946E+03  0.7561462E-02  0.1110962E+00
         22   -1    0    0    0    0  0.00000000000E+00  0.00000000000E+00  0.14781735212E+04  0.14781735212E+04  0.00000000000E+00 0. -1.
         22   -1    0    0    0    0 -0.00000000000E+00 -0.00000000000E+00 -0.60889990948E+03  0.60889990948E+03  0.00000000000E+00 0. -1.
        -24    2    1    2    0    0 -0.25697108823E+01 -0.55983762381E+02 -0.59575541784E+03  0.60378583344E+03  0.80573132694E+02 0.  0.
         25    2    1    2    0    0  0.40323694715E+02  0.17985553213E+02  0.75169697130E+03  0.76331243996E+03  0.12509222142E+03 0.  0.
         24    2    1    2    0    0 -0.37753983833E+02  0.37998209167E+02  0.71333205823E+03  0.71997515724E+03  0.81562090140E+02 0.  0.
        -11    1    5    5    0    0  0.11018554294E+02 -0.13206635628E+02  0.49819706886E+02  0.52705094227E+02  0.00000000000E+00 0.  1.
         12    1    5    5    0    0 -0.48772538126E+02  0.51204844795E+02  0.66351235134E+03  0.66727006301E+03  0.00000000000E+00 0. -1.
         13    1    3    3    0    0  0.20705154661E+02 -0.31204210341E+02 -0.51236753870E+03  0.51373427070E+03  0.00000000000E+00 0. -1.
        -14    1    3    3    0    0 -0.23274865544E+02 -0.24779552040E+02 -0.83387879142E+02  0.90051562747E+02  0.00000000000E+00 0.  1.
          5    1    4    4  501    0  0.94880417575E+01 -0.51749709370E+02  0.39667618049E+03  0.40017186299E+03  0.41800000000E+01 0. -1.
         -5    1    4    4    0  501  0.30835652957E+02  0.69735262584E+02  0.35502079081E+03  0.36314057698E+03  0.41800000000E+01 0. -1.
</event>
<event>
11    1  0.6625361E-009  0.1670448E+03  0.7561462E-02  0.1080632E+00
         22   -1    0    0    0    0  0.00000000000E+00  0.00000000000E+00  0.40926077730E+03  0.40926077730E+03  0.00000000000E+00 0. -1.
         22   -1    0    0    0    0 -0.00000000000E+00 -0.00000000000E+00 -0.33585497573E+03  0.33585497573E+03  0.00000000000E+00 0.  1.
        -24    2    1    2    0    0  0.27282016823E+02  0.10491098294E+03 -0.23450695294E+03  0.27080688284E+03  0.81192573779E+02 0.  0.
         25    2    1    2    0    0  0.14450021725E+02 -0.13125250856E+03  0.36549292487E+02  0.18552778935E+03  0.12509470696E+03 0.  0.
         24    2    1    2    0    0 -0.41732038547E+02  0.26341525624E+02  0.27136346202E+03  0.28878108084E+03  0.85562521670E+02 0.  0.
        -13    1    5    5    0    0 -0.43926394114E+02  0.10678100294E+02  0.52224361198E+02  0.69071946753E+02  0.00000000000E+00 0.  1.
         14    1    5    5    0    0  0.21943555666E+01  0.15663425331E+02  0.21913910082E+03  0.21970913408E+03  0.00000000000E+00 0. -1.
         11    1    3    3    0    0 -0.95691059043E+01 -0.99851882448E+01 -0.15597779124E+02  0.20846162374E+02  0.00000000000E+00 0. -1.
        -12    1    3    3    0    0  0.36851122727E+02  0.11489617118E+03 -0.21890917381E+03  0.24996072047E+03  0.00000000000E+00 0.  1.
          5    1    4    4  501    0  0.56054666561E+02 -0.14753161586E+02  0.11291924859E+02  0.59201025220E+02  0.41800000000E+01 0. -1.
         -5    1    4    4    0  501 -0.41604644836E+02 -0.11649934697E+03  0.25257367628E+02  0.12632676413E+03  0.41800000000E+01 0. -1.
</event>
<event>
11    1  0.6625361E-009  0.1373838E+03  0.7561462E-02  0.1110516E+00
         22   -1    0    0    0    0  0.00000000000E+00  0.00000000000E+00  0.57381281479E+03  0.57381281479E+03  0.00000000000E+00 0.  1.
         22   -1    0    0    0    0 -0.00000000000E+00 -0.00000000000E+00 -0.72947414991E+03  0.72947414991E+03  0.00000000000E+00 0. -1.
        -24    2    1    2    0    0 -0.33424198018E+02 -0.35773935725E+02 -0.69583669367E+03  0.70221054991E+03  0.80709359216E+02 0.  0.
         25    2    1    2    0    0 -0.28682087325E+02  0.60364187834E+01  0.16308018805E+03  0.20760982439E+03  0.12509033122E+03 0.  0.
         24    2    1    2    0    0  0.62106285342E+02  0.29737516942E+02  0.37709517050E+03  0.39346659041E+03  0.88733756588E+02 0.  0.
        -13    1    5    5    0    0 -0.75293455524E+01 -0.19545888430E+02  0.13857150180E+03  0.14014561681E+03  0.00000000000E+00 0.  1.
         14    1    5    5    0    0  0.69635630895E+02  0.49283405372E+02  0.23852366870E+03  0.25332097360E+03  0.00000000000E+00 0. -1.
         13    1    3    3    0    0 -0.10365581050E+02 -0.49861500370E+02 -0.61225539282E+03  0.61436982390E+03  0.00000000000E+00 0. -1.
        -14    1    3    3    0    0 -0.23058616968E+02  0.14087564645E+02 -0.83581300852E+02  0.87840726011E+02  0.00000000000E+00 0.  1.
          5    1    4    4  501    0 -0.31480570708E+02  0.62127296978E+02  0.70105923799E+02  0.98909758435E+02  0.41800000000E+01 0. -1.
         -5    1    4    4    0  501  0.27984833832E+01 -0.56090878195E+02  0.92974264249E+02  0.10870006596E+03  0.41800000000E+01 0. -1.
</event>
<event>
11    1  0.6625361E-009  0.1640851E+03  0.7561462E-02  0.1083297E+00
         22   -1    0    0    0    0  0.00000000000E+00  0.00000000000E+00  0.10375960933E+04  0.10375960933E+04  0.00000000000E+00 0.  1.
         22   -1    0    0    0    0 -0.00000000000E+00 -0.00000000000E+00 -0.15018136599E+04  0.15018136599E+04  0.00000000000E+00 0.  1.
         24    2    1    2    0    0  0.55726614724E+01  0.28980560108E+02 -0.14615130920E+04  0.14640291608E+04  0.80560151914E+02 0.  0.
         25    2    1    2    0    0 -0.11027527721E+03 -0.37549706195E+02  0.18258652858E+03  0.25011073385E+03  0.12508765554E+03 0.  0.
        -24    2    1    2    0    0  0.10470261574E+03  0.85691460868E+01  0.81470899678E+03  0.82526985854E+03  0.79268669546E+02 0.  0.
        -11    1    3    3    0    0 -0.21756338985E+02  0.12150578054E+02 -0.12352184224E+04  0.12354697592E+04  0.00000000000E+00 0.  1.
         12    1    3    3    0    0  0.27329000457E+02  0.16829982053E+02 -0.22629466965E+03  0.22855940163E+03  0.00000000000E+00 0. -1.
         13    1    5    5    0    0  0.45262192230E+01 -0.25318651192E+02  0.14526897220E+03  0.14752828557E+03  0.00000000000E+00 0. -1.
        -14    1    5    5    0    0  0.10017639652E+03  0.33887797279E+02  0.66944002458E+03  0.67774157297E+03  0.00000000000E+00 0.  1.
          5    1    4    4  501    0 -0.46537376034E+02 -0.53068768048E+02  0.16871169396E+03  0.18292930217E+03  0.41800000000E+01 0.  1.
         -5    1    4    4    0  501 -0.63737901179E+02  0.15519061854E+02  0.13874834612E+02  0.67181431683E+02  0.41800000000E+01 0.  1.
</event>
<event>
11    1  0.6625361E-009  0.1414865E+03  0.7561462E-02  0.1105910E+00
         22   -1    0    0    0    0  0.00000000000E+00  0.00000000000E+00  0.24838607786E+04  0.24838607786E+04  0.00000000000E+00 0.  1.
         22   -1    0    0    0    0 -0.00000000000E+00 -0.00000000000E+00 -0.10203923883E+03  0.10203923883E+03  0.00000000000E+00 0.  1.
        -24    2    1    2    0    0 -0.16257937729E+02  0.53410102985E+02 -0.69357181824E+02  0.11826268512E+03  0.77837551235E+02 0.  0.
         25    2    1    2    0    0 -0.39458008991E+01  0.21173502967E+02  0.60518026315E+03  0.61834802798E+03  0.12508895327E+03 0.  0.
         24    2    1    2    0    0  0.20203738628E+02 -0.74583605952E+02  0.18459984584E+04  0.18492893043E+04  0.78674755668E+02 0.  0.
        -11    1    5    5    0    0 -0.56320315762E+01 -0.73086565979E+02  0.91511994616E+03  0.91805113244E+03  0.00000000000E+00 0.  1.
         12    1    5    5    0    0  0.25835770204E+02 -0.14970399726E+01  0.93087851229E+03  0.93123817189E+03  0.00000000000E+00 0. -1.
         13    1    3    3    0    0 -0.10997451113E+02  0.18165130714E+02  0.15458086775E+02  0.26265345069E+02  0.00000000000E+00 0. -1.
        -14    1    3    3    0    0 -0.52604866155E+01  0.35244972271E+02 -0.84815268599E+02  0.91997340056E+02  0.00000000000E+00 0.  1.
          5    1    4    4  501    0  0.42012882425E+02 -0.34324310210E+02  0.23798951190E+03  0.24413054036E+03  0.41800000000E+01 0. -1.
         -5    1    4    4    0  501 -0.45958683324E+02  0.55497813176E+02  0.36719075125E+03  0.37421748762E+03  0.41800000000E+01 0. -1.
</event>
<event>
11    1  0.6625361E-009  0.2042098E+03  0.7561462E-02  0.1051586E+00
         22   -1    0    0    0    0  0.00000000000E+00  0.00000000000E+00  0.12585214377E+04  0.12585214377E+04  0.00000000000E+00 0.  1.
         22   -1    0    0    0    0 -0.00000000000E+00 -0.00000000000E+00 -0.24272807177E+03  0.24272807177E+03  0.00000000000E+00 0.  1.
         24    2    1    2    0    0 -0.15373050533E+03 -0.49022378697E+02 -0.14856007315E+03  0.23346936783E+03  0.80009927498E+02 0.  0.
         25    2    1    2    0    0  0.13371397990E+03  0.10711145536E+03  0.18026899750E+03  0.27837775485E+03  0.12507985709E+03 0.  0.
        -24    2    1    2    0    0  0.20016525437E+02 -0.58089076659E+02  0.98408444160E+03  0.98940238681E+03  0.81974951635E+02 0.  0.
        -13    1    3    3    0    0 -0.98020406027E+02 -0.36864808636E+01 -0.12279303703E+03  0.15716144591E+03  0.00000000000E+00 0.  1.
         14    1    3    3    0    0 -0.55710099305E+02 -0.45335897833E+02 -0.25767036122E+02  0.76307921918E+02  0.00000000000E+00 0. -1.
         13    1    5    5    0    0  0.51066359201E+02 -0.25236192944E+02  0.58459466101E+03  0.58736322337E+03  0.00000000000E+00 0. -1.
        -14    1    5    5    0    0 -0.31049833764E+02 -0.32852883715E+02  0.39948978059E+03  0.40203916344E+03  0.00000000000E+00 0.  1.
          5    1    4    4  501    0  0.29013628743E+02 -0.14422740800E+02 -0.52486217926E+01  0.33088163076E+02  0.41800000000E+01 0. -1.
         -5    1    4    4    0  501  0.10470035115E+03  0.12153419616E+03  0.18551761929E+03  0.24528959178E+03  0.41800000000E+01 0. -1.
</event>
<event>
11    1  0.6625361E-009  0.1840576E+03  0.7561462E-02  0.1066407E+00
         22   -1    0    0    0    0  0.00000000000E+00  0.00000000000E+00  0.67395332012E+02  0.67395332012E+02  0.00000000000E+00 0.  1.
         22   -1    0    0    0    0 -0.00000000000E+00 -0.00000000000E+00 -0.22029081223E+04  0.22029081223E+04  0.00000000000E+00 0. -1.
        -24    2    1    2    0    0  0.10282495603E+03  0.82916434172E+02 -0.18019307464E+04  0.18085340288E+04  0.79955060471E+02 0.  0.
         25    2    1    2    0    0 -0.15921136117E+03 -0.68163190757E+02 -0.27543305370E+03  0.34857720920E+03  0.12509286791E+03 0.  0.
         24    2    1    2    0    0  0.56386405145E+02 -0.14753243416E+02 -0.58148990113E+02  0.11319221629E+03  0.77679391734E+02 0.  0.
        -13    1    5    5    0    0  0.52577882841E+02  0.23670728813E+02 -0.27438167764E+02  0.63856011595E+02  0.00000000000E+00 0.  1.
         14    1    5    5    0    0  0.38085223040E+01 -0.38423972229E+02 -0.30710822349E+02  0.49336204691E+02  0.00000000000E+00 0. -1.
         13    1    3    3    0    0  0.91027814737E+02  0.98578271574E+02 -0.16210478799E+04  0.16265915184E+04  0.00000000000E+00 0. -1.
        -14    1    3    3    0    0  0.11797141290E+02 -0.15661837402E+02 -0.18088286652E+03  0.18194251041E+03  0.00000000000E+00 0.  1.
          5    1    4    4  501    0 -0.74581091039E+01 -0.58397215232E+02 -0.54487013678E+02  0.80325370823E+02  0.41800000000E+01 0.  1.
         -5    1    4    4    0  501 -0.15175325207E+03 -0.97659755246E+01 -0.22094604002E+03  0.26825183838E+03  0.41800000000E+01 0.  1.
</event>
<event>
11    1  0.6625361E-009  0.1438254E+03  0.7561462E-02  0.1103360E+00
         22   -1    0    0    0    0  0.00000000000E+00  0.00000000000E+00  0.60018469642E+03  0.60018469642E+03  0.00000000000E+00 0.  1.
         22   -1    0    0    0    0 -0.00000000000E+00 -0.00000000000E+00 -0.12815777435E+04  0.12815777435E+04  0.00000000000E+00 0.  1.
        -24    2    1    2    0    0 -0.10932735305E+02 -0.70466589859E+02 -0.11225415165E+04  0.11277638415E+04  0.81650235322E+02 0.  0.
         25    2    1    2    0    0 -0.27082337706E+02  0.71003369757E+02 -0.11787747962E+03  0.18792599211E+03  0.12508455849E+03 0.  0.
         24    2    1    2    0    0  0.38015073011E+02 -0.53677989862E+00  0.55902594901E+03  0.56607260636E+03  0.80515527094E+02 0.  0.
        -11    1    5    5    0    0  0.55069605939E+02 -0.34576398943E+01  0.52507983028E+03  0.52797106449E+03  0.00000000000E+00 0.  1.
         12    1    5    5    0    0 -0.17054532928E+02  0.29208599957E+01  0.33946118728E+02  0.38101541874E+02  0.00000000000E+00 0. -1.
         13    1    3    3    0    0 -0.18813221924E+02  0.30530452179E+01 -0.67634292260E+02  0.70268455894E+02  0.00000000000E+00 0. -1.
        -14    1    3    3    0    0  0.78804866191E+01 -0.73519635076E+02 -0.10549072242E+04  0.10574953856E+04  0.00000000000E+00 0.  1.
          5    1    4    4  501    0 -0.28869417981E+02 -0.19355616624E+02  0.49692434452E+01  0.35358859850E+02  0.41800000000E+01 0.  1.
         -5    1    4    4    0  501  0.17870802756E+01  0.90358986381E+02 -0.12284672307E+03  0.15256713226E+03  0.41800000000E+01 0.  1.
</event>
<event>
11    1  0.6625361E-009  0.1325977E+03  0.7561462E-02  0.1116118E+00
         22   -1    0    0    0    0  0.00000000000E+00  0.00000000000E+00  0.95388837642E+02  0.95388837642E+02  0.00000000000E+00 0.  1.
         22   -1    0    0    0    0 -0.00000000000E+00 -0.00000000000E+00 -0.51930448737E+03  0.51930448737E+03  0.00000000000E+00 0.  1.
         24    2    1    2    0    0 -0.43505533384E+02 -0.92418960568E+01 -0.38633214845E+03  0.39648301843E+03  0.77253549397E+02 0.  0.
         25    2    1    2    0    0  0.37036642549E+02  0.85646344375E+01 -0.90348537779E+01  0.13105201736E+03  0.12509171362E+03 0.  0.
        -24    2    1    2    0    0  0.64688908352E+01  0.67726161928E+00 -0.28548647498E+02  0.87158289226E+02  0.82092855200E+02 0.  0.
        -13    1    3    3    0    0 -0.33096188776E+02 -0.49643705346E+01 -0.38339395463E+03  0.38485182491E+03  0.00000000000E+00 0.  1.
         14    1    3    3    0    0 -0.10409344608E+02 -0.42775255222E+01 -0.29381938224E+01  0.11631193520E+02  0.00000000000E+00 0. -1.
         11    1    5    5    0    0 -0.70588373927E+01  0.81735912129E+01 -0.55253048669E+02  0.56298616021E+02  0.00000000000E+00 0. -1.
        -12    1    5    5    0    0  0.13527728228E+02 -0.74963295936E+01  0.26704401171E+02  0.30859673205E+02  0.00000000000E+00 0.  1.
          5    1    4    4  501    0  0.71548006140E+02 -0.30769170267E+02 -0.93706909628E+01  0.78556611884E+02  0.41800000000E+01 0. -1.
         -5    1    4    4    0  501 -0.34511363591E+02  0.39333804705E+02  0.33583718493E+00  0.52495405476E+02  0.41800000000E+01 0. -1.
</event>
<event>
11    1  0.6625361E-009  0.1630015E+03  0.7561462E-02  0.1084288E+00
         22   -1    0    0    0    0  0.00000000000E+00  0.00000000000E+00  0.15991864984E+04  0.15991864984E+04  0.00000000000E+00 0.  1.
         22   -1    0    0    0    0 -0.00000000000E+00 -0.00000000000E+00 -0.54478757300E+03  0.54478757300E+03  0.00000000000E+00 0. -1.
         24    2    1    2    0    0  0.62796169863E+02  0.86209266397E+02 -0.48936667276E+03  0.50841626717E+03  0.87361111217E+02 0.  0.
         25    2    1    2    0    0 -0.32850064924E+02 -0.71210598061E+02  0.77559388395E+02  0.16677178340E+03  0.12508914009E+03 0.  0.
        -24    2    1    2    0    0 -0.29946104939E+02 -0.14998668336E+02  0.14662062098E+04  0.14687860209E+04  0.80311868219E+02 0.  0.
        -11    1    3    3    0    0  0.71728352393E+02  0.95960318397E+02 -0.46954578696E+03  0.48458908912E+03  0.00000000000E+00 0.  1.
         12    1    3    3    0    0 -0.89321825306E+01 -0.97510520001E+01 -0.19820885801E+02  0.23827178050E+02  0.00000000000E+00 0. -1.
         13    1    5    5    0    0 -0.24182319179E+02 -0.10209240061E+02  0.13335958624E+03  0.13591832984E+03  0.00000000000E+00 0. -1.
        -14    1    5    5    0    0 -0.57637857596E+01 -0.47894282756E+01  0.13328466236E+04  0.13328676910E+04  0.00000000000E+00 0.  1.
          5    1    4    4  501    0 -0.35348961119E+02 -0.85826289909E+02  0.54929505460E+01  0.93077097062E+02  0.41800000000E+01 0. -1.
         -5    1    4    4    0  501  0.24988961956E+01  0.14615691849E+02  0.72066437849E+02  0.73694686339E+02  0.41800000000E+01 0. -1.
</event>
<event>
11    1  0.6625361E-009  0.1380488E+03  0.7561462E-02  0.1109757E+00
         22   -1    0    0    0    0  0.00000000000E+00  0.00000000000E+00  0.45018808270E+02  0.45018808270E+02  0.00000000000E+00 0.  1.
         22   -1    0    0    0    0 -0.00000000000E+00 -0.00000000000E+00 -0.25250716167E+04  0.25250716167E+04  0.00000000000E+00 0. -1.
         24    2    1    2    0    0 -0.29513767185E+02  0.16510329001E+02 -0.12422217477E+04  0.12452738012E+04  0.80301406920E+02 0.  0.
         25    2    1    2    0    0  0.25676868785E+02 -0.73928090953E+02 -0.12033275165E+04  0.12123399747E+04  0.12508572311E+03 0.  0.
        -24    2    1    2    0    0  0.38368983995E+01  0.57417761951E+02 -0.34503544262E+02  0.11247664913E+03  0.90271705730E+02 0.  0.
        -11    1    3    3    0    0  0.22940231252E+01  0.38389724702E+02 -0.32964248878E+03  0.33187829684E+03  0.00000000000E+00 0.  1.
         12    1    3    3    0    0 -0.31807790310E+02 -0.21879395700E+02 -0.91257925895E+03  0.91339550433E+03  0.00000000000E+00 0. -1.
         11    1    5    5    0    0  0.49980844300E+01  0.83763676214E+01 -0.57483893213E+02  0.58305594598E+02  0.00000000000E+00 0. -1.
        -12    1    5    5    0    0 -0.11611860305E+01  0.49041394330E+02  0.22980348951E+02  0.54171054529E+02  0.00000000000E+00 0.  1.
          5    1    4    4  501    0 -0.28781705837E+02 -0.38442767995E+02 -0.16307862541E+03  0.17005394282E+03  0.41800000000E+01 0. -1.
         -5    1    4    4    0  501  0.54458574622E+02 -0.35485322957E+02 -0.10402488911E+04  0.10422860319E+04  0.41800000000E+01 0. -1.
</event>
<event>
11    1  0.6625361E-009  0.1338618E+03  0.7561462E-02  0.1114613E+00
         22   -1    0    0    0    0  0.00000000000E+00  0.00000000000E+00  0.17733198380E+04  0.17733198380E+04  0.00000000000E+00 0. -1.
         22   -1    0    0    0    0 -0.00000000000E+00 -0.00000000000E+00 -0.95898198988E+02  0.95898198988E+02  0.00000000000E+00 0. -1.
        -24    2    1    2    0    0  0.28758665288E+02 -0.13917006093E+01 -0.62175213846E+02  0.10572729245E+03  0.80520217912E+02 0.  0.
         25    2    1    2    0    0 -0.55134946637E+02 -0.35553674006E+02  0.47399522428E+03  0.49459366129E+03  0.12508993193E+03 0.  0.
         24    2    1    2    0    0  0.26376281349E+02  0.36945374616E+02  0.12656016286E+04  0.12688970833E+04  0.79319964013E+02 0.  0.
        -11    1    5    5    0    0 -0.49692964968E+01 -0.18643751056E+02  0.12201251047E+03  0.12352868522E+03  0.00000000000E+00 0.  1.
         12    1    5    5    0    0  0.31345577846E+02  0.55589125672E+02  0.11435891181E+04  0.11453683980E+04  0.00000000000E+00 0. -1.
         13    1    3    3    0    0  0.22951600950E+01  0.73847496543E+01 -0.74744958832E+02  0.75143936269E+02  0.00000000000E+00 0. -1.
        -14    1    3    3    0    0  0.26463505193E+02 -0.87764502636E+01  0.12569744986E+02  0.30583356182E+02  0.00000000000E+00 0.  1.
          5    1    4    4  501    0 -0.44168066322E+02  0.18809594689E+02  0.60359462357E+02  0.77235717327E+02  0.41800000000E+01 0. -1.
         -5    1    4    4    0  501 -0.10966880315E+02 -0.54363268695E+02  0.41363576192E+03  0.41735794396E+03  0.41800000000E+01 0. -1.
</event>
<event>
11    1  0.6625361E-009  0.1455701E+03  0.7561462E-02  0.1101493E+00
         22   -1    0    0    0    0  0.00000000000E+00  0.00000000000E+00  0.28426353229E+03  0.28426353229E+03  0.00000000000E+00 0. -1.
         22   -1    0    0    0    0 -0.00000000000E+00 -0.00000000000E+00 -0.71641950753E+03  0.71641950753E+03  0.00000000000E+00 0.  1.
         24    2    1    2    0    0  0.40048018719E+02  0.50123180245E+02 -0.57369241434E+03  0.58288728046E+03  0.80736723042E+02 0.  0.
         25    2    1    2    0    0 -0.10565220728E+03 -0.18323281814E+02 -0.71107671849E+02  0.17944921181E+03  0.12509031562E+03 0.  0.
        -24    2    1    2    0    0  0.65604188565E+02 -0.31799898431E+02  0.21264411095E+03  0.23834654755E+03  0.79223832972E+02 0.  0.
        -13    1    3    3    0    0  0.32371321629E+02  0.64550440928E+02 -0.54582696577E+03  0.55058308951E+03  0.00000000000E+00 0.  1.
         14    1    3    3    0    0  0.76766970891E+01 -0.14427260684E+02 -0.27865448565E+02  0.32304190947E+02  0.00000000000E+00 0. -1.
         11    1    5    5    0    0  0.25504604051E+02  0.16884870142E+01  0.16708216469E+03  0.16902599083E+03  0.00000000000E+00 0. -1.
        -12    1    5    5    0    0  0.40099584514E+02 -0.33488385445E+02  0.45561946252E+02  0.69320556721E+02  0.00000000000E+00 0.  1.
          5    1    4    4  501    0 -0.99411690447E+01  0.21734143386E+02 -0.71609708478E+02  0.75608349929E+02  0.41800000000E+01 0.  1.
         -5    1    4    4    0  501 -0.95711038239E+02 -0.40057425200E+02  0.50203662930E+00  0.10384086188E+03  0.41800000000E+01 0.  1.
</event>
<event>
11    1  0.6625361E-009  0.2664561E+03  0.7561462E-02  0.1015480E+00
         22   -1    0    0    0    0  0.00000000000E+00  0.00000000000E+00  0.68311858858E+03  0.68311858858E+03  0.00000000000E+00 0.  1.
         22   -1    0    0    0    0 -0.00000000000E+00 -0.00000000000E+00 -0.57116985111E+03  0.57116985111E+03  0.00000000000E+00 0. -1.
        -24    2    1    2    0    0 -0.21039740471E+03 -0.10166310737E+03 -0.39110207463E+03  0.46288137102E+03  0.81828329732E+02 0.  0.
         25    2    1    2    0    0  0.23919602090E+03  0.56768731828E+02 -0.34187918742E+01  0.27585920540E+03  0.12509671354E+03 0.  0.
         24    2    1    2    0    0 -0.28798616187E+02  0.44894375545E+02  0.50646960398E+03  0.51554786327E+03  0.80207694884E+02 0.  0.
        -11    1    5    5    0    0 -0.44279321566E+02  0.32384172956E+02  0.47601752222E+03  0.47916810666E+03  0.00000000000E+00 0.  1.
         12    1    5    5    0    0  0.15480705379E+02  0.12510202589E+02  0.30452081758E+02  0.36379756613E+02  0.00000000000E+00 0. -1.
         11    1    3    3    0    0 -0.18036155892E+03 -0.11575232197E+03 -0.33410837427E+03  0.39693487846E+03  0.00000000000E+00 0. -1.
        -12    1    3    3    0    0 -0.30035845790E+02  0.14089214602E+02 -0.56993700360E+02  0.65946492562E+02  0.00000000000E+00 0.  1.
          5    1    4    4  501    0  0.11563853844E+03 -0.32117699706E+02  0.20191312584E+02  0.12177429824E+03  0.41800000000E+01 0.  1.
         -5    1    4    4    0  501  0.12355748246E+03  0.88886431534E+02 -0.23610104458E+02  0.15408490716E+03  0.41800000000E+01 0.  1.
</event>
<event>
11    1  0.6625361E-009  0.2227591E+03  0.7561462E-02  0.1039503E+00
         22   -1    0    0    0    0  0.00000000000E+00  0.00000000000E+00  0.32248280188E+03  0.32248280188E+03  0.00000000000E+00 0.  1.
         22   -1    0    0    0    0 -0.00000000000E+00 -0.00000000000E+00 -0.16163388562E+04  0.16163388562E+04  0.00000000000E+00 0.  1.
        -24    2    1    2    0    0 -0.12758106938E+03  0.14929954641E+03 -0.14353947845E+04  0.14509742891E+04  0.80005728064E+02 0.  0.
         25    2    1    2    0    0  0.12231973736E+03 -0.30347752414E+02 -0.10134779014E+03  0.20445794560E+03  0.12509425537E+03 0.  0.
         24    2    1    2    0    0  0.52613320206E+01 -0.11895179399E+03  0.24288652025E+03  0.28338942342E+03  0.84489601009E+02 0.  0.
        -13    1    5    5    0    0 -0.45780039691E+00  0.36616773861E+01  0.76689041246E+02  0.76777773540E+02  0.00000000000E+00 0.  1.
         14    1    5    5    0    0  0.57191324175E+01 -0.12261347138E+03  0.16619747901E+03  0.20661164988E+03  0.00000000000E+00 0. -1.
         13    1    3    3    0    0 -0.57395883015E+01  0.66197064895E+01 -0.10046837146E+02  0.13330503536E+02  0.00000000000E+00 0. -1.
        -14    1    3    3    0    0 -0.12184148108E+03  0.14267983992E+03 -0.14253479473E+04  0.14376437856E+04  0.00000000000E+00 0.  1.
          5    1    4    4  501    0  0.40199860715E+02 -0.69370214215E+01  0.27824112026E+02  0.49556076093E+02  0.41800000000E+01 0.  1.
         -5    1    4    4    0  501  0.82119876649E+02 -0.23410730992E+02 -0.12917190217E+03  0.15490186951E+03  0.41800000000E+01 0.  1.
</event>
<event>
11    1  0.6625361E-009  0.2121468E+03  0.7561462E-02  0.1046252E+00
         22   -1    0    0    0    0  0.00000000000E+00  0.00000000000E+00  0.17250927139E+04  0.17250927139E+04  0.00000000000E+00 0.  1.
         22   -1    0    0    0    0 -0.00000000000E+00 -0.00000000000E+00 -0.11274652674E+03  0.11274652674E+03  0.00000000000E+00 0.  1.
         24    2    1    2    0    0 -0.61180793683E+02  0.42595156542E+02 -0.45202353615E+02  0.11818356455E+03  0.79791386007E+02 0.  0.
         25    2    1    2    0    0  0.21501695578E+03 -0.39139164207E+01  0.63944958678E+03  0.68614252554E+03  0.12509269086E+03 0.  0.
        -24    2    1    2    0    0 -0.15383616210E+03 -0.38681240121E+02  0.10180989540E+04  0.10335131505E+04  0.80387493567E+02 0.  0.
        -11    1    3    3    0    0  0.37762779266E+01 -0.17278581583E+02 -0.19177569543E+02  0.26088097478E+02  0.00000000000E+00 0.  1.
         12    1    3    3    0    0 -0.64957071610E+02  0.59873738124E+02 -0.26024784072E+02  0.92095467071E+02  0.00000000000E+00 0. -1.
         13    1    5    5    0    0 -0.34507663716E+02 -0.68443559316E+01  0.80985663120E+02  0.88296668648E+02  0.00000000000E+00 0. -1.
        -14    1    5    5    0    0 -0.11932849838E+03 -0.31836884189E+02  0.93711329084E+03  0.94521648187E+03  0.00000000000E+00 0.  1.
          5    1    4    4  501    0  0.54798828480E+02 -0.53169222080E+02  0.26613313562E+03  0.27690105824E+03  0.41800000000E+01 0.  1.
         -5    1    4    4    0  501  0.16021812730E+03  0.49255305659E+02  0.37331645117E+03  0.40924146731E+03  0.41800000000E+01 0.  1.
</event>
<event>
11    1  0.6625361E-009  0.1439013E+03  0.7561462E-02  0.1103279E+00
         22   -1    0    0    0    0  0.00000000000E+00  0.00000000000E+00  0.94756907873E+03  0.94756907873E+03  0.00000000000E+00 0.  1.
         22   -1    0    0    0    0 -0.00000000000E+00 -0.00000000000E+00 -0.13542716863E+03  0.13542716863E+03  0.00000000000E+00 0. -1.
         24    2    1    2    0    0  0.33273126335E+02 -0.50946120098E+02 -0.69109446301E+02  0.12129291904E+03  0.78950924958E+02 0.  0.
         25    2    1    2    0    0 -0.32817935954E+01 -0.19655467955E+02  0.73493071693E+02  0.14644554221E+03  0.12509179692E+03 0.  0.
        -24    2    1    2    0    0 -0.29991332740E+02  0.70601588054E+02  0.80775828470E+03  0.81525778612E+03  0.79295315378E+02 0.  0.
        -11    1    3    3    0    0 -0.79326731365E+01 -0.46932309785E+02 -0.92140736750E+01  0.48481627021E+02  0.00000000000E+00 0.  1.
         12    1    3    3    0    0  0.41205799472E+02 -0.40138103130E+01 -0.59895372626E+02  0.72811292018E+02  0.00000000000E+00 0. -1.
         11    1    5    5    0    0  0.75911356028E+01  0.28209946786E+01  0.68458176420E+01  0.10604177003E+02  0.00000000000E+00 0. -1.
        -12    1    5    5    0    0 -0.37582468343E+02  0.67780593375E+02  0.80091246706E+03  0.80465360911E+03  0.00000000000E+00 0.  1.
          5    1    4    4  501    0  0.44146934590E+02  0.32479951524E+02  0.41792273163E+02  0.69050456775E+02  0.41800000000E+01 0.  1.
         -5    1    4    4    0  501 -0.47428728185E+02 -0.52135419480E+02  0.31700798530E+02  0.77395085432E+02  0.41800000000E+01 0.  1.
</event>
<event>
11    1  0.6625361E-009  0.1387964E+03  0.7561462E-02  0.1108910E+00
         22   -1    0    0    0    0  0.00000000000E+00  0.00000000000E+00  0.10903881269E+04  0.10903881269E+04  0.00000000000E+00 0. -1.
         22   -1    0    0    0    0 -0.00000000000E+00 -0.00000000000E+00 -0.29617127662E+03  0.29617127662E+03  0.00000000000E+00 0. -1.
        -24    2    1    2    0    0  0.10343269215E+02  0.11616899487E+02 -0.24900656671E+03  0.26202724783E+03  0.80075419272E+02 0.  0.
         25    2    1    2    0    0 -0.35815696666E+02  0.43292892174E+02  0.85661432583E+02  0.16168811598E+03  0.12509247450E+03 0.  0.
         24    2    1    2    0    0  0.25472427451E+02 -0.54909791661E+02  0.95756198441E+03  0.96284403973E+03  0.80496963123E+02 0.  0.
        -11    1    5    5    0    0  0.11139070080E+02  0.13390127937E+02  0.57489730913E+02  0.60070321865E+02  0.00000000000E+00 0.  1.
         12    1    5    5    0    0  0.14333357371E+02 -0.68299919598E+02  0.90007225349E+03  0.90277371786E+03  0.00000000000E+00 0. -1.
         11    1    3    3    0    0 -0.25400971456E+02  0.51680350023E+01 -0.19638116624E+03  0.19808452840E+03  0.00000000000E+00 0. -1.
        -12    1    3    3    0    0  0.35744240671E+02  0.64488644851E+01 -0.52625400463E+02  0.63942719431E+02  0.00000000000E+00 0.  1.
          5    1    4    4  501    0 -0.79998493595E+02  0.21961887964E+02  0.73628998059E+02  0.11099903268E+03  0.41800000000E+01 0.  1.
         -5    1    4    4    0  501  0.44182796929E+02  0.21331004209E+02  0.12032434524E+02  0.50689083298E+02  0.41800000000E+01 0.  1.
</event>
<event>
11    1  0.6625361E-009  0.3103293E+03  0.7561462E-02  0.9959120E-01
         22   -1    0    0    0    0  0.00000000000E+00  0.00000000000E+00  0.68969453627E+03  0.68969453627E+03  0.00000000000E+00 0.  1.
         22   -1    0    0    0    0 -0.00000000000E+00 -0.00000000000E+00 -0.10271070963E+04  0.10271070963E+04  0.00000000000E+00 0. -1.
        -24    2    1    2    0    0  0.60242737325E+02 -0.75173734687E+01 -0.85745557260E+03  0.86635234869E+03  0.10793810628E+03 0.  0.
         25    2    1    2    0    0 -0.31275498752E+03  0.96218983540E+02  0.13661350250E+03  0.37601019609E+03  0.12508654398E+03 0.  0.
         24    2    1    2    0    0  0.25251225020E+03 -0.88701610071E+02  0.38342951007E+03  0.47443908779E+03  0.80273574173E+02 0.  0.
        -11    1    5    5    0    0  0.22038532528E+03 -0.94077403331E+02  0.29413298700E+03  0.37938695741E+03  0.00000000000E+00 0.  1.
         12    1    5    5    0    0  0.32126924916E+02  0.53757932602E+01  0.89296523070E+02  0.95052130382E+02  0.00000000000E+00 0. -1.
         11    1    3    3    0    0  0.32548653545E+02 -0.17928836540E+02 -0.80705030118E+03  0.80790534511E+03  0.00000000000E+00 0. -1.
        -12    1    3    3    0    0  0.27694083781E+02  0.10411463071E+02 -0.50405271417E+02  0.58447003571E+02  0.00000000000E+00 0.  1.
          5    1    4    4  501    0 -0.26944328911E+03  0.31293310722E+02  0.94824108515E+02  0.28738135169E+03  0.41800000000E+01 0. -1.
         -5    1    4    4    0  501 -0.43311698413E+02  0.64925672818E+02  0.41789393986E+02  0.88628844402E+02  0.41800000000E+01 0. -1.
</event>
<event>
11    1  0.6625361E-009  0.1347078E+03  0.7561462E-02  0.1113616E+00
         22   -1    0    0    0    0  0.00000000000E+00  0.00000000000E+00  0.44913076741E+03  0.44913076741E+03  0.00000000000E+00 0.  1.
         22   -1    0    0    0    0 -0.00000000000E+00 -0.00000000000E+00 -0.15889883250E+04  0.15889883250E+04  0.00000000000E+00 0. -1.
         24    2    1    2    0    0  0.18602127140E+02  0.48051516272E+02 -0.14550705069E+04  0.14582749664E+04  0.81735611156E+02 0.  0.
         25    2    1    2    0    0 -0.13353281801E+02 -0.15912885306E+02 -0.96299220290E+02  0.15922595799E+03  0.12509130992E+03 0.  0.
        -24    2    1    2    0    0 -0.52488453389E+01 -0.32138630965E+02  0.41151216959E+03  0.42061816806E+03  0.80727539317E+02 0.  0.
        -13    1    3    3    0    0  0.98578963245E+01 -0.20385721562E+02 -0.59935287226E+03  0.59978047755E+03  0.00000000000E+00 0.  1.
         14    1    3    3    0    0  0.87442308152E+01  0.68437237834E+02 -0.85571763467E+03  0.85849448885E+03  0.00000000000E+00 0. -1.
         11    1    5    5    0    0  0.27647274685E+01 -0.96004652015E+01  0.17310560758E+01  0.10139487423E+02  0.00000000000E+00 0. -1.
        -12    1    5    5    0    0 -0.80135728074E+01 -0.22538165764E+02  0.40978111351E+03  0.41047868064E+03  0.00000000000E+00 0.  1.
          5    1    4    4  501    0  0.52738494025E+02 -0.13539007081E+02 -0.67888066079E+02  0.87125859426E+02  0.41800000000E+01 0. -1.
         -5    1    4    4    0  501 -0.66091775826E+02 -0.23738782250E+01 -0.28411154211E+02  0.72100098566E+02  0.41800000000E+01 0. -1.
</event>
<event>
11    1  0.6625361E-009  0.2223762E+03  0.7561462E-02  0.1039739E+00
         22   -1    0    0    0    0  0.00000000000E+00  0.00000000000E+00  0.11496659328E+04  0.11496659328E+04  0.00000000000E+00 0.  1.
         22   -1    0    0    0    0 -0.00000000000E+00 -0.00000000000E+00 -0.12291267172E+04  0.12291267172E+04  0.00000000000E+00 0. -1.
        -24    2    1    2    0    0 -0.77666395536E+01 -0.18271368705E+03 -0.11780425110E+04  0.11950524935E+04  0.83196710130E+02 0.  0.
         25    2    1    2    0    0  0.64854696651E+02  0.27141424457E+03  0.75225372494E+03  0.81203727461E+03  0.12508814826E+03 0.  0.
         24    2    1    2    0    0 -0.57088057097E+02 -0.88700557522E+02  0.34632800168E+03  0.37170288187E+03  0.84220617877E+02 0.  0.
        -13    1    5    5    0    0 -0.18640873420E+02 -0.93466262052E+02  0.22542436933E+03  0.24474388775E+03  0.00000000000E+00 0.  1.
         14    1    5    5    0    0 -0.38447183678E+02  0.47657045303E+01  0.12090363235E+03  0.12695899412E+03  0.00000000000E+00 0. -1.
         13    1    3    3    0    0 -0.12615437511E+02 -0.18655743124E+03 -0.11702897539E+04  0.11851332974E+04  0.00000000000E+00 0. -1.
        -14    1    3    3    0    0  0.48487979579E+01  0.38437441942E+01 -0.77527570646E+01  0.99191961957E+01  0.00000000000E+00 0.  1.
          5    1    4    4  501    0  0.74955479456E+02  0.27163954517E+03  0.74954112957E+03  0.80077196736E+03  0.41800000000E+01 0. -1.
         -5    1    4    4    0  501 -0.10100782805E+02 -0.22530059416E+00  0.27125953649E+01  0.11265307241E+02  0.41800000000E+01 0. -1.
</event>
<event>
11    1  0.6625361E-009  0.1642726E+03  0.7561462E-02  0.1083126E+00
         22   -1    0    0    0    0  0.00000000000E+00  0.00000000000E+00  0.69814499865E+03  0.69814499865E+03  0.00000000000E+00 0.  1.
         22   -1    0    0    0    0 -0.00000000000E+00 -0.00000000000E+00 -0.92075115402E+03  0.92075115402E+03  0.00000000000E+00 0. -1.
         24    2    1    2    0    0  0.85124802760E+02 -0.64396104850E+02 -0.66072381408E+03  0.67407204529E+03  0.80150317485E+02 0.  0.
         25    2    1    2    0    0 -0.10607564968E+03  0.32280657756E+02 -0.22252182869E+03  0.27831197963E+03  0.12509000535E+03 0.  0.
        -24    2    1    2    0    0  0.20950846923E+02  0.32115447094E+02  0.66063948740E+03  0.66651212775E+03  0.79520715539E+02 0.  0.
        -13    1    3    3    0    0  0.35149889841E+02  0.15392977762E+02 -0.15664378095E+03  0.16127533174E+03  0.00000000000E+00 0.  1.
         14    1    3    3    0    0  0.49974912919E+02 -0.79789082612E+02 -0.50408003313E+03  0.51279671355E+03  0.00000000000E+00 0. -1.
         11    1    5    5    0    0  0.44254802924E+02 -0.45753684688E+01  0.30551470893E+03  0.30873720047E+03  0.00000000000E+00 0. -1.
        -12    1    5    5    0    0 -0.23303956001E+02  0.36690815562E+02  0.35512477847E+03  0.35777492728E+03  0.00000000000E+00 0.  1.
          5    1    4    4  501    0 -0.12543187294E+03  0.72667159666E+01 -0.20849365013E+03  0.24346053983E+03  0.41800000000E+01 0.  1.
         -5    1    4    4    0  501  0.19356223254E+02  0.25013941789E+02 -0.14028178566E+02  0.34851439803E+02  0.41800000000E+01 0.  1.
</event>
<event>
11    1  0.6625361E-009  0.1748517E+03  0.7561462E-02  0.1073885E+00
         22   -1    0    0    0    0  0.00000000000E+00  0.00000000000E+00  0.11461036395E+04  0.11461036395E+04  0.00000000000E+00 0.  1.
         22   -1    0    0    0    0 -0.00000000000E+00 -0.00000000000E+00 -0.37103012833E+03  0.37103012833E+03  0.00000000000E+00 0. -1.
        -24    2    1    2    0    0  0.11380319230E+03  0.44667105603E+02 -0.35546222792E+02  0.16834425541E+03  0.11013599536E+03 0.  0.
         25    2    1    2    0    0 -0.11989712518E+03 -0.25695347489E+02 -0.23880508952E+03  0.29616138619E+03  0.12509246333E+03 0.  0.
         24    2    1    2    0    0  0.60939328798E+01 -0.18971758115E+02  0.10494248235E+04  0.10526281263E+04  0.79601811507E+02 0.  0.
        -13    1    5    5    0    0  0.42344820942E+02 -0.12448648552E+02  0.65588327574E+03  0.65736665880E+03  0.00000000000E+00 0.  1.
         14    1    5    5    0    0 -0.36250888062E+02 -0.65231095625E+01  0.39354154779E+03  0.39526146748E+03  0.00000000000E+00 0. -1.
         11    1    3    3    0    0  0.21747915392E+02 -0.14868106454E+02 -0.51222046362E+02  0.57599743462E+02  0.00000000000E+00 0. -1.
        -12    1    3    3    0    0  0.92055276907E+02  0.59535212058E+02  0.15675823570E+02  0.11074451194E+03  0.00000000000E+00 0.  1.
          5    1    4    4  501    0 -0.13484572976E+03  0.29843645806E+01 -0.22117274173E+03  0.25908904136E+03  0.41800000000E+01 0.  1.
         -5    1    4    4    0  501  0.14948604577E+02 -0.28679712069E+02 -0.17632347782E+02  0.37072344834E+02  0.41800000000E+01 0.  1.
</event>
<event>
11    1  0.6625361E-009  0.1675669E+03  0.7561462E-02  0.1080169E+00
         22   -1    0    0    0    0  0.00000000000E+00  0.00000000000E+00  0.15463154482E+04  0.15463154482E+04  0.00000000000E+00 0.  1.
         22   -1    0    0    0    0 -0.00000000000E+00 -0.00000000000E+00 -0.67003591873E+02  0.67003591873E+02  0.00000000000E+00 0. -1.
         24    2    1    2    0    0 -0.10504769993E+02 -0.81285544181E+01  0.63041392382E+02  0.10213938789E+03  0.79257894337E+02 0.  0.
         25    2    1    2    0    0  0.50548054089E+01  0.11894654872E+03  0.12615293688E+03  0.21383947117E+03  0.12505568134E+03 0.  0.
        -24    2    1    2    0    0  0.54499645845E+01 -0.11081799430E+03  0.12901175270E+04  0.12973401810E+04  0.79862266913E+02 0.  0.
        -11    1    3    3    0    0 -0.80284527537E+01  0.27614331337E+02  0.59563516157E+02  0.66142420622E+02  0.00000000000E+00 0.  1.
         12    1    3    3    0    0 -0.24763172397E+01 -0.35742885755E+02  0.34778762250E+01  0.35996967264E+02  0.00000000000E+00 0. -1.
         11    1    5    5    0    0  0.23664027834E+02 -0.67980421524E+02  0.43157203556E+03  0.43753370819E+03  0.00000000000E+00 0. -1.
        -12    1    5    5    0    0 -0.18214063249E+02 -0.42837572779E+02  0.85854549146E+03  0.85980647279E+03  0.00000000000E+00 0.  1.
          5    1    4    4  501    0  0.55360875530E+02  0.36526273721E+02  0.87194476835E+02  0.10963277066E+03  0.41800000000E+01 0. -1.
         -5    1    4    4    0  501 -0.50306070121E+02  0.82420275001E+02  0.38958460050E+02  0.10420670051E+03  0.41800000000E+01 0. -1.
</event>
<event>
11    1  0.6625361E-009  0.1368949E+03  0.7561462E-02  0.1111076E+00
         22   -1    0    0    0    0  0.00000000000E+00  0.00000000000E+00  0.27080508924E+04  0.27080508924E+04  0.00000000000E+00 0. -1.
         22   -1    0    0    0    0 -0.00000000000E+00 -0.00000000000E+00 -0.63868602079E+02  0.63868602079E+02  0.00000000000E+00 0.  1.
        -24    2    1    2    0    0  0.47587066570E+02 -0.29717096035E+02 -0.17120466030E+02  0.99926365412E+02  0.80898290747E+02 0.  0.
         25    2    1    2    0    0 -0.46554739621E+02  0.66517238117E+01  0.10420091634E+04  0.10505438614E+04  0.12509084211E+03 0.  0.
         24    2    1    2    0    0 -0.10323269487E+01  0.23065372223E+02  0.16192935930E+04  0.16214492678E+04  0.80330010236E+02 0.  0.
        -13    1    5    5    0    0 -0.99219555012E+01  0.74771138699E+01  0.36547559971E+02  0.38601509979E+02  0.00000000000E+00 0.  1.
         14    1    5    5    0    0  0.88896285525E+01  0.15588258353E+02  0.15827460330E+04  0.15828477578E+04  0.00000000000E+00 0. -1.
         13    1    3    3    0    0  0.32683790278E+02 -0.28266296566E+01  0.29475034822E+02  0.44102127612E+02  0.00000000000E+00 0. -1.
        -14    1    3    3    0    0  0.14903276293E+02 -0.26890466378E+02 -0.46595500852E+02  0.55824237800E+02  0.00000000000E+00 0.  1.
          5    1    4    4  501    0 -0.15794148861E+02 -0.58838252368E+02  0.49672237975E+03  0.50046177678E+03  0.41800000000E+01 0. -1.
         -5    1    4    4    0  501 -0.30760590761E+02  0.65489976180E+02  0.54528678367E+03  0.55008208457E+03  0.41800000000E+01 0. -1.
</event>
<event>
11    1  0.6625361E-009  0.1538118E+03  0.7561462E-02  0.1093046E+00
         22   -1    0    0    0    0  0.00000000000E+00  0.00000000000E+00  0.23719609335E+04  0.23719609335E+04  0.00000000000E+00 0.  1.
         22   -1    0    0    0    0 -0.00000000000E+00 -0.00000000000E+00 -0.93625899437E+03  0.93625899437E+03  0.00000000000E+00 0. -1.
        -24    2    1    2    0    0 -0.69476690111E+02  0.56194958826E+02 -0.83942098095E+03  0.84749714537E+03  0.75092904362E+02 0.  0.
         25    2    1    2    0    0  0.53107836207E+02 -0.79996835710E+02 -0.24448900986E+02  0.15957949387E+03  0.12509168684E+03 0.  0.
         24    2    1    2    0    0  0.16368853904E+02  0.23801876884E+02  0.22995718211E+04  0.23011432886E+04  0.79971281209E+02 0.  0.
        -11    1    5    5    0    0 -0.19301766063E+02  0.40918817353E+02  0.13090773172E+04  0.13098588970E+04  0.00000000000E+00 0.  1.
         12    1    5    5    0    0  0.35670619968E+02 -0.17116940470E+02  0.99049450391E+03  0.99128439162E+03  0.00000000000E+00 0. -1.
         11    1    3    3    0    0 -0.12416436529E+02  0.58294879655E+02 -0.43650490576E+03  0.44055532416E+03  0.00000000000E+00 0. -1.
        -12    1    3    3    0    0 -0.57060253582E+02 -0.20999208286E+01 -0.40291607518E+03  0.40694182121E+03  0.00000000000E+00 0.  1.
          5    1    4    4  501    0 -0.34558995871E+02 -0.57038417217E+02 -0.13857970130E+02  0.68243834669E+02  0.41800000000E+01 0. -1.
         -5    1    4    4    0  501  0.87666832077E+02 -0.22958418493E+02 -0.10590930855E+02  0.91335659206E+02  0.41800000000E+01 0. -1.
</event>
<event>
11    1  0.6625361E-009  0.2018418E+03  0.7561462E-02  0.1053229E+00
         22   -1    0    0    0    0  0.00000000000E+00  0.00000000000E+00  0.86676717133E+03  0.86676717133E+03  0.00000000000E+00 0. -1.
         22   -1    0    0    0    0 -0.00000000000E+00 -0.00000000000E+00 -0.12164177061E+04  0.12164177061E+04  0.00000000000E+00 0.  1.
        -24    2    1    2    0    0 -0.12717020762E+03 -0.56852987588E+02 -0.10871560336E+04  0.10986294143E+04  0.75324795771E+02 0.  0.
         25    2    1    2    0    0  0.23991042719E+03 -0.46917127634E+02  0.54353285127E+02  0.27992975451E+03  0.12509259737E+03 0.  0.
         24    2    1    2    0    0 -0.11274021957E+03  0.10377011522E+03  0.68315221369E+03  0.70462570855E+03  0.79510050659E+02 0.  0.
        -13    1    5    5    0    0 -0.22731013370E+01  0.44691702141E+02  0.13070763335E+03  0.13815571160E+03  0.00000000000E+00 0.  1.
         14    1    5    5    0    0 -0.11046711824E+03  0.59078413080E+02  0.55244458034E+03  0.56646999695E+03  0.00000000000E+00 0. -1.
         13    1    3    3    0    0 -0.70965408314E+02  0.91042796467E+01 -0.51618422293E+03  0.52111911219E+03  0.00000000000E+00 0. -1.
        -14    1    3    3    0    0 -0.56204799306E+02 -0.65957267234E+02 -0.57097181062E+03  0.57751030215E+03  0.00000000000E+00 0.  1.
          5    1    4    4  501    0  0.12462880836E+03 -0.64737725477E+02  0.78192603235E+02  0.16079449174E+03  0.41800000000E+01 0. -1.
         -5    1    4    4    0  501  0.11528161883E+03  0.17820597844E+02 -0.23839318108E+02  0.11913526277E+03  0.41800000000E+01 0. -1.
</event>
<event>
11    1  0.6625361E-009  0.1466977E+03  0.7561462E-02  0.1100302E+00
         22   -1    0    0    0    0  0.00000000000E+00  0.00000000000E+00  0.39580840233E+03  0.39580840233E+03  0.00000000000E+00 0.  1.
         22   -1    0    0    0    0 -0.00000000000E+00 -0.00000000000E+00 -0.52901262043E+03  0.52901262043E+03  0.00000000000E+00 0. -1.
         24    2    1    2    0    0  0.12645117979E+02 -0.36962338120E+02 -0.40993293089E+03  0.41928700444E+03  0.78933331459E+02 0.  0.
         25    2    1    2    0    0  0.42690593158E+02  0.88041892445E+02 -0.45226688729E+02  0.16512653169E+03  0.12508979385E+03 0.  0.
        -24    2    1    2    0    0 -0.55335711137E+02 -0.51079554325E+02  0.32195540153E+03  0.34040748663E+03  0.80937102664E+02 0.  0.
        -11    1    3    3    0    0 -0.13657409925E+02  0.12630355118E+02 -0.30510252655E+02  0.35734104625E+02  0.00000000000E+00 0.  1.
         12    1    3    3    0    0  0.26302527904E+02 -0.49592693238E+02 -0.37942267824E+03  0.38355289982E+03  0.00000000000E+00 0. -1.
         13    1    5    5    0    0 -0.47437507945E+02 -0.35744991252E+02  0.90133516587E+02  0.10794476538E+03  0.00000000000E+00 0. -1.
        -14    1    5    5    0    0 -0.78982031925E+01 -0.15334563073E+02  0.23182188494E+03  0.23246272126E+03  0.00000000000E+00 0.  1.
          5    1    4    4  501    0 -0.11627175841E+01  0.10172226241E+03 -0.18857929682E+01  0.10183221100E+03  0.41800000000E+01 0.  1.
         -5    1    4    4    0  501  0.43853310742E+02 -0.13680369968E+02 -0.43340895761E+02  0.63294320684E+02  0.41800000000E+01 0.  1.
</event>
<event>
11    1  0.6625361E-009  0.1562406E+03  0.7561462E-02  0.1090667E+00
         22   -1    0    0    0    0  0.00000000000E+00  0.00000000000E+00  0.19231726975E+03  0.19231726975E+03  0.00000000000E+00 0.  1.
         22   -1    0    0    0    0 -0.00000000000E+00 -0.00000000000E+00 -0.21465502846E+04  0.21465502846E+04  0.00000000000E+00 0.  1.
         24    2    1    2    0    0 -0.24305339301E+02  0.15112874102E+01 -0.18342337470E+04  0.18362240713E+04  0.81929040726E+02 0.  0.
         25    2    1    2    0    0 -0.14253500302E+02 -0.87463479211E+02 -0.26874660949E+03  0.30939729766E+03  0.12509566426E+03 0.  0.
        -24    2    1    2    0    0  0.38558839603E+02  0.85952191801E+02  0.14874734167E+03  0.19324618541E+03  0.79647681296E+02 0.  0.
        -13    1    3    3    0    0 -0.26333431227E+02 -0.86251465922E+01 -0.18050658353E+04  0.18052785138E+04  0.00000000000E+00 0.  1.
         14    1    3    3    0    0  0.20280919264E+01  0.10136434002E+02 -0.29167911749E+02  0.30945557467E+02  0.00000000000E+00 0. -1.
         11    1    5    5    0    0  0.19235168208E+01 -0.15297879428E+02  0.23117645960E+02  0.27787597713E+02  0.00000000000E+00 0. -1.
        -12    1    5    5    0    0  0.36635322782E+02  0.10125007123E+03  0.12562969571E+03  0.16545858770E+03  0.00000000000E+00 0.  1.
          5    1    4    4  501    0 -0.65627792548E+02 -0.21073281093E+02 -0.11341648685E+03  0.13278502258E+03  0.41800000000E+01 0. -1.
         -5    1    4    4    0  501  0.51374292245E+02 -0.66390198118E+02 -0.15533012264E+03  0.17661227508E+03  0.41800000000E+01 0. -1.
</event>
<event>
11    1  0.6625361E-009  0.1707005E+03  0.7561462E-02  0.1077424E+00
         22   -1    0    0    0    0  0.00000000000E+00  0.00000000000E+00  0.11892631829E+04  0.11892631829E+04  0.00000000000E+00 0. -1.
         22   -1    0    0    0    0 -0.00000000000E+00 -0.00000000000E+00 -0.18215530019E+03  0.18215530019E+03  0.00000000000E+00 0. -1.
         24    2    1    2    0    0 -0.11550876855E+02 -0.47393317190E+02 -0.14306767742E+03  0.17124777631E+03  0.80485348350E+02 0.  0.
         25    2    1    2    0    0  0.12425738813E+03  0.44235838334E+02  0.43154947158E+03  0.46827136145E+03  0.12508562520E+03 0.  0.
        -24    2    1    2    0    0 -0.11270651127E+03  0.31574788555E+01  0.71862608851E+03  0.73189934529E+03  0.80873167331E+02 0.  0.
        -11    1    3    3    0    0  0.34042218074E+02 -0.21266342632E+02 -0.47522540640E+02  0.62205480540E+02  0.00000000000E+00 0.  1.
         12    1    3    3    0    0 -0.45593094930E+02 -0.26126974558E+02 -0.95545136781E+02  0.10904229577E+03  0.00000000000E+00 0. -1.
         11    1    5    5    0    0 -0.92541152815E+02 -0.31283470457E+02  0.46474385762E+03  0.47489933005E+03  0.00000000000E+00 0. -1.
        -12    1    5    5    0    0 -0.20165358459E+02  0.34440949313E+02  0.25388223089E+03  0.25700001524E+03  0.00000000000E+00 0.  1.
          5    1    4    4  501    0  0.10840120191E+02  0.57632602261E+02  0.22122436095E+03  0.22890328815E+03  0.41800000000E+01 0.  1.
         -5    1    4    4    0  501  0.11341726794E+03 -0.13396763927E+02  0.21032511063E+03  0.23936807329E+03  0.41800000000E+01 0.  1.
</event>
<event>
11    1  0.6625361E-009  0.1358097E+03  0.7561462E-02  0.1112330E+00
         22   -1    0    0    0    0  0.00000000000E+00  0.00000000000E+00  0.10412231359E+04  0.10412231359E+04  0.00000000000E+00 0.  1.
         22   -1    0    0    0    0 -0.00000000000E+00 -0.00000000000E+00 -0.22138019379E+03  0.22138019379E+03  0.00000000000E+00 0. -1.
        -24    2    1    2    0    0  0.39138742243E+02  0.35511961389E+02 -0.19762338157E+03  0.22014546359E+03  0.81339311845E+02 0.  0.
         25    2    1    2    0    0 -0.50484079696E+02 -0.26581022683E+02  0.75279806571E+03  0.76525009826E+03  0.12509033568E+03 0.  0.
         24    2    1    2    0    0  0.11345337453E+02 -0.89309387054E+01  0.26466825796E+03  0.27720776784E+03  0.81156524235E+02 0.  0.
        -13    1    5    5    0    0 -0.12716356610E+02 -0.27696538523E+02  0.22553073905E+03  0.22758057525E+03  0.00000000000E+00 0.  1.
         14    1    5    5    0    0  0.24061694063E+02  0.18765599818E+02  0.39137518912E+02  0.49627192589E+02  0.00000000000E+00 0. -1.
         11    1    3    3    0    0  0.47531287810E+01  0.21885295603E+02 -0.17575696853E+03  0.17717807535E+03  0.00000000000E+00 0. -1.
        -12    1    3    3    0    0  0.34385613462E+02  0.13626665786E+02 -0.21866413044E+02  0.42967388249E+02  0.00000000000E+00 0.  1.
          5    1    4    4  501    0 -0.55447897249E+01  0.48961320762E+02  0.26225568730E+03  0.26687726307E+03  0.41800000000E+01 0. -1.
         -5    1    4    4    0  501 -0.44939289971E+02 -0.75542343445E+02  0.49054237841E+03  0.49837283519E+03  0.41800000000E+01 0. -1.
</event>
<event>
11    1  0.6625361E-009  0.1376454E+03  0.7561462E-02  0.1110216E+00
         22   -1    0    0    0    0  0.00000000000E+00  0.00000000000E+00  0.15265939195E+03  0.15265939195E+03  0.00000000000E+00 0.  1.
         22   -1    0    0    0    0 -0.00000000000E+00 -0.00000000000E+00 -0.11615802846E+04  0.11615802846E+04  0.00000000000E+00 0. -1.
        -24    2    1    2    0    0 -0.33163784159E+02 -0.50102688331E+02 -0.78548826259E+03  0.79179469616E+03  0.79604737494E+02 0.  0.
         25    2    1    2    0    0  0.33193890203E+02  0.34198076523E+02 -0.34828972242E+03  0.37312886426E+03  0.12509226921E+03 0.  0.
         24    2    1    2    0    0 -0.30106043705E-01  0.15904611808E+02  0.12485709234E+03  0.14931611616E+03  0.80330887293E+02 0.  0.
        -13    1    5    5    0    0  0.30923679454E+02 -0.10047019561E+02  0.23243942519E+02  0.39968705469E+02  0.00000000000E+00 0.  1.
         14    1    5    5    0    0 -0.30953785498E+02  0.25951631369E+02  0.10161314982E+03  0.10934741069E+03  0.00000000000E+00 0. -1.
         11    1    3    3    0    0 -0.19967677942E+02  0.62175510439E+01 -0.50351900148E+03  0.50395312377E+03  0.00000000000E+00 0. -1.
        -12    1    3    3    0    0 -0.13196106217E+02 -0.56320239375E+02 -0.28196926112E+03  0.28784157239E+03  0.00000000000E+00 0.  1.
          5    1    4    4  501    0  0.38219494625E+02  0.54625315348E+02 -0.34502773919E+03  0.35143458574E+03  0.41800000000E+01 0.  1.
         -5    1    4    4    0  501 -0.50256044228E+01 -0.20427238825E+02 -0.32619832324E+01  0.21694278519E+02  0.41800000000E+01 0.  1.
</event>
<event>
11    1  0.6625361E-009  0.1468313E+03  0.7561462E-02  0.1100161E+00
         22   -1    0    0    0    0  0.00000000000E+00  0.00000000000E+00  0.35060613080E+03  0.35060613080E+03  0.00000000000E+00 0.  1.
         22   -1    0    0    0    0 -0.00000000000E+00 -0.00000000000E+00 -0.35432736553E+03  0.35432736553E+03  0.00000000000E+00 0.  1.
         24    2    1    2    0    0  0.58301962669E+02  0.52958020443E+02 -0.20785265901E+03  0.23561996096E+03  0.78168838819E+02 0.  0.
         25    2    1    2    0    0 -0.17477107577E+02 -0.80735855771E+02 -0.78814543169E+02  0.16936241210E+03  0.12509263255E+03 0.  0.
        -24    2    1    2    0    0 -0.40824855092E+02  0.27777835329E+02  0.28294596746E+03  0.29995112328E+03  0.86452177119E+02 0.  0.
        -11    1    3    3    0    0  0.34055401064E+02  0.52363961536E+02 -0.20090376781E+03  0.21039030094E+03  0.00000000000E+00 0.  1.
         12    1    3    3    0    0  0.24246561605E+02  0.59405890706E+00 -0.69488912037E+01  0.25229660018E+02  0.00000000000E+00 0. -1.
         13    1    5    5    0    0 -0.15267469970E+02  0.18612652727E+02  0.10682303996E+02  0.26337010071E+02  0.00000000000E+00 0. -1.
        -14    1    5    5    0    0 -0.25557385123E+02  0.91651826015E+01  0.27226366346E+03  0.27361411321E+03  0.00000000000E+00 0.  1.
          5    1    4    4  501    0  0.48537841382E+02 -0.57196833367E+02 -0.19938031487E+02  0.77732858514E+02  0.41800000000E+01 0.  1.
         -5    1    4    4    0  501 -0.66014948959E+02 -0.23539022405E+02 -0.58876511682E+02  0.91629553582E+02  0.41800000000E+01 0.  1.
</event>
<event>
11    1  0.6625361E-009  0.1406665E+03  0.7561462E-02  0.1106816E+00
         22   -1    0    0    0    0  0.00000000000E+00  0.00000000000E+00  0.30511533437E+03  0.30511533437E+03  0.00000000000E+00 0.  1.
         22   -1    0    0    0    0 -0.00000000000E+00 -0.00000000000E+00 -0.12357755566E+04  0.12357755566E+04  0.00000000000E+00 0. -1.
         24    2    1    2    0    0 -0.67624715463E+00 -0.13721037502E+02 -0.72093920294E+03  0.72500198131E+03  0.75404339309E+02 0.  0.
         25    2    1    2    0    0  0.64817315856E+02  0.18380064879E+02 -0.49496432838E+03  0.51495316542E+03  0.12509182623E+03 0.  0.
        -24    2    1    2    0    0 -0.64141068701E+02 -0.46590273774E+01  0.28524330903E+03  0.30093574429E+03  0.71153310636E+02 0.  0.
        -13    1    3    3    0    0  0.96616673463E+01  0.30103105614E+02 -0.29424443369E+03  0.29593805355E+03  0.00000000000E+00 0.  1.
         14    1    3    3    0    0 -0.10337914501E+02 -0.43824143116E+02 -0.42669476925E+03  0.42906392776E+03  0.00000000000E+00 0. -1.
         11    1    5    5    0    0  0.12364372757E+02  0.17758957530E+01  0.94481513225E+02  0.95303661319E+02  0.00000000000E+00 0. -1.
        -12    1    5    5    0    0 -0.76505441458E+02 -0.64349231305E+01  0.19076179581E+03  0.20563208297E+03  0.00000000000E+00 0.  1.
          5    1    4    4  501    0  0.97038845071E+02 -0.38907358270E+01 -0.27959286491E+03  0.29600898262E+03  0.41800000000E+01 0.  1.
         -5    1    4    4    0  501 -0.32221529215E+02  0.22270800706E+02 -0.21537146346E+03  0.21894418280E+03  0.41800000000E+01 0.  1.
</event>
<event>
11    1  0.6625361E-009  0.3547644E+03  0.7561462E-02  0.9793547E-01
         22   -1    0    0    0    0  0.00000000000E+00  0.00000000000E+00  0.71198804501E+03  0.71198804501E+03  0.00000000000E+00 0. -1.
         22   -1    0    0    0    0 -0.00000000000E+00 -0.00000000000E+00 -0.19164956329E+04  0.19164956329E+04  0.00000000000E+00 0.  1.
         24    2    1    2    0    0 -0.19883794099E+02  0.70368241241E+02 -0.16176976061E+04  0.16213951306E+04  0.81422172081E+02 0.  0.
         25    2    1    2    0    0 -0.84741565810E+02  0.25773584939E+03 -0.15606016897E+03  0.33706123505E+03  0.12508636534E+03 0.  0.
        -24    2    1    2    0    0  0.10462535991E+03 -0.32810409064E+03  0.56925018716E+03  0.67002731228E+03  0.79322527583E+02 0.  0.
        -11    1    3    3    0    0  0.21188188788E+02  0.62656522269E+02 -0.11170277671E+04  0.11189842768E+04  0.00000000000E+00 0.  1.
         12    1    3    3    0    0 -0.41071982887E+02  0.77117189722E+01 -0.50066983898E+03  0.50241085383E+03  0.00000000000E+00 0. -1.
         11    1    5    5    0    0  0.28335749485E+02 -0.15277243597E+03  0.32144008485E+03  0.35702389282E+03  0.00000000000E+00 0. -1.
        -12    1    5    5    0    0  0.76289610424E+02 -0.17533165467E+03  0.24781010231E+03  0.31300341946E+03  0.00000000000E+00 0.  1.
          5    1    4    4  501    0 -0.86454604606E+01  0.18167775865E+03 -0.56730223925E+02  0.19057109613E+03  0.41800000000E+01 0.  1.
         -5    1    4    4    0  501 -0.76096105349E+02  0.76058090744E+02 -0.99329945046E+02  0.14649013892E+03  0.41800000000E+01 0.  1.
</event>
<event>
11    1  0.6625361E-009  0.1481546E+03  0.7561462E-02  0.1098779E+00
         22   -1    0    0    0    0  0.00000000000E+00  0.00000000000E+00  0.35747117106E+03  0.35747117106E+03  0.00000000000E+00 0. -1.
         22   -1    0    0    0    0 -0.00000000000E+00 -0.00000000000E+00 -0.12950474415E+03  0.12950474415E+03  0.00000000000E+00 0. -1.
        -24    2    1    2    0    0  0.28566457127E+02  0.10289460563E+02 -0.36220042329E+02  0.94053705930E+02  0.81316004952E+02 0.  0.
         25    2    1    2    0    0  0.54690289310E+02 -0.28907583693E+02  0.49708770697E+02  0.14814639669E+03  0.12509882824E+03 0.  0.
         24    2    1    2    0    0 -0.83256746437E+02  0.18618123131E+02  0.21447769854E+03  0.24477581260E+03  0.81462843831E+02 0.  0.
        -13    1    5    5    0    0  0.97345129278E+01 -0.14280452670E+02  0.50956161743E+02  0.53807271720E+02  0.00000000000E+00 0.  1.
         14    1    5    5    0    0 -0.92991259364E+02  0.32898575801E+02  0.16352153680E+03  0.19096854088E+03  0.00000000000E+00 0. -1.
         11    1    3    3    0    0  0.47899339137E+02 -0.16015646784E+02 -0.34882289784E+02  0.61380956104E+02  0.00000000000E+00 0. -1.
        -12    1    3    3    0    0 -0.19332882010E+02  0.26305107347E+02 -0.13377525451E+01  0.32672749826E+02  0.00000000000E+00 0.  1.
          5    1    4    4  501    0  0.58654148212E+02  0.32420101592E+02  0.54331310008E+02  0.86375550574E+02  0.41800000000E+01 0. -1.
         -5    1    4    4    0  501 -0.39638589024E+01 -0.61327685286E+02 -0.46225393114E+01  0.61770846113E+02  0.41800000000E+01 0. -1.
</event>
<event>
11    1  0.6625361E-009  0.1611765E+03  0.7561462E-02  0.1085976E+00
         22   -1    0    0    0    0  0.00000000000E+00  0.00000000000E+00  0.34870681091E+04  0.34870681091E+04  0.00000000000E+00 0.  1.
         22   -1    0    0    0    0 -0.00000000000E+00 -0.00000000000E+00 -0.14349495404E+04  0.14349495404E+04  0.00000000000E+00 0. -1.
         24    2    1    2    0    0  0.11155305400E+02  0.23197996001E+02 -0.14071123096E+04  0.14096257881E+04  0.80107569888E+02 0.  0.
         25    2    1    2    0    0  0.44524781880E+02 -0.10733800107E+03  0.26536879997E+03  0.31554909566E+03  0.12508688621E+03 0.  0.
        -24    2    1    2    0    0 -0.55680087279E+02  0.84140005067E+02  0.31938620784E+04  0.31968427658E+04  0.94174736305E+02 0.  0.
        -11    1    3    3    0    0 -0.67015633588E+01 -0.17843484406E+02 -0.10319320445E+03  0.10493873609E+03  0.00000000000E+00 0.  1.
         12    1    3    3    0    0  0.17856868759E+02  0.41041480407E+02 -0.13039191051E+04  0.13046870520E+04  0.00000000000E+00 0. -1.
         13    1    5    5    0    0 -0.76156191898E+02  0.85149779457E+02  0.24015635554E+04  0.24042790523E+04  0.00000000000E+00 0. -1.
        -14    1    5    5    0    0  0.20476104619E+02 -0.10097743900E+01  0.79229852293E+03  0.79256371349E+03  0.00000000000E+00 0.  1.
          5    1    4    4  501    0  0.20458763017E+02 -0.40045087899E+02  0.49070675955E+01  0.45428204471E+02  0.41800000000E+01 0. -1.
         -5    1    4    4    0  501  0.24066018863E+02 -0.67292913169E+02  0.26046173237E+03  0.27012089119E+03  0.41800000000E+01 0. -1.
</event>
<event>
11    1  0.6625361E-009  0.1352276E+03  0.7561462E-02  0.1113008E+00
         22   -1    0    0    0    0  0.00000000000E+00  0.00000000000E+00  0.72490449669E+03  0.72490449669E+03  0.00000000000E+00 0.  1.
         22   -1    0    0    0    0 -0.00000000000E+00 -0.00000000000E+00 -0.76754599044E+03  0.76754599044E+03  0.00000000000E+00 0.  1.
         24    2    1    2    0    0  0.20878354027E+01 -0.18920535384E+02 -0.71797248577E+03  0.72283223407E+03  0.81483756539E+02 0.  0.
         25    2    1    2    0    0  0.19024477062E+01  0.68685766211E+02  0.73586727398E+02  0.16057293960E+03  0.12508920295E+03 0.  0.
        -24    2    1    2    0    0 -0.39902831090E+01 -0.49765230827E+02  0.60174426463E+03  0.60904531346E+03  0.79671408153E+02 0.  0.
        -13    1    3    3    0    0 -0.19909806848E+02 -0.39433741602E+02 -0.57690480655E+03  0.57859361922E+03  0.00000000000E+00 0.  1.
         14    1    3    3    0    0  0.21997642250E+02  0.20513206218E+02 -0.14106767922E+03  0.14423861485E+03  0.00000000000E+00 0. -1.
         11    1    5    5    0    0  0.18769935231E+01 -0.89716981307E+01  0.42015730900E+01  0.10083039644E+02  0.00000000000E+00 0. -1.
        -12    1    5    5    0    0 -0.58672766321E+01 -0.40793532696E+02  0.59754269154E+03  0.59896227381E+03  0.00000000000E+00 0.  1.
          5    1    4    4  501    0 -0.11141087186E+02  0.97697114861E+02  0.81208818682E+02  0.12759778488E+03  0.41800000000E+01 0. -1.
         -5    1    4    4    0  501  0.13043534893E+02 -0.29011348650E+02 -0.76220912842E+01  0.32975154715E+02  0.41800000000E+01 0. -1.
</event>
<event>
11    1  0.6625361E-009  0.1291437E+03  0.7561462E-02  0.1120326E+00
         22   -1    0    0    0    0  0.00000000000E+00  0.00000000000E+00  0.37039161271E+03  0.37039161271E+03  0.00000000000E+00 0.  1.
         22   -1    0    0    0    0 -0.00000000000E+00 -0.00000000000E+00 -0.35431327620E+03  0.35431327620E+03  0.00000000000E+00 0.  1.
         24    2    1    2    0    0  0.16277420449E+02 -0.27038708175E+02 -0.28623547421E+03  0.29934142019E+03  0.81722047121E+02 0.  0.
         25    2    1    2    0    0 -0.30224544187E+02  0.26479090563E+02  0.21878883541E+02  0.13319606939E+03  0.12509133482E+03 0.  0.
        -24    2    1    2    0    0  0.13947123737E+02  0.55961761230E+00  0.28043492717E+03  0.29216739933E+03  0.80766363179E+02 0.  0.
        -13    1    3    3    0    0  0.19759094583E+02 -0.55508899409E+02 -0.19330078601E+03  0.20208130444E+03  0.00000000000E+00 0.  1.
         14    1    3    3    0    0 -0.34816741341E+01  0.28470191234E+02 -0.92934688205E+02  0.97260115749E+02  0.00000000000E+00 0. -1.
         13    1    5    5    0    0  0.39801137805E+02  0.11679915798E+02  0.83538199974E+02  0.93269404729E+02  0.00000000000E+00 0. -1.
        -14    1    5    5    0    0 -0.25854014068E+02 -0.11120298186E+02  0.19689672720E+03  0.19889799460E+03  0.00000000000E+00 0.  1.
          5    1    4    4  501    0  0.10797431603E+02  0.44170204044E+02 -0.37278857444E+02  0.58947239687E+02  0.41800000000E+01 0.  1.
         -5    1    4    4    0  501 -0.41021975789E+02 -0.17691113481E+02  0.59157740984E+02  0.74248829703E+02  0.41800000000E+01 0.  1.
</event>
<event>
11    1  0.6625361E-009  0.1553819E+03  0.7561462E-02  0.1091503E+00
         22   -1    0    0    0    0  0.00000000000E+00  0.00000000000E+00  0.99557654673E+02  0.99557654673E+02  0.00000000000E+00 0. -1.
         22   -1    0    0    0    0 -0.00000000000E+00 -0.00000000000E+00 -0.63258387584E+03  0.63258387584E+03  0.00000000000E+00 0. -1.
        -24    2    1    2    0    0 -0.26926135344E+02 -0.55168509478E+02 -0.35337915940E+03  0.36733521776E+03  0.79307948567E+02 0.  0.
         25    2    1    2    0    0 -0.32106706415E+02 -0.32780696166E+02 -0.18951773312E+03  0.23166707656E+03  0.12508896257E+03 0.  0.
         24    2    1    2    0    0  0.59032841758E+02  0.87949205644E+02  0.98706713559E+01  0.13313923619E+03  0.80054274597E+02 0.  0.
        -13    1    5    5    0    0  0.10993833097E+01 -0.14253924414E+02 -0.39922759814E+01  0.14843223113E+02  0.00000000000E+00 0.  1.
         14    1    5    5    0    0  0.57933458449E+02  0.10220313006E+03  0.13862947337E+02  0.11829601308E+03  0.00000000000E+00 0. -1.
         13    1    3    3    0    0 -0.15015864147E+02 -0.11690071122E+02 -0.28374583288E+03  0.28438324778E+03  0.00000000000E+00 0. -1.
        -14    1    3    3    0    0 -0.11910271197E+02 -0.43478438357E+02 -0.69633326519E+02  0.82951969983E+02  0.00000000000E+00 0.  1.
          5    1    4    4  501    0 -0.41240344393E+02  0.27830528263E+01 -0.31427862637E+01  0.41663663956E+02  0.41800000000E+01 0.  1.
         -5    1    4    4    0  501  0.91336379786E+01 -0.35563748992E+02 -0.18637494686E+03  0.19000341261E+03  0.41800000000E+01 0.  1.
</event>
<event>
11    1  0.6625361E-009  0.1397007E+03  0.7561462E-02  0.1107893E+00
         22   -1    0    0    0    0  0.00000000000E+00  0.00000000000E+00  0.67779006683E+03  0.67779006683E+03  0.00000000000E+00 0.  1.
         22   -1    0    0    0    0 -0.00000000000E+00 -0.00000000000E+00 -0.62659679401E+03  0.62659679401E+03  0.00000000000E+00 0. -1.
        -24    2    1    2    0    0  0.19771389526E+02 -0.93258192546E+01 -0.60186351592E+03  0.60764222140E+03  0.80693857759E+02 0.  0.
         25    2    1    2    0    0 -0.16167914478E+02 -0.55869327274E+02  0.30900224817E+03  0.33839535122E+03  0.12508493581E+03 0.  0.
         24    2    1    2    0    0 -0.36034750486E+01  0.65195146528E+02  0.34405454057E+03  0.35834928822E+03  0.76008508176E+02 0.  0.
        -13    1    5    5    0    0 -0.16932304678E+01  0.61343790974E+02  0.34747695070E+03  0.35285430277E+03  0.00000000000E+00 0.  1.
         14    1    5    5    0    0 -0.19102445808E+01  0.38513555539E+01 -0.34224101255E+01  0.54949854439E+01  0.00000000000E+00 0. -1.
         13    1    3    3    0    0  0.81976142842E+01  0.27305136740E+02 -0.45318668182E+03  0.45408252549E+03  0.00000000000E+00 0. -1.
        -14    1    3    3    0    0  0.11573775242E+02 -0.36630955994E+02 -0.14867683410E+03  0.15355969591E+03  0.00000000000E+00 0.  1.
          5    1    4    4  501    0  0.32760803507E+02  0.25156803522E+02  0.71297054269E+02  0.82503802078E+02  0.41800000000E+01 0.  1.
         -5    1    4    4    0  501 -0.48928717985E+02 -0.81026130796E+02  0.23770519390E+03  0.25589154914E+03  0.41800000000E+01 0.  1.
</event>
<event>
11    1  0.6625361E-009  0.1995048E+03  0.7561462E-02  0.1054874E+00
         22   -1    0    0    0    0  0.00000000000E+00  0.00000000000E+00  0.53922728616E+03  0.53922728616E+03  0.00000000000E+00 0.  1.
         22   -1    0    0    0    0 -0.00000000000E+00 -0.00000000000E+00 -0.13973229024E+03  0.13973229024E+03  0.00000000000E+00 0. -1.
         24    2    1    2    0    0 -0.46203637597E+02  0.83298807749E+01  0.94505420812E+01  0.93534691007E+02  0.80344649076E+02 0.  0.
         25    2    1    2    0    0 -0.99932441072E+02 -0.10950827944E+03  0.32778734836E+03  0.38088094051E+03  0.12508872473E+03 0.  0.
        -24    2    1    2    0    0  0.14613607867E+03  0.10117839867E+03  0.62257105478E+02  0.20454394488E+03  0.79808873938E+02 0.  0.
        -11    1    3    3    0    0 -0.16408264178E+02  0.23459469764E+01  0.44297787165E+02  0.47297236159E+02  0.00000000000E+00 0.  1.
         12    1    3    3    0    0 -0.29795373419E+02  0.59839337985E+01 -0.34847245084E+02  0.46237454848E+02  0.00000000000E+00 0. -1.
         11    1    5    5    0    0  0.65816174236E+00  0.42542769569E+01 -0.13393181521E+02  0.14068026178E+02  0.00000000000E+00 0. -1.
        -12    1    5    5    0    0  0.14547791693E+03  0.96924121712E+02  0.75650286998E+02  0.19047591870E+03  0.00000000000E+00 0.  1.
          5    1    4    4  501    0  0.12225959350E+02  0.17620016559E+02  0.20796842679E+02  0.30164882413E+02  0.41800000000E+01 0. -1.
         -5    1    4    4    0  501 -0.11215840042E+03 -0.12712829600E+03  0.30699050568E+03  0.35071605810E+03  0.41800000000E+01 0. -1.
</event>
<event>
11    1  0.6625361E-009  0.2191599E+03  0.7561462E-02  0.1041745E+00
         22   -1    0    0    0    0  0.00000000000E+00  0.00000000000E+00  0.11375540460E+04  0.11375540460E+04  0.00000000000E+00 0. -1.
         22   -1    0    0    0    0 -0.00000000000E+00 -0.00000000000E+00 -0.70408950620E+03  0.70408950620E+03  0.00000000000E+00 0.  1.
         24    2    1    2    0    0 -0.16006151703E+03 -0.86298484176E+02 -0.40050393529E+03  0.44627306233E+03  0.75426297621E+02 0.  0.
         25    2    1    2    0    0  0.19567364363E+03 -0.12610558539E+02 -0.22766300560E+03  0.32546334740E+03  0.12509494547E+03 0.  0.
        -24    2    1    2    0    0 -0.35612126604E+02  0.98909042715E+02  0.10616314807E+04  0.10699071425E+04  0.81170625538E+02 0.  0.
        -11    1    3    3    0    0 -0.13371238382E+03 -0.48259978934E+02 -0.35004650867E+03  0.37781025050E+03  0.00000000000E+00 0.  1.
         12    1    3    3    0    0 -0.26349133204E+02 -0.38038505242E+02 -0.50457426620E+02  0.68462811824E+02  0.00000000000E+00 0. -1.
         13    1    5    5    0    0 -0.10185598390E+02  0.11144030132E+02  0.54822638655E+03  0.54843423191E+03  0.00000000000E+00 0. -1.
        -14    1    5    5    0    0 -0.25426528214E+02  0.87765012583E+02  0.51340509415E+03  0.52147291058E+03  0.00000000000E+00 0.  1.
          5    1    4    4  501    0  0.17444261298E+03  0.10268834025E+02 -0.11683078871E+03  0.21024409567E+03  0.41800000000E+01 0.  1.
         -5    1    4    4    0  501  0.21231030654E+02 -0.22879392565E+02 -0.11083221690E+03  0.11521925173E+03  0.41800000000E+01 0.  1.
</event>
<event>
11    1  0.6625361E-009  0.1819373E+03  0.7561462E-02  0.1068086E+00
         22   -1    0    0    0    0  0.00000000000E+00  0.00000000000E+00  0.64624527551E+03  0.64624527551E+03  0.00000000000E+00 0.  1.
         22   -1    0    0    0    0 -0.00000000000E+00 -0.00000000000E+00 -0.65309270484E+03  0.65309270484E+03  0.00000000000E+00 0. -1.
        -24    2    1    2    0    0 -0.12772432733E+03 -0.35402950684E+02 -0.53485681440E+03  0.55692501154E+03  0.80788513207E+02 0.  0.
         25    2    1    2    0    0  0.91297249406E+02  0.13536030793E+03  0.82395507839E+01  0.20583764971E+03  0.12507456628E+03 0.  0.
         24    2    1    2    0    0  0.36427077923E+02 -0.99957357242E+02  0.51976983428E+03  0.53657531909E+03  0.80212138431E+02 0.  0.
        -11    1    5    5    0    0 -0.78957211948E+01 -0.76735169649E+02  0.38866365166E+03  0.39624495302E+03  0.00000000000E+00 0.  1.
         12    1    5    5    0    0  0.44322799118E+02 -0.23222187593E+02  0.13110618263E+03  0.14033036607E+03  0.00000000000E+00 0. -1.
         11    1    3    3    0    0 -0.13443140792E+03 -0.40277321198E+02 -0.44304652188E+03  0.46474109630E+03  0.00000000000E+00 0. -1.
        -12    1    3    3    0    0  0.67070805881E+01  0.48743705147E+01 -0.91810292519E+02  0.92183915248E+02  0.00000000000E+00 0.  1.
          5    1    4    4  501    0  0.11069060327E+03  0.84889460716E+02 -0.25642898670E+02  0.14189313178E+03  0.41800000000E+01 0. -1.
         -5    1    4    4    0  501 -0.19393353868E+02  0.50470847209E+02  0.33882449453E+02  0.63944517929E+02  0.41800000000E+01 0. -1.
</event>
<event>
11    1  0.6625361E-009  0.1450249E+03  0.7561462E-02  0.1102073E+00
         22   -1    0    0    0    0  0.00000000000E+00  0.00000000000E+00  0.93324747517E+03  0.93324747517E+03  0.00000000000E+00 0. -1.
         22   -1    0    0    0    0 -0.00000000000E+00 -0.00000000000E+00 -0.70168834531E+02  0.70168834531E+02  0.00000000000E+00 0.  1.
         24    2    1    2    0    0  0.67830387946E+02 -0.20172313621E+02  0.58695860160E+01  0.10643448855E+03  0.79284074996E+02 0.  0.
         25    2    1    2    0    0 -0.10742038806E+03 -0.15273947014E+02  0.55847007809E+03  0.58250305601E+03  0.12509416018E+03 0.  0.
        -24    2    1    2    0    0  0.39590000118E+02  0.35446260635E+02  0.29873897653E+03  0.31447876514E+03  0.82632391468E+02 0.  0.
        -13    1    3    3    0    0  0.38052180158E+02 -0.22345271577E+02 -0.34647483258E+02  0.56104613649E+02  0.00000000000E+00 0.  1.
         14    1    3    3    0    0  0.29778207788E+02  0.21729579561E+01  0.40517069274E+02  0.50329874905E+02  0.00000000000E+00 0. -1.
         13    1    5    5    0    0  0.53660593222E+02  0.12336872870E+02  0.26769662166E+03  0.27330045544E+03  0.00000000000E+00 0. -1.
        -14    1    5    5    0    0 -0.14070593105E+02  0.23109387766E+02  0.31042354874E+02  0.41178309695E+02  0.00000000000E+00 0.  1.
          5    1    4    4  501    0 -0.70959342268E+02  0.33927651593E+02  0.45832496754E+03  0.46504361308E+03  0.41800000000E+01 0. -1.
         -5    1    4    4    0  501 -0.36461045796E+02 -0.49201598607E+02  0.10014511055E+03  0.11745944293E+03  0.41800000000E+01 0. -1.
</event>
<event>
11    1  0.6625361E-009  0.1439134E+03  0.7561462E-02  0.1103265E+00
         22   -1    0    0    0    0  0.00000000000E+00  0.00000000000E+00  0.84821524885E+03  0.84821524885E+03  0.00000000000E+00 0. -1.
         22   -1    0    0    0    0 -0.00000000000E+00 -0.00000000000E+00 -0.24344513280E+03  0.24344513280E+03  0.00000000000E+00 0.  1.
         24    2    1    2    0    0  0.29875736610E+02 -0.60808661546E+01 -0.17974544124E+03  0.19904496236E+03  0.79880766307E+02 0.  0.
         25    2    1    2    0    0  0.41372936411E+02  0.22708461406E+02  0.39211916202E+02  0.13934487112E+03  0.12510805189E+03 0.  0.
        -24    2    1    2    0    0 -0.71248673021E+02 -0.16627595251E+02  0.74530364109E+03  0.75327054817E+03  0.81155104585E+02 0.  0.
        -11    1    3    3    0    0  0.52462614475E+02 -0.15187778809E+02 -0.15493226963E+03  0.16427721301E+03  0.00000000000E+00 0.  1.
         12    1    3    3    0    0 -0.22586877865E+02  0.91069126545E+01 -0.24813171609E+02  0.34767749353E+02  0.00000000000E+00 0. -1.
         11    1    5    5    0    0 -0.88996470247E+02 -0.76683135260E+01  0.59985155317E+03  0.60646604241E+03  0.00000000000E+00 0. -1.
        -12    1    5    5    0    0  0.17747797226E+02 -0.89592817254E+01  0.14545208791E+03  0.14680450577E+03  0.00000000000E+00 0.  1.
          5    1    4    4  501    0 -0.11926085721E+02  0.32056281306E+02 -0.33868372976E+02  0.48315378295E+02  0.41800000000E+01 0. -1.
         -5    1    4    4    0  501  0.53299022132E+02 -0.93478198996E+01  0.73080289178E+02  0.91029492822E+02  0.41800000000E+01 0. -1.
</event>
<event>
11    1  0.6625361E-009  0.1516267E+03  0.7561462E-02  0.1095228E+00
         22   -1    0    0    0    0  0.00000000000E+00  0.00000000000E+00  0.34102600142E+03  0.34102600142E+03  0.00000000000E+00 0.  1.
         22   -1    0    0    0    0 -0.00000000000E+00 -0.00000000000E+00 -0.55184561327E+03  0.55184561327E+03  0.00000000000E+00 0.  1.
        -24    2    1    2    0    0 -0.23832430993E+02  0.77600136042E+02 -0.36614317925E+03  0.38376248040E+03  0.81382109615E+02 0.  0.
         25    2    1    2    0    0  0.41948924162E+02 -0.98446300330E+02 -0.12558802073E+03  0.20705471804E+03  0.12509164249E+03 0.  0.
         24    2    1    2    0    0 -0.18116493170E+02  0.20846164288E+02  0.28091158814E+03  0.30205441626E+03  0.10753036846E+03 0.  0.
        -11    1    5    5    0    0 -0.34424687964E+02  0.36882381416E+02  0.27334732880E+03  0.27796426274E+03  0.00000000000E+00 0.  1.
         12    1    5    5    0    0  0.16308194794E+02 -0.16036217127E+02  0.75642593437E+01  0.24090153520E+02  0.00000000000E+00 0. -1.
         11    1    3    3    0    0  0.17688417006E+02 -0.82894864724E+01 -0.64453771074E+02  0.67348973918E+02  0.00000000000E+00 0. -1.
        -12    1    3    3    0    0 -0.41520847999E+02  0.85889622514E+02 -0.30168940818E+03  0.31641350648E+03  0.00000000000E+00 0.  1.
          5    1    4    4  501    0  0.74213486072E+02 -0.17323315664E+02 -0.69327689547E+02  0.10310935805E+03  0.41800000000E+01 0.  1.
         -5    1    4    4    0  501 -0.32264561909E+02 -0.81122984666E+02 -0.56260331186E+02  0.10394535998E+03  0.41800000000E+01 0.  1.
</event>
<event>
11    1  0.6625361E-009  0.1455638E+03  0.7561462E-02  0.1101500E+00
         22   -1    0    0    0    0  0.00000000000E+00  0.00000000000E+00  0.85581868542E+03  0.85581868542E+03  0.00000000000E+00 0. -1.
         22   -1    0    0    0    0 -0.00000000000E+00 -0.00000000000E+00 -0.16100209614E+04  0.16100209614E+04  0.00000000000E+00 0. -1.
        -24    2    1    2    0    0 -0.29721422499E+02  0.67474097781E+02 -0.15384480512E+04  0.15424311523E+04  0.82676093770E+02 0.  0.
         25    2    1    2    0    0  0.38941297817E+01 -0.12535120880E+03  0.51671849342E+02  0.18451447094E+03  0.12509004828E+03 0.  0.
         24    2    1    2    0    0  0.25827292718E+02  0.57877111014E+02  0.73257392587E+03  0.73889402361E+03  0.72684332717E+02 0.  0.
        -13    1    5    5    0    0  0.47957784096E+02  0.26110830494E+02  0.51656521933E+03  0.51944330812E+03  0.00000000000E+00 0.  1.
         14    1    5    5    0    0 -0.22130491378E+02  0.31766280520E+02  0.21600870654E+03  0.21945071549E+03  0.00000000000E+00 0. -1.
         11    1    3    3    0    0 -0.46667222053E+02  0.77950174087E+02 -0.12580244902E+04  0.12613007878E+04  0.00000000000E+00 0. -1.
        -12    1    3    3    0    0  0.16945799553E+02 -0.10476076306E+02 -0.28042356100E+03  0.28113036454E+03  0.00000000000E+00 0.  1.
          5    1    4    4  501    0  0.49048578860E+02 -0.28779663590E+02  0.52954320479E+02  0.77818150723E+02  0.41800000000E+01 0.  1.
         -5    1    4    4    0  501 -0.45154449078E+02 -0.96571545206E+02 -0.12824711373E+01  0.10669632021E+03  0.41800000000E+01 0.  1.
</event>
<event>
11    1  0.6625361E-009  0.1285957E+03  0.7561462E-02  0.1121007E+00
         22   -1    0    0    0    0  0.00000000000E+00  0.00000000000E+00  0.26022533654E+03  0.26022533654E+03  0.00000000000E+00 0. -1.
         22   -1    0    0    0    0 -0.00000000000E+00 -0.00000000000E+00 -0.49722797280E+03  0.49722797280E+03  0.00000000000E+00 0.  1.
        -24    2    1    2    0    0  0.31365361990E+01  0.30986862674E+02 -0.28391214699E+03  0.29685000708E+03  0.80893732618E+02 0.  0.
         25    2    1    2    0    0 -0.13903183583E+02 -0.23800190900E+02 -0.17934659472E+03  0.22039214678E+03  0.12509096580E+03 0.  0.
         24    2    1    2    0    0  0.10766647384E+02 -0.71866717736E+01  0.22625610545E+03  0.24021115547E+03  0.79636706427E+02 0.  0.
        -13    1    5    5    0    0 -0.13726646167E+02 -0.14551967700E+02  0.98485451451E+01  0.22297408379E+02  0.00000000000E+00 0.  1.
         14    1    5    5    0    0  0.24493293552E+02  0.73652959259E+01  0.21640756031E+03  0.21791374709E+03  0.00000000000E+00 0. -1.
         13    1    3    3    0    0 -0.42297617625E+01  0.30532862928E+02 -0.30612079879E+02  0.43442445116E+02  0.00000000000E+00 0. -1.
        -14    1    3    3    0    0  0.73662979615E+01  0.45399974555E+00 -0.25330006712E+03  0.25340756197E+03  0.00000000000E+00 0.  1.
          5    1    4    4  501    0  0.32473874296E+02 -0.32805359127E+01  0.10837460595E+01  0.32923568051E+02  0.41800000000E+01 0.  1.
         -5    1    4    4    0  501 -0.46377057880E+02 -0.20519654988E+02 -0.18043034078E+03  0.18746857873E+03  0.41800000000E+01 0.  1.
</event>
<event>
11    1  0.6625361E-009  0.1524701E+03  0.7561462E-02  0.1094381E+00
         22   -1    0    0    0    0  0.00000000000E+00  0.00000000000E+00  0.32885583355E+03  0.32885583355E+03  0.00000000000E+00 0. -1.
         22   -1    0    0    0    0 -0.00000000000E+00 -0.00000000000E+00 -0.10610000108E+04  0.10610000108E+04  0.00000000000E+00 0. -1.
        -24    2    1    2    0    0  0.61380345826E+02 -0.48056190342E+02 -0.72701314966E+03  0.73560704832E+03  0.80577077844E+02 0.  0.
         25    2    1    2    0    0 -0.11011584583E+03  0.10788818382E+03 -0.28835002366E+03  0.35008364602E+03  0.12508982114E+03 0.  0.
         24    2    1    2    0    0  0.48735500001E+02 -0.59831993474E+02  0.28321899604E+03  0.30416515005E+03  0.79676987796E+02 0.  0.
        -13    1    5    5    0    0  0.15180156351E+02  0.16816204354E+02  0.30761321763E+02  0.38203151602E+02  0.00000000000E+00 0.  1.
         14    1    5    5    0    0  0.33555343650E+02 -0.76648197828E+02  0.25245767427E+03  0.26596199845E+03  0.00000000000E+00 0. -1.
         13    1    3    3    0    0  0.80419519705E+02 -0.37390382119E+02 -0.62696268017E+03  0.63320418678E+03  0.00000000000E+00 0. -1.
        -14    1    3    3    0    0 -0.19039173879E+02 -0.10665808222E+02 -0.10005046949E+03  0.10240286155E+03  0.00000000000E+00 0.  1.
          5    1    4    4  501    0 -0.84028283921E+02 -0.19670301973E+01 -0.10296933328E+03  0.13298412576E+03  0.41800000000E+01 0. -1.
         -5    1    4    4    0  501 -0.26087561906E+02  0.10985521401E+03 -0.18538069038E+03  0.21709952026E+03  0.41800000000E+01 0. -1.
</event>
<event>
11    1  0.6625361E-009  0.1392802E+03  0.7561462E-02  0.1108365E+00
         22   -1    0    0    0    0  0.00000000000E+00  0.00000000000E+00  0.14890113746E+03  0.14890113746E+03  0.00000000000E+00 0. -1.
         22   -1    0    0    0    0 -0.00000000000E+00 -0.00000000000E+00 -0.56868025295E+03  0.56868025295E+03  0.00000000000E+00 0.  1.
        -24    2    1    2    0    0 -0.33408375484E+02  0.48100706299E+02 -0.39126426748E+03  0.40372099840E+03  0.80455702374E+02 0.  0.
         25    2    1    2    0    0  0.15781657903E+02 -0.81071318220E+02 -0.11866758437E+03  0.19118165965E+03  0.12508721774E+03 0.  0.
         24    2    1    2    0    0  0.17626717581E+02  0.32970611921E+02  0.90152736357E+02  0.12267873235E+03  0.74328951802E+02 0.  0.
        -13    1    5    5    0    0  0.44829416393E+02  0.70287219934E+01  0.44693466183E+02  0.63691329288E+02  0.00000000000E+00 0.  1.
         14    1    5    5    0    0 -0.27202698812E+02  0.25941889927E+02  0.45459270174E+02  0.58987403066E+02  0.00000000000E+00 0. -1.
         11    1    3    3    0    0 -0.12199896321E+02 -0.21062982963E+02 -0.62080872060E+02  0.66682241993E+02  0.00000000000E+00 0. -1.
        -12    1    3    3    0    0 -0.21208479163E+02  0.69163689262E+02 -0.32918339542E+03  0.33703875640E+03  0.00000000000E+00 0.  1.
          5    1    4    4  501    0 -0.13393255207E+02  0.30157013587E+02 -0.38841592759E+02  0.51136742970E+02  0.41800000000E+01 0. -1.
         -5    1    4    4    0  501  0.29174913111E+02 -0.11122833181E+03 -0.79825991614E+02  0.14004491668E+03  0.41800000000E+01 0. -1.
</event>
<event>
11    1  0.6625361E-009  0.1831070E+03  0.7561462E-02  0.1067157E+00
         22   -1    0    0    0    0  0.00000000000E+00  0.00000000000E+00  0.17163554348E+04  0.17163554348E+04  0.00000000000E+00 0.  1.
         22   -1    0    0    0    0 -0.00000000000E+00 -0.00000000000E+00 -0.51576945853E+03  0.51576945853E+03  0.00000000000E+00 0. -1.
         24    2    1    2    0    0 -0.84389974590E+02 -0.10237163909E+03 -0.44476175141E+03  0.46991836003E+03  0.73543383652E+02 0.  0.
         25    2    1    2    0    0  0.95867774943E+02  0.11194057951E+03  0.10549060535E+03  0.22021723424E+03  0.12508412699E+03 0.  0.
        -24    2    1    2    0    0 -0.11477800352E+02 -0.95689404204E+01  0.15398571224E+04  0.15419892991E+04  0.79672684869E+02 0.  0.
        -13    1    3    3    0    0 -0.22886648125E+02  0.43094538056E+01 -0.34892062531E+02  0.41950281074E+02  0.00000000000E+00 0.  1.
         14    1    3    3    0    0 -0.61503326466E+02 -0.10668109290E+03 -0.40986968888E+03  0.42796807896E+03  0.00000000000E+00 0. -1.
         13    1    5    5    0    0 -0.18530276437E+02 -0.65788564396E+01  0.90483928867E+02  0.92595863191E+02  0.00000000000E+00 0. -1.
        -14    1    5    5    0    0  0.70524760842E+01 -0.29900839808E+01  0.14493731935E+04  0.14493934359E+04  0.00000000000E+00 0.  1.
          5    1    4    4  501    0  0.16237594620E+01  0.91442851760E+02  0.76818530056E+02  0.11951146678E+03  0.41800000000E+01 0. -1.
         -5    1    4    4    0  501  0.94244015481E+02  0.20497727753E+02  0.28672075291E+02  0.10070576745E+03  0.41800000000E+01 0. -1.
</event>
<event>
11    1  0.6625361E-009  0.1318156E+03  0.7561462E-02  0.1117058E+00
         22   -1    0    0    0    0  0.00000000000E+00  0.00000000000E+00  0.11889337240E+04  0.11889337240E+04  0.00000000000E+00 0.  1.
         22   -1    0    0    0    0 -0.00000000000E+00 -0.00000000000E+00 -0.73221562500E+03  0.73221562500E+03  0.00000000000E+00 0.  1.
         24    2    1    2    0    0 -0.58629960043E+02  0.12437069271E+02 -0.67410996047E+03  0.68133139466E+03  0.78715167709E+02 0.  0.
         25    2    1    2    0    0  0.28742286424E+02 -0.43086987343E+02  0.35531710580E+02  0.13998461695E+03  0.12510229022E+03 0.  0.
        -24    2    1    2    0    0  0.29887673619E+02  0.30649918072E+02  0.10952963489E+04  0.10998333374E+04  0.90147587980E+02 0.  0.
        -13    1    3    3    0    0 -0.76348464439E+02  0.15707655045E+02 -0.60101207595E+03  0.60604565330E+03  0.00000000000E+00 0.  1.
         14    1    3    3    0    0  0.17718504396E+02 -0.32705857740E+01 -0.73097884528E+02  0.75285741358E+02  0.00000000000E+00 0. -1.
         13    1    5    5    0    0  0.50872875227E+02  0.20260615339E+02  0.35785953986E+03  0.36202485031E+03  0.00000000000E+00 0. -1.
        -14    1    5    5    0    0 -0.20985201608E+02  0.10389302733E+02  0.73743680906E+03  0.73780848711E+03  0.00000000000E+00 0.  1.
          5    1    4    4  501    0  0.32502588283E+02  0.14933583950E+02  0.65269279971E+02  0.74545164046E+02  0.41800000000E+01 0. -1.
         -5    1    4    4    0  501 -0.37603018597E+01 -0.58020571293E+02 -0.29737569391E+02  0.65439452905E+02  0.41800000000E+01 0. -1.
</event>
<event>
11    1  0.6625361E-009  0.1343868E+03  0.7561462E-02  0.1113994E+00
         22   -1    0    0    0    0  0.00000000000E+00  0.00000000000E+00  0.44568970905E+03  0.44568970905E+03  0.00000000000E+00 0.  1.
         22   -1    0    0    0    0 -0.00000000000E+00 -0.00000000000E+00 -0.41871054840E+03  0.41871054840E+03  0.00000000000E+00 0.  1.
         24    2    1    2    0    0  0.47702084772E+02  0.10554159840E+01 -0.32742126696E+03  0.34045043443E+03  0.80157404227E+02 0.  0.
         25    2    1    2    0    0 -0.60984847600E+02 -0.40953457356E+02 -0.12717772950E+02  0.14562462663E+03  0.12509377612E+03 0.  0.
        -24    2    1    2    0    0  0.13282762828E+02  0.39898041372E+02  0.36711820055E+03  0.37832519640E+03  0.81153530793E+02 0.  0.
        -13    1    3    3    0    0 -0.13016201019E+02  0.12857702377E+02 -0.17503995888E+03  0.17599354876E+03  0.00000000000E+00 0.  1.
         14    1    3    3    0    0  0.60718285791E+02 -0.11802286393E+02 -0.15238130807E+03  0.16445688567E+03  0.00000000000E+00 0. -1.
         13    1    5    5    0    0 -0.92561978331E+01  0.25056124467E+02  0.30159282659E+02  0.40287329301E+02  0.00000000000E+00 0. -1.
        -14    1    5    5    0    0  0.22538960661E+02  0.14841916905E+02  0.33695891789E+03  0.33803786710E+03  0.00000000000E+00 0.  1.
          5    1    4    4  501    0 -0.10966693478E+02  0.44428278572E+02 -0.61952879476E+01  0.46368030964E+02  0.41800000000E+01 0. -1.
         -5    1    4    4    0  501 -0.50018154122E+02 -0.85381735929E+02 -0.65224850028E+01  0.99256595663E+02  0.41800000000E+01 0. -1.
</event>
<event>
11    1  0.6625361E-009  0.1764682E+03  0.7561462E-02  0.1072536E+00
         22   -1    0    0    0    0  0.00000000000E+00  0.00000000000E+00  0.10272485716E+03  0.10272485716E+03  0.00000000000E+00 0.  1.
         22   -1    0    0    0    0 -0.00000000000E+00 -0.00000000000E+00 -0.35620310321E+04  0.35620310321E+04  0.00000000000E+00 0.  1.
        -24    2    1    2    0    0 -0.12423379008E+03  0.55744748615E+02 -0.25568073887E+04  0.25616911696E+04  0.80349947816E+02 0.  0.
         25    2    1    2    0    0  0.96708298324E+02 -0.10820283268E+02 -0.96940569601E+03  0.98227571376E+03  0.12509436793E+03 0.  0.
         24    2    1    2    0    0  0.27525491753E+02 -0.44924465347E+02  0.66906909782E+02  0.12078900585E+03  0.85659728430E+02 0.  0.
        -11    1    5    5    0    0 -0.24007196251E+02 -0.42652372118E+02  0.30909435055E+02  0.57887507241E+02  0.00000000000E+00 0.  1.
         12    1    5    5    0    0  0.51532688004E+02 -0.22720932290E+01  0.35997474728E+02  0.62901498610E+02  0.00000000000E+00 0. -1.
         13    1    3    3    0    0 -0.68122551077E+02 -0.10751375775E+02 -0.13428435775E+04  0.13446133822E+04  0.00000000000E+00 0. -1.
        -14    1    3    3    0    0 -0.56111239000E+02  0.66496124390E+02 -0.12139638112E+04  0.12170777874E+04  0.00000000000E+00 0.  1.
          5    1    4    4  501    0  0.57613217735E+02  0.55911942026E+02 -0.53777987753E+03  0.54375554912E+03  0.41800000000E+01 0. -1.
         -5    1    4    4    0  501  0.39095080589E+02 -0.66732225294E+02 -0.43162581848E+03  0.43852016464E+03  0.41800000000E+01 0. -1.
</event>
<event>
11    1  0.6625361E-009  0.1311204E+03  0.7561462E-02  0.1117900E+00
         22   -1    0    0    0    0  0.00000000000E+00  0.00000000000E+00  0.98273435503E+03  0.98273435503E+03  0.00000000000E+00 0.  1.
         22   -1    0    0    0    0 -0.00000000000E+00 -0.00000000000E+00 -0.13998873050E+03  0.13998873050E+03  0.00000000000E+00 0. -1.
        -24    2    1    2    0    0 -0.35858969107E+02  0.23788453523E+02 -0.66126928089E+02  0.11335594274E+03  0.81394366813E+02 0.  0.
         25    2    1    2    0    0  0.28864021883E+01 -0.37235122982E+02  0.39594693018E+02  0.13642397928E+03  0.12509587006E+03 0.  0.
         24    2    1    2    0    0  0.32972566919E+02  0.13446669458E+02  0.86927785960E+03  0.87294316352E+03  0.71538566246E+02 0.  0.
        -13    1    5    5    0    0  0.47318621189E+02  0.30821884338E+02  0.67650869194E+03  0.67886158437E+03  0.00000000000E+00 0.  1.
         14    1    5    5    0    0 -0.14346054270E+02 -0.17375214879E+02  0.19276916766E+03  0.19408157915E+03  0.00000000000E+00 0. -1.
         11    1    3    3    0    0 -0.53953549946E+02  0.18504999069E+02 -0.15166170142E+02  0.59020617237E+02  0.00000000000E+00 0. -1.
        -12    1    3    3    0    0  0.18094580838E+02  0.52834544546E+01 -0.50960757948E+02  0.54335325501E+02  0.00000000000E+00 0.  1.
          5    1    4    4  501    0  0.23012017373E+02  0.27518468988E+02  0.55905070730E+02  0.66555754164E+02  0.41800000000E+01 0. -1.
         -5    1    4    4    0  501 -0.20125615185E+02 -0.64753591970E+02 -0.16310377712E+02  0.69868225114E+02  0.41800000000E+01 0. -1.
</event>
<event>
11    1  0.6625361E-009  0.1709989E+03  0.7561462E-02  0.1077166E+00
         22   -1    0    0    0    0  0.00000000000E+00  0.00000000000E+00  0.71021227877E+03  0.71021227877E+03  0.00000000000E+00 0. -1.
         22   -1    0    0    0    0 -0.00000000000E+00 -0.00000000000E+00 -0.11647154529E+04  0.11647154529E+04  0.00000000000E+00 0. -1.
         24    2    1    2    0    0 -0.48353237079E+02 -0.69393995023E+02 -0.97329983143E+03  0.98019397389E+03  0.79461327070E+02 0.  0.
         25    2    1    2    0    0  0.87276711375E+02  0.17573325363E+03 -0.10517936190E+03  0.25536056092E+03  0.12508763778E+03 0.  0.
        -24    2    1    2    0    0 -0.38923474296E+02 -0.10633925860E+03  0.62397601922E+03  0.63937319685E+03  0.81418287388E+02 0.  0.
        -11    1    3    3    0    0 -0.16527934618E+02  0.72202093340E+01 -0.49625346183E+02  0.52801316549E+02  0.00000000000E+00 0.  1.
         12    1    3    3    0    0 -0.31825302461E+02 -0.76614204357E+02 -0.92367448525E+03  0.92739265734E+03  0.00000000000E+00 0. -1.
         11    1    5    5    0    0 -0.63289719313E+02 -0.74178986542E+02  0.48258964852E+03  0.49234223816E+03  0.00000000000E+00 0. -1.
        -12    1    5    5    0    0  0.24366245017E+02 -0.32160272063E+02  0.14138637070E+03  0.14703095870E+03  0.00000000000E+00 0.  1.
          5    1    4    4  501    0  0.44614317165E+02  0.18350691572E+03 -0.80979095058E+02  0.20552447944E+03  0.41800000000E+01 0.  1.
         -5    1    4    4    0  501  0.42662394210E+02 -0.77736620912E+01 -0.24200266841E+02  0.49836081479E+02  0.41800000000E+01 0.  1.
</event>
<event>
11    1  0.6625361E-009  0.1290180E+03  0.7561462E-02  0.1120481E+00
         22   -1    0    0    0    0  0.00000000000E+00  0.00000000000E+00  0.14628142073E+03  0.14628142073E+03  0.00000000000E+00 0.  1.
         22   -1    0    0    0    0 -0.00000000000E+00 -0.00000000000E+00 -0.20196025834E+04  0.20196025834E+04  0.00000000000E+00 0.  1.
        -24    2    1    2    0    0 -0.67918527740E+01 -0.30985690994E+02 -0.17401555638E+04  0.17423292850E+04  0.81016718926E+02 0.  0.
         25    2    1    2    0    0  0.14196936052E+02  0.27210236192E+02 -0.24983559849E+03  0.28108281898E+03  0.12509106643E+03 0.  0.
         24    2    1    2    0    0 -0.74050832784E+01  0.37754548019E+01  0.11666999969E+03  0.14247190011E+03  0.81346568316E+02 0.  0.
        -11    1    5    5    0    0  0.10987514850E+02 -0.28951049279E+02  0.93172943429E+02  0.98183940256E+02  0.00000000000E+00 0.  1.
         12    1    5    5    0    0 -0.18392598129E+02  0.32726504081E+02  0.23497056259E+02  0.44287959855E+02  0.00000000000E+00 0. -1.
         13    1    3    3    0    0 -0.17790120381E+02 -0.91687559925E+01 -0.99554780319E+02  0.10154658416E+03  0.00000000000E+00 0. -1.
        -14    1    3    3    0    0  0.10998267607E+02 -0.21816935001E+02 -0.16406007835E+04  0.16407827008E+04  0.00000000000E+00 0.  1.
          5    1    4    4  501    0  0.52624373720E+02  0.25782632825E+02 -0.23044157910E+03  0.23781266292E+03  0.41800000000E+01 0.  1.
         -5    1    4    4    0  501 -0.38427437668E+02  0.14276033674E+01 -0.19394019393E+02  0.43270156058E+02  0.41800000000E+01 0.  1.
</event>
<event>
11    1  0.6625361E-009  0.1583389E+03  0.7561462E-02  0.1088650E+00
         22   -1    0    0    0    0  0.00000000000E+00  0.00000000000E+00  0.19310488914E+04  0.19310488914E+04  0.00000000000E+00 0.  1.
         22   -1    0    0    0    0 -0.00000000000E+00 -0.00000000000E+00 -0.86544424371E+02  0.86544424371E+02  0.00000000000E+00 0. -1.
        -24    2    1    2    0    0 -0.26771046947E+02  0.90605143844E+02  0.46752514426E+02  0.13223830460E+03  0.79844790390E+02 0.  0.
         25    2    1    2    0    0 -0.32547775801E+01 -0.10460042223E+03  0.11327457288E+03  0.19860443443E+03  0.12514292071E+03 0.  0.
         24    2    1    2    0    0  0.30025824527E+02  0.13995278391E+02  0.16844773797E+04  0.16867505768E+04  0.81031150855E+02 0.  0.
        -13    1    5    5    0    0 -0.79547397875E+01  0.26396560280E+02  0.12816880899E+04  0.12819845616E+04  0.00000000000E+00 0.  1.
         14    1    5    5    0    0  0.37980564314E+02 -0.12401281890E+02  0.40278928985E+03  0.40476601521E+03  0.00000000000E+00 0. -1.
         13    1    3    3    0    0 -0.83195734216E+01  0.80547756951E+02 -0.41768568551E-02  0.80976271025E+02  0.00000000000E+00 0. -1.
        -14    1    3    3    0    0 -0.18451473525E+02  0.10057386893E+02  0.46756691283E+02  0.51262033574E+02  0.00000000000E+00 0.  1.
          5    1    4    4  501    0  0.27867323224E+02 -0.11318141548E+03  0.11775840928E+03  0.16574418804E+03  0.41800000000E+01 0. -1.
         -5    1    4    4    0  501 -0.31122100804E+02  0.85809932459E+01 -0.44838363970E+01  0.32860246383E+02  0.41800000000E+01 0. -1.
</event>
<event>
11    1  0.6625361E-009  0.1559474E+03  0.7561462E-02  0.1090952E+00
         22   -1    0    0    0    0  0.00000000000E+00  0.00000000000E+00  0.10845744920E+04  0.10845744920E+04  0.00000000000E+00 0.  1.
         22   -1    0    0    0    0 -0.00000000000E+00 -0.00000000000E+00 -0.11570604842E+03  0.11570604842E+03  0.00000000000E+00 0.  1.
         24    2    1    2    0    0 -0.99069118677E+01  0.85013280183E+02 -0.39998734618E+02  0.12388341905E+03  0.80136121902E+02 0.  0.
         25    2    1    2    0    0  0.34444119983E+01 -0.15169414485E+03  0.29347338331E+03  0.35326711787E+03  0.12509217521E+03 0.  0.
        -24    2    1    2    0    0  0.64624998695E+01  0.66680864672E+02  0.71539379489E+03  0.72313000351E+03  0.81489990711E+02 0.  0.
        -11    1    3    3    0    0 -0.22857184786E+02  0.96729138040E+02 -0.30307284694E+02  0.10391106076E+03  0.00000000000E+00 0.  1.
         12    1    3    3    0    0  0.12950272919E+02 -0.11715857857E+02 -0.96914499244E+01  0.19972358289E+02  0.00000000000E+00 0. -1.
         11    1    5    5    0    0 -0.80552061919E+01  0.14469430241E+02  0.21574890315E+02  0.27197916288E+02  0.00000000000E+00 0. -1.
        -12    1    5    5    0    0  0.14517706061E+02  0.52211434431E+02  0.69381890457E+03  0.69593208722E+03  0.00000000000E+00 0.  1.
          5    1    4    4  501    0  0.59796871483E+02 -0.44159222422E+02  0.97119615681E+02  0.12237399607E+03  0.41800000000E+01 0. -1.
         -5    1    4    4    0  501 -0.56352459485E+02 -0.10753492243E+03  0.19635376763E+03  0.23089312180E+03  0.41800000000E+01 0. -1.
</event>
<event>
11    1  0.6625361E-009  0.1588076E+03  0.7561462E-02  0.1088204E+00
         22   -1    0    0    0    0  0.00000000000E+00  0.00000000000E+00  0.27984844586E+04  0.27984844586E+04  0.00000000000E+00 0. -1.
         22   -1    0    0    0    0 -0.00000000000E+00 -0.00000000000E+00 -0.19937047886E+03  0.19937047886E+03  0.00000000000E+00 0. -1.
        -24    2    1    2    0    0  0.27371897084E+02 -0.92394516749E+02 -0.16029709108E+03  0.20373380949E+03  0.80785767588E+02 0.  0.
         25    2    1    2    0    0 -0.49441126053E+02  0.12324163230E+03  0.48896753445E+03  0.52188981777E+03  0.12508719866E+03 0.  0.
         24    2    1    2    0    0  0.22069228970E+02 -0.30847115549E+02  0.22704435364E+04  0.22722313102E+04  0.81747659424E+02 0.  0.
        -13    1    5    5    0    0 -0.23037316259E+02 -0.23864891422E+02  0.45218295531E+03  0.45339792242E+03  0.00000000000E+00 0.  1.
         14    1    5    5    0    0  0.45106545228E+02 -0.69822241268E+01  0.18182605811E+04  0.18188333878E+04  0.00000000000E+00 0. -1.
         11    1    3    3    0    0  0.55817996190E+02 -0.70061816802E+02 -0.11484879714E+03  0.14565216469E+03  0.00000000000E+00 0. -1.
        -12    1    3    3    0    0 -0.28446099106E+02 -0.22332699947E+02 -0.45448293939E+02  0.58081644805E+02  0.00000000000E+00 0.  1.
          5    1    4    4  501    0 -0.50505149789E+02  0.14690601715E+03  0.38509177508E+03  0.41526533164E+03  0.41800000000E+01 0. -1.
         -5    1    4    4    0  501  0.10640237354E+01 -0.23664384856E+02  0.10387575937E+03  0.10662448613E+03  0.41800000000E+01 0. -1.
</event>
<event>
11    1  0.6625361E-009  0.1341451E+03  0.7561462E-02  0.1114278E+00
         22   -1    0    0    0    0  0.00000000000E+00  0.00000000000E+00  0.68901171870E+02  0.68901171870E+02  0.00000000000E+00 0. -1.
         22   -1    0    0    0    0 -0.00000000000E+00 -0.00000000000E+00 -0.10195826458E+04  0.10195826458E+04  0.00000000000E+00 0.  1.
         24    2    1    2    0    0 -0.17180798209E+02  0.51774215692E+02 -0.48985969489E+03  0.49976464056E+03  0.82622188496E+02 0.  0.
         25    2    1    2    0    0  0.26753485397E+02 -0.29745908666E+02 -0.48315872915E+03  0.50069111826E+03  0.12509464530E+03 0.  0.
        -24    2    1    2    0    0 -0.95726871880E+01 -0.22028307026E+02  0.22336950150E+02  0.88028058822E+02  0.81689149509E+02 0.  0.
        -11    1    3    3    0    0 -0.18885372449E+02  0.61421083603E+01 -0.38353612337E+03  0.38404991956E+03  0.00000000000E+00 0.  1.
         12    1    3    3    0    0  0.17045742398E+01  0.45632107332E+02 -0.10632357153E+03  0.11571472100E+03  0.00000000000E+00 0. -1.
         13    1    5    5    0    0  0.28488632919E+02  0.14782868651E+02  0.10513958332E+02  0.33773935674E+02  0.00000000000E+00 0. -1.
        -14    1    5    5    0    0 -0.38061320107E+02 -0.36811175677E+02  0.11822991818E+02  0.54254123147E+02  0.00000000000E+00 0.  1.
          5    1    4    4  501    0  0.67483416539E+02  0.10791256121E+02 -0.19089894732E+03  0.20280617151E+03  0.41800000000E+01 0. -1.
         -5    1    4    4    0  501 -0.40729931142E+02 -0.40537164787E+02 -0.29225978183E+03  0.29788494674E+03  0.41800000000E+01 0. -1.
</event>
<event>
11    1  0.6625361E-009  0.1691847E+03  0.7561462E-02  0.1078743E+00
         22   -1    0    0    0    0  0.00000000000E+00  0.00000000000E+00  0.14372306480E+04  0.14372306480E+04  0.00000000000E+00 0. -1.
         22   -1    0    0    0    0 -0.00000000000E+00 -0.00000000000E+00 -0.69379684316E+03  0.69379684316E+03  0.00000000000E+00 0. -1.
        -24    2    1    2    0    0 -0.76434745134E+02 -0.14143492945E+02 -0.67079858725E+03  0.68007981639E+03  0.80594685578E+02 0.  0.
         25    2    1    2    0    0  0.73548865403E+02 -0.10215122385E+03  0.66347800309E+03  0.68680052187E+03  0.12509031983E+03 0.  0.
         24    2    1    2    0    0  0.28858797306E+01  0.11629471679E+03  0.75075438897E+03  0.76414715287E+03  0.82194459822E+02 0.  0.
        -11    1    5    5    0    0  0.24819018061E+02  0.78794801251E+02  0.63777656696E+03  0.64310462114E+03  0.00000000000E+00 0.  1.
         12    1    5    5    0    0 -0.21933138330E+02  0.37499915543E+02  0.11297782201E+03  0.12104253174E+03  0.00000000000E+00 0. -1.
         13    1    3    3    0    0 -0.91412511672E+02 -0.17359721452E+02 -0.62234589108E+03  0.62926307325E+03  0.00000000000E+00 0. -1.
        -14    1    3    3    0    0  0.14977766538E+02  0.32162285071E+01 -0.48452696174E+02  0.50816743135E+02  0.00000000000E+00 0.  1.
          5    1    4    4  501    0  0.98188150255E+02 -0.35766934272E+02  0.44372150625E+03  0.45587984595E+03  0.41800000000E+01 0.  1.
         -5    1    4    4    0  501 -0.24639284852E+02 -0.66384289577E+02  0.21975649685E+03  0.23092067592E+03  0.41800000000E+01 0.  1.
</event>
<event>
11    1  0.6625361E-009  0.1881746E+03  0.7561462E-02  0.1063216E+00
         22   -1    0    0    0    0  0.00000000000E+00  0.00000000000E+00  0.35975708270E+04  0.35975708270E+04  0.00000000000E+00 0.  1.
         22   -1    0    0    0    0 -0.00000000000E+00 -0.00000000000E+00 -0.25055033205E+03  0.25055033205E+03  0.00000000000E+00 0. -1.
         24    2    1    2    0    0 -0.15330488879E+03 -0.17191562663E+02 -0.18009473488E+03  0.25037702195E+03  0.80352976534E+02 0.  0.
         25    2    1    2    0    0  0.79167557551E+02 -0.25331030828E+02  0.13003317552E+03  0.19865721289E+03  0.12508756215E+03 0.  0.
        -24    2    1    2    0    0  0.74137331235E+02  0.42522593491E+02  0.33970820543E+04  0.33990869242E+04  0.79504212423E+02 0.  0.
        -11    1    3    3    0    0 -0.16741661132E+02 -0.14070086717E+02 -0.74727593063E+02  0.77861824552E+02  0.00000000000E+00 0.  1.
         12    1    3    3    0    0 -0.13656322765E+03 -0.31214759459E+01 -0.10536714182E+03  0.17251519740E+03  0.00000000000E+00 0. -1.
         13    1    5    5    0    0  0.58222869797E+01  0.33471196073E+02  0.48447010021E+03  0.48565985833E+03  0.00000000000E+00 0. -1.
        -14    1    5    5    0    0  0.68315044255E+02  0.90513974172E+01  0.29126119541E+04  0.29134270658E+04  0.00000000000E+00 0.  1.
          5    1    4    4  501    0  0.64367574434E+02  0.31647874046E+02  0.21299652667E+02  0.74939443379E+02  0.41800000000E+01 0. -1.
         -5    1    4    4    0  501  0.14799983117E+02 -0.56978904874E+02  0.10873352285E+03  0.12371776951E+03  0.41800000000E+01 0. -1.
</event>
<event>
11    1  0.6625361E-009  0.1765799E+03  0.7561462E-02  0.1072443E+00
         22   -1    0    0    0    0  0.00000000000E+00  0.00000000000E+00  0.25662831872E+03  0.25662831872E+03  0.00000000000E+00 0.  1.
         22   -1    0    0    0    0 -0.00000000000E+00 -0.00000000000E+00 -0.20897852485E+04  0.20897852485E+04  0.00000000000E+00 0. -1.
        -24    2    1    2    0    0  0.18398389585E+02  0.13560601877E+03 -0.15844908482E+04  0.15924717590E+04  0.81409838965E+02 0.  0.
         25    2    1    2    0    0 -0.64725918769E+02 -0.74131231856E+02 -0.47558691177E+03  0.50151329364E+03  0.12509112260E+03 0.  0.
         24    2    1    2    0    0  0.46327529185E+02 -0.61474786919E+02  0.22692083026E+03  0.25242851458E+03  0.79383262594E+02 0.  0.
        -13    1    5    5    0    0  0.29634970371E+02 -0.78162675764E+02  0.19914826263E+03  0.21598070715E+03  0.00000000000E+00 0.  1.
         14    1    5    5    0    0  0.16692558814E+02  0.16687888846E+02  0.27772567635E+02  0.36447807437E+02  0.00000000000E+00 0. -1.
         13    1    3    3    0    0  0.14746233658E+02  0.10097484902E+03 -0.71085825804E+03  0.71814541324E+03  0.00000000000E+00 0. -1.
        -14    1    3    3    0    0  0.36521559262E+01  0.34631169756E+02 -0.87363259021E+03  0.87432634573E+03  0.00000000000E+00 0.  1.
          5    1    4    4  501    0 -0.98894316487E+02 -0.73019993763E+02 -0.33813381360E+03  0.35981099708E+03  0.41800000000E+01 0. -1.
         -5    1    4    4    0  501  0.34168397718E+02 -0.11112380928E+01 -0.13745309817E+03  0.14170229656E+03  0.41800000000E+01 0. -1.
</event>
<event>
11    1  0.6625361E-009  0.2386436E+03  0.7561462E-02  0.1030129E+00
         22   -1    0    0    0    0  0.00000000000E+00  0.00000000000E+00  0.71718548240E+03  0.71718548240E+03  0.00000000000E+00 0.  1.
         22   -1    0    0    0    0 -0.00000000000E+00 -0.00000000000E+00 -0.56343935779E+03  0.56343935779E+03  0.00000000000E+00 0. -1.
         24    2    1    2    0    0  0.49464974944E+02  0.18053901686E+03 -0.34194918286E+03  0.39851757958E+03  0.82739937254E+02 0.  0.
         25    2    1    2    0    0 -0.97162217505E+02 -0.25428807016E+03 -0.67027308066E+02  0.30699249818E+03  0.12509522284E+03 0.  0.
        -24    2    1    2    0    0  0.47697242561E+02  0.73749053303E+02  0.56272261554E+03  0.57511476243E+03  0.79914317361E+02 0.  0.
        -13    1    3    3    0    0 -0.11289233524E+02  0.37814744161E+02 -0.28156338916E+02  0.48478666346E+02  0.00000000000E+00 0.  1.
         14    1    3    3    0    0  0.60754208468E+02  0.14272427269E+03 -0.31379284395E+03  0.35003891323E+03  0.00000000000E+00 0. -1.
         13    1    5    5    0    0  0.16167106851E+02  0.11740392596E+02  0.21159798044E+02  0.29102391921E+02  0.00000000000E+00 0. -1.
        -14    1    5    5    0    0  0.31530135710E+02  0.62008660707E+02  0.54156281749E+03  0.54601237051E+03  0.00000000000E+00 0.  1.
          5    1    4    4  501    0 -0.19176682181E+02 -0.19745207390E+03 -0.69853136312E+02  0.21036159269E+03  0.41800000000E+01 0.  1.
         -5    1    4    4    0  501 -0.77985535323E+02 -0.56835996259E+02  0.28258282460E+01  0.96630905490E+02  0.41800000000E+01 0.  1.
</event>
<event>
11    1  0.6625361E-009  0.2893761E+03  0.7561462E-02  0.1004790E+00
         22   -1    0    0    0    0  0.00000000000E+00  0.00000000000E+00  0.83266553232E+03  0.83266553232E+03  0.00000000000E+00 0. -1.
         22   -1    0    0    0    0 -0.00000000000E+00 -0.00000000000E+00 -0.99806510756E+03  0.99806510756E+03  0.00000000000E+00 0.  1.
        -24    2    1    2    0    0 -0.68185691031E+02  0.90445511537E+02 -0.81664369299E+03  0.82813097413E+03  0.77873679690E+02 0.  0.
         25    2    1    2    0    0 -0.15913521676E+02  0.17420896967E+03 -0.69915437764E+02  0.22613483872E+03  0.12508713586E+03 0.  0.
         24    2    1    2    0    0  0.84099212707E+02 -0.26465448121E+03  0.72115955552E+03  0.77646482703E+03  0.75576789477E+02 0.  0.
        -13    1    5    5    0    0 -0.24806623565E+00 -0.17565235942E+02  0.13432591089E+02  0.22114103054E+02  0.00000000000E+00 0.  1.
         14    1    5    5    0    0  0.84347278943E+02 -0.24708924527E+03  0.70772696443E+03  0.75435072398E+03  0.00000000000E+00 0. -1.
         13    1    3    3    0    0  0.29710386597E+00 -0.12015201180E+02 -0.39887273974E+02  0.41658708035E+02  0.00000000000E+00 0. -1.
        -14    1    3    3    0    0 -0.68482794897E+02  0.10246071272E+03 -0.77675641902E+03  0.78647226609E+03  0.00000000000E+00 0.  1.
          5    1    4    4  501    0  0.29178429358E+02  0.64434112105E+02 -0.80109561525E+02  0.10694928607E+03  0.41800000000E+01 0.  1.
         -5    1    4    4    0  501 -0.45091951034E+02  0.10977485756E+03  0.10194123761E+02  0.11918555265E+03  0.41800000000E+01 0.  1.
</event>
<event>
11    1  0.6625361E-009  0.1383173E+03  0.7561462E-02  0.1109452E+00
         22   -1    0    0    0    0  0.00000000000E+00  0.00000000000E+00  0.14493871145E+04  0.14493871145E+04  0.00000000000E+00 0.  1.
         22   -1    0    0    0    0 -0.00000000000E+00 -0.00000000000E+00 -0.93817010820E+02  0.93817010820E+02  0.00000000000E+00 0.  1.
        -24    2    1    2    0    0 -0.44140812227E+02  0.20705208072E+01 -0.16834615767E+02  0.92258093065E+02  0.79217757401E+02 0.  0.
         25    2    1    2    0    0  0.95850177524E+02 -0.26099637946E+02  0.13337800436E+03  0.20810427213E+03  0.12509695599E+03 0.  0.
         24    2    1    2    0    0 -0.51709365297E+02  0.24029117138E+02  0.12390267151E+04  0.12428417602E+04  0.78849115971E+02 0.  0.
        -13    1    5    5    0    0 -0.57599370181E+02  0.38538116675E+02  0.11704513874E+04  0.11725013110E+04  0.00000000000E+00 0.  1.
         14    1    5    5    0    0  0.58900048838E+01 -0.14508999537E+02  0.68575327700E+02  0.70340449205E+02  0.00000000000E+00 0. -1.
         13    1    3    3    0    0  0.14342995106E+02 -0.16610660817E+02  0.11344718713E+02  0.24705023863E+02  0.00000000000E+00 0. -1.
        -14    1    3    3    0    0 -0.58483807333E+02  0.18681181624E+02 -0.28179334479E+02  0.67553069203E+02  0.00000000000E+00 0.  1.
          5    1    4    4  501    0  0.12465531867E+03 -0.74955477086E+01  0.99597438447E+02  0.15978815304E+03  0.41800000000E+01 0.  1.
         -5    1    4    4    0  501 -0.28805141145E+02 -0.18604090237E+02  0.33780565914E+02  0.48316119084E+02  0.41800000000E+01 0.  1.
</event>
<event>
11    1  0.6625361E-009  0.2370276E+03  0.7561462E-02  0.1031046E+00
         22   -1    0    0    0    0  0.00000000000E+00  0.00000000000E+00  0.29083246571E+03  0.29083246571E+03  0.00000000000E+00 0.  1.
         22   -1    0    0    0    0 -0.00000000000E+00 -0.00000000000E+00 -0.31052869110E+04  0.31052869110E+04  0.00000000000E+00 0.  1.
        -24    2    1    2    0    0  0.18764969602E+03 -0.63727515753E+02 -0.23199036102E+04  0.23296768969E+04  0.78537115438E+02 0.  0.
         25    2    1    2    0    0 -0.19051709578E+03  0.10373297849E+03 -0.75335481783E+03  0.79388205753E+03  0.12509174678E+03 0.  0.
         24    2    1    2    0    0  0.28673997599E+01 -0.40005462738E+02  0.25880398276E+03  0.27256042228E+03  0.75505120824E+02 0.  0.
        -13    1    5    5    0    0  0.22313677288E+01 -0.62681799180E+02  0.19545569172E+03  0.20527278040E+03  0.00000000000E+00 0.  1.
         14    1    5    5    0    0  0.63603203110E+00  0.22676336441E+02  0.63348291050E+02  0.67287641882E+02  0.00000000000E+00 0. -1.
         11    1    3    3    0    0  0.11463123158E+02  0.18147626152E+01 -0.49113701778E+03  0.49127412591E+03  0.00000000000E+00 0. -1.
        -12    1    3    3    0    0  0.17618657286E+03 -0.65542278368E+02 -0.18287665924E+04  0.18384027709E+04  0.00000000000E+00 0.  1.
          5    1    4    4  501    0  0.13112976774E+02  0.35792539821E+01 -0.12474523758E+03  0.12555320751E+03  0.41800000000E+01 0. -1.
         -5    1    4    4    0  501 -0.20363007256E+03  0.10015372451E+03 -0.62860958025E+03  0.66832885002E+03  0.41800000000E+01 0. -1.
</event>
<event>
11    1  0.6625361E-009  0.1562982E+03  0.7561462E-02  0.1090612E+00
         22   -1    0    0    0    0  0.00000000000E+00  0.00000000000E+00  0.18460692162E+03  0.18460692162E+03  0.00000000000E+00 0.  1.
         22   -1    0    0    0    0 -0.00000000000E+00 -0.00000000000E+00 -0.75441247153E+03  0.75441247153E+03  0.00000000000E+00 0. -1.
        -24    2    1    2    0    0  0.87283999338E+02 -0.29746251014E+02 -0.63863294931E+03  0.65029386559E+03  0.80788190307E+02 0.  0.
         25    2    1    2    0    0 -0.10488354315E+03  0.43930310392E+02 -0.15767606744E+02  0.16978417163E+03  0.12509043816E+03 0.  0.
         24    2    1    2    0    0  0.17599543813E+02 -0.14184059378E+02  0.84595006142E+02  0.11894135593E+03  0.80497202459E+02 0.  0.
        -11    1    5    5    0    0  0.18779493525E+02 -0.47001282915E+02  0.47701799564E+02  0.69550353373E+02  0.00000000000E+00 0.  1.
         12    1    5    5    0    0 -0.11799497121E+01  0.32817223537E+02  0.36893206578E+02  0.49391002558E+02  0.00000000000E+00 0. -1.
         11    1    3    3    0    0  0.40378049009E+02 -0.52694564120E+02 -0.27326457685E+03  0.28121278934E+03  0.00000000000E+00 0. -1.
        -12    1    3    3    0    0  0.46905950330E+02  0.22948313107E+02 -0.36536837246E+03  0.36908107625E+03  0.00000000000E+00 0.  1.
          5    1    4    4  501    0 -0.94999156512E+02  0.26445641994E+02 -0.63819785879E+02  0.11753573579E+03  0.41800000000E+01 0.  1.
         -5    1    4    4    0  501 -0.98843866400E+01  0.17484668397E+02  0.48052179135E+02  0.52248435841E+02  0.41800000000E+01 0.  1.
</event>
<event>
11    1  0.6625361E-009  0.1424560E+03  0.7561462E-02  0.1104846E+00
         22   -1    0    0    0    0  0.00000000000E+00  0.00000000000E+00  0.61720416009E+03  0.61720416009E+03  0.00000000000E+00 0.  1.
         22   -1    0    0    0    0 -0.00000000000E+00 -0.00000000000E+00 -0.18442592399E+04  0.18442592399E+04  0.00000000000E+00 0. -1.
         24    2    1    2    0    0 -0.95148191330E+00 -0.40313865753E+02 -0.13182288392E+04  0.13212797825E+04  0.80167812868E+02 0.  0.
         25    2    1    2    0    0  0.50938770815E+02  0.86301496191E+02 -0.50747950618E+03  0.53218819077E+03  0.12508442982E+03 0.  0.
        -24    2    1    2    0    0 -0.49987288901E+02 -0.45987630438E+02  0.59865326551E+03  0.60799542672E+03  0.81603403068E+02 0.  0.
        -11    1    3    3    0    0 -0.36398802249E+02 -0.10682777202E+02 -0.37337295704E+03  0.37529503005E+03  0.00000000000E+00 0.  1.
         12    1    3    3    0    0  0.35447320335E+02 -0.29631088551E+02 -0.94485588212E+03  0.94598475247E+03  0.00000000000E+00 0. -1.
         13    1    5    5    0    0 -0.20083483477E+02 -0.17979618890E+02  0.42451282187E+02  0.50286423251E+02  0.00000000000E+00 0. -1.
        -14    1    5    5    0    0 -0.29903805424E+02 -0.28008011548E+02  0.55620198333E+03  0.55770900346E+03  0.00000000000E+00 0.  1.
          5    1    4    4  501    0 -0.62936523184E+01  0.74287225020E+01 -0.32587437898E+03  0.32604659062E+03  0.41800000000E+01 0.  1.
         -5    1    4    4    0  501  0.57232423133E+02  0.78872773689E+02 -0.18160512720E+03  0.20614160015E+03  0.41800000000E+01 0.  1.
</event>
<event>
11    1  0.6625361E-009  0.1635171E+03  0.7561462E-02  0.1083815E+00
         22   -1    0    0    0    0  0.00000000000E+00  0.00000000000E+00  0.18456586267E+04  0.18456586267E+04  0.00000000000E+00 0.  1.
         22   -1    0    0    0    0 -0.00000000000E+00 -0.00000000000E+00 -0.14898978626E+04  0.14898978626E+04  0.00000000000E+00 0.  1.
        -24    2    1    2    0    0 -0.13398242052E+02 -0.96077155208E+01 -0.14761830580E+04  0.14784636151E+04  0.80414049576E+02 0.  0.
         25    2    1    2    0    0 -0.39939484339E+02 -0.86590370272E+02  0.71032232236E+03  0.72752855492E+03  0.12508773700E+03 0.  0.
         24    2    1    2    0    0  0.53337726391E+02  0.96198085793E+02  0.11216214998E+04  0.11295643193E+04  0.76038003726E+02 0.  0.
        -13    1    5    5    0    0  0.51144966709E+02  0.67309055848E+02  0.10301839148E+04  0.10336465619E+04  0.00000000000E+00 0.  1.
         14    1    5    5    0    0  0.21927596821E+01  0.28889029944E+02  0.91437584911E+02  0.95917757378E+02  0.00000000000E+00 0. -1.
         11    1    3    3    0    0  0.27573106620E+02  0.30885646117E+01 -0.99096747123E+03  0.99135581124E+03  0.00000000000E+00 0. -1.
        -12    1    3    3    0    0 -0.40971348672E+02 -0.12696280133E+02 -0.48521558677E+03  0.48710780386E+03  0.00000000000E+00 0.  1.
          5    1    4    4  501    0 -0.19962470307E+02  0.30940754729E+02  0.20446728383E+03  0.20779839528E+03  0.41800000000E+01 0.  1.
         -5    1    4    4    0  501 -0.19977014032E+02 -0.11753112500E+03  0.50585503853E+03  0.51973015964E+03  0.41800000000E+01 0.  1.
</event>
<event>
11    1  0.6625361E-009  0.1377939E+03  0.7561462E-02  0.1110047E+00
         22   -1    0    0    0    0  0.00000000000E+00  0.00000000000E+00  0.10510336265E+03  0.10510336265E+03  0.00000000000E+00 0.  1.
         22   -1    0    0    0    0 -0.00000000000E+00 -0.00000000000E+00 -0.12669881967E+04  0.12669881967E+04  0.00000000000E+00 0. -1.
        -24    2    1    2    0    0 -0.10333403358E+02  0.31205568209E+02 -0.67923442973E+03  0.68486750745E+03  0.81262079186E+02 0.  0.
         25    2    1    2    0    0  0.32313364251E+02 -0.83040449492E+02 -0.54751571161E+03  0.56864650136E+03  0.12508205022E+03 0.  0.
         24    2    1    2    0    0 -0.21979960893E+02  0.51834881283E+02  0.64865307262E+02  0.11857755056E+03  0.81750558486E+02 0.  0.
        -13    1    5    5    0    0 -0.33449548174E+02  0.67959201001E+02  0.36730331898E+02  0.84181010656E+02  0.00000000000E+00 0.  1.
         14    1    5    5    0    0  0.11469587281E+02 -0.16124319718E+02  0.28134975364E+02  0.34396539906E+02  0.00000000000E+00 0. -1.
         13    1    3    3    0    0  0.25478783872E+02 -0.14607761497E+02 -0.21001319215E+03  0.21205682257E+03  0.00000000000E+00 0. -1.
        -14    1    3    3    0    0 -0.35812187230E+02  0.45813329706E+02 -0.46922123758E+03  0.47281068487E+03  0.00000000000E+00 0.  1.
          5    1    4    4  501    0  0.34337350589E+02  0.26220681049E+02 -0.18314600052E+03  0.18821930737E+03  0.41800000000E+01 0.  1.
         -5    1    4    4    0  501 -0.20239863379E+01 -0.10926113054E+03 -0.36436971109E+03  0.38042719399E+03  0.41800000000E+01 0.  1.
</event>
<event>
11    1  0.6625361E-009  0.1492341E+03  0.7561462E-02  0.1097664E+00
         22   -1    0    0    0    0  0.00000000000E+00  0.00000000000E+00  0.24919833798E+04  0.24919833798E+04  0.00000000000E+00 0. -1.
         22   -1    0    0    0    0 -0.00000000000E+00 -0.00000000000E+00 -0.22117560199E+03  0.22117560199E+03  0.00000000000E+00 0. -1.
        -24    2    1    2    0    0  0.68054785655E+02  0.68065935576E+01 -0.14340206585E+03  0.17951384036E+03  0.83566038704E+02 0.  0.
         25    2    1    2    0    0 -0.14673399328E+03  0.70393500647E+01  0.10110742534E+03  0.21783157399E+03  0.12508983145E+03 0.  0.
         24    2    1    2    0    0  0.78679207629E+02 -0.13845943622E+02  0.23131024184E+04  0.23158135675E+04  0.78533773868E+02 0.  0.
        -13    1    5    5    0    0  0.27222141828E+02 -0.11937637140E+02  0.21130295075E+03  0.21338343231E+03  0.00000000000E+00 0.  1.
         14    1    5    5    0    0  0.51457065801E+02 -0.19083064819E+01  0.21017994676E+04  0.21024301352E+04  0.00000000000E+00 0. -1.
         11    1    3    3    0    0  0.63335181648E+02 -0.75956245766E+01 -0.14998787977E+03  0.16298896535E+03  0.00000000000E+00 0. -1.
        -12    1    3    3    0    0  0.47196040073E+01  0.14402218134E+02  0.65858139210E+01  0.16524875012E+02  0.00000000000E+00 0.  1.
          5    1    4    4  501    0 -0.46867262899E+02 -0.49606497222E+02  0.72043082003E+02  0.99322821964E+02  0.41800000000E+01 0. -1.
         -5    1    4    4    0  501 -0.99866730385E+02  0.56645847287E+02  0.29064343339E+02  0.11850875202E+03  0.41800000000E+01 0. -1.
</event>
<event>
11    1  0.6625361E-009  0.1430140E+03  0.7561462E-02  0.1104239E+00
         22   -1    0    0    0    0  0.00000000000E+00  0.00000000000E+00  0.21452441395E+03  0.21452441395E+03  0.00000000000E+00 0.  1.
         22   -1    0    0    0    0 -0.00000000000E+00 -0.00000000000E+00 -0.50704030536E+03  0.50704030536E+03  0.00000000000E+00 0. -1.
        -24    2    1    2    0    0 -0.26148252026E+02  0.55621193560E+02 -0.26612319889E+03  0.28478080976E+03  0.80629426192E+02 0.  0.
         25    2    1    2    0    0  0.58624802093E+02 -0.74022412078E+02 -0.19265408881E+03  0.24835425438E+03  0.12509217731E+03 0.  0.
         24    2    1    2    0    0 -0.32476550067E+02  0.18401218517E+02  0.16626139628E+03  0.18842965516E+03  0.80433524746E+02 0.  0.
        -11    1    5    5    0    0 -0.38808246189E+02  0.45802083095E+02  0.10338923007E+03  0.11955435451E+03  0.00000000000E+00 0.  1.
         12    1    5    5    0    0  0.63316961218E+01 -0.27400864577E+02  0.62872166211E+02  0.68875300649E+02  0.00000000000E+00 0. -1.
         11    1    3    3    0    0  0.19001469331E+02  0.51653276265E+02 -0.12560729545E+03  0.13713609830E+03  0.00000000000E+00 0. -1.
        -12    1    3    3    0    0 -0.45149721357E+02  0.39679172956E+01 -0.14051590343E+03  0.14764471147E+03  0.00000000000E+00 0.  1.
          5    1    4    4  501    0  0.26522189356E+02 -0.98749751699E+02 -0.17750596897E+03  0.20489212139E+03  0.41800000000E+01 0.  1.
         -5    1    4    4    0  501  0.32102612737E+02  0.24727339621E+02 -0.15148119839E+02  0.43462132988E+02  0.41800000000E+01 0.  1.
</event>
<event>
11    1  0.6625361E-009  0.2425859E+03  0.7561462E-02  0.1027925E+00
         22   -1    0    0    0    0  0.00000000000E+00  0.00000000000E+00  0.85337995383E+03  0.85337995383E+03  0.00000000000E+00 0. -1.
         22   -1    0    0    0    0 -0.00000000000E+00 -0.00000000000E+00 -0.64077282494E+03  0.64077282494E+03  0.00000000000E+00 0. -1.
        -24    2    1    2    0    0  0.24987368883E+02 -0.19945279174E+03 -0.52286147940E+03  0.56621554127E+03  0.82523498437E+02 0.  0.
         25    2    1    2    0    0 -0.87351101152E+02  0.31494175553E+03  0.28427280027E+03  0.45086482896E+03  0.12509814053E+03 0.  0.
         24    2    1    2    0    0  0.62363732269E+02 -0.11548896380E+03  0.45119580802E+03  0.47707240855E+03  0.82422630186E+02 0.  0.
        -11    1    5    5    0    0  0.33608932643E+02 -0.64157060812E+02  0.11601605465E+03  0.13676773648E+03  0.00000000000E+00 0.  1.
         12    1    5    5    0    0  0.28754799627E+02 -0.51331902983E+02  0.33517975337E+03  0.34030467207E+03  0.00000000000E+00 0. -1.
         11    1    3    3    0    0  0.43676893182E+02 -0.18388342026E+03 -0.49107467098E+03  0.52618923946E+03  0.00000000000E+00 0. -1.
        -12    1    3    3    0    0 -0.18689524299E+02 -0.15569371476E+02 -0.31786808418E+02  0.40026301804E+02  0.00000000000E+00 0.  1.
          5    1    4    4  501    0 -0.33733881900E+02  0.61795031091E+02  0.13446007251E+03  0.15183406784E+03  0.41800000000E+01 0. -1.
         -5    1    4    4    0  501 -0.53617219252E+02  0.25314672444E+03  0.14981272776E+03  0.29903076112E+03  0.41800000000E+01 0. -1.
</event>
<event>
11    1  0.6625361E-009  0.1818754E+03  0.7561462E-02  0.1068136E+00
         22   -1    0    0    0    0  0.00000000000E+00  0.00000000000E+00  0.14057854376E+04  0.14057854376E+04  0.00000000000E+00 0.  1.
         22   -1    0    0    0    0 -0.00000000000E+00 -0.00000000000E+00 -0.18371537819E+03  0.18371537819E+03  0.00000000000E+00 0. -1.
        -24    2    1    2    0    0 -0.87738329315E+02  0.98828350898E+02 -0.10529290814E+03  0.18754598532E+03  0.81374705736E+02 0.  0.
         25    2    1    2    0    0  0.81574525452E+02 -0.10313861546E+03  0.19388476709E+03  0.26557572435E+03  0.12508870954E+03 0.  0.
         24    2    1    2    0    0  0.61638038625E+01  0.43102645633E+01  0.11334782004E+04  0.11363791061E+04  0.80796479175E+02 0.  0.
        -11    1    5    5    0    0  0.12966448626E+01 -0.63214905001E+01  0.11112004306E+04  0.11112191680E+04  0.00000000000E+00 0.  1.
         12    1    5    5    0    0  0.48671590000E+01  0.10631755063E+02  0.22277769856E+02  0.25159938041E+02  0.00000000000E+00 0. -1.
         13    1    3    3    0    0 -0.62176616646E+02  0.94829654246E+02 -0.11346369457E+03  0.16041385528E+03  0.00000000000E+00 0. -1.
        -14    1    3    3    0    0 -0.25561712669E+02  0.39986966517E+01  0.81707864293E+01  0.27132130037E+02  0.00000000000E+00 0.  1.
          5    1    4    4  501    0 -0.31933909877E+02 -0.38088467409E+02  0.64400772314E+02  0.81458196790E+02  0.41800000000E+01 0. -1.
         -5    1    4    4    0  501  0.11350843533E+03 -0.65050148052E+02  0.12948399478E+03  0.18411752756E+03  0.41800000000E+01 0. -1.
</event>
<event>
11    1  0.6625361E-009  0.1700856E+03  0.7561462E-02  0.1077957E+00
         22   -1    0    0    0    0  0.00000000000E+00  0.00000000000E+00  0.10672700565E+04  0.10672700565E+04  0.00000000000E+00 0.  1.
         22   -1    0    0    0    0 -0.00000000000E+00 -0.00000000000E+00 -0.25659756484E+03  0.25659756484E+03  0.00000000000E+00 0.  1.
         24    2    1    2    0    0 -0.90041787619E+02 -0.70533151078E+02 -0.20902201225E+03  0.25361144074E+03  0.86868362198E+02 0.  0.
         25    2    1    2    0    0  0.11330519804E+03  0.64643594113E+02  0.33420757237E+03  0.37994586781E+03  0.12508916369E+03 0.  0.
        -24    2    1    2    0    0 -0.23263410420E+02  0.58895569657E+01  0.68548693149E+03  0.69031031275E+03  0.77846782174E+02 0.  0.
        -11    1    3    3    0    0 -0.75395544495E+02 -0.15707364171E+02 -0.16396459653E+03  0.18115076134E+03  0.00000000000E+00 0.  1.
         12    1    3    3    0    0 -0.14646243124E+02 -0.54825786907E+02 -0.45057415715E+02  0.72460679396E+02  0.00000000000E+00 0. -1.
         13    1    5    5    0    0  0.15114140605E+02  0.28887994689E+02  0.40139156141E+03  0.40271347017E+03  0.00000000000E+00 0. -1.
        -14    1    5    5    0    0 -0.38377551025E+02 -0.22998437723E+02  0.28409537008E+03  0.28759684258E+03  0.00000000000E+00 0.  1.
          5    1    4    4  501    0  0.13374893078E+03  0.25337789571E+02  0.25526417589E+03  0.28932343831E+03  0.41800000000E+01 0. -1.
         -5    1    4    4    0  501 -0.20443732744E+02  0.39305804541E+02  0.78943396483E+02  0.90622429494E+02  0.41800000000E+01 0. -1.
</event>
<event>
11    1  0.6625361E-009  0.1264822E+03  0.7561462E-02  0.1123668E+00
         22   -1    0    0    0    0  0.00000000000E+00  0.00000000000E+00  0.78845050134E+02  0.78845050134E+02  0.00000000000E+00 0. -1.
         22   -1    0    0    0    0 -0.00000000000E+00 -0.00000000000E+00 -0.16052938962E+04  0.16052938962E+04  0.00000000000E+00 0.  1.
        -24    2    1    2    0    0  0.10192454977E+01 -0.16830636810E+01 -0.12381584725E+04  0.12408608839E+04  0.81825781019E+02 0.  0.
         25    2    1    2    0    0  0.17733154021E+02  0.26869251280E+01 -0.32783685610E+03  0.35134919607E+03  0.12509024358E+03 0.  0.
         24    2    1    2    0    0 -0.18752399519E+02 -0.10038614469E+01  0.39546482551E+02  0.91928866421E+02  0.80835214936E+02 0.  0.
        -11    1    5    5    0    0 -0.17833062428E+02 -0.39995698843E+02  0.24047157696E+02  0.49959381849E+02  0.00000000000E+00 0.  1.
         12    1    5    5    0    0 -0.91933709091E+00  0.38991837396E+02  0.15499324855E+02  0.41969484571E+02  0.00000000000E+00 0. -1.
         13    1    3    3    0    0 -0.31518458358E+02 -0.47350081003E+01 -0.23282921487E+03  0.23500058897E+03  0.00000000000E+00 0. -1.
        -14    1    3    3    0    0  0.32537703855E+02  0.30519444193E+01 -0.10053292577E+04  0.10058602949E+04  0.00000000000E+00 0.  1.
          5    1    4    4  501    0  0.38344881049E+02  0.51677580779E+02 -0.11408380829E+03  0.13104766297E+03  0.41800000000E+01 0.  1.
         -5    1    4    4    0  501 -0.20611727028E+02 -0.48990655651E+02 -0.21375304782E+03  0.22030153309E+03  0.41800000000E+01 0.  1.
</event>
<event>
11    1  0.6625361E-009  0.1719619E+03  0.7561462E-02  0.1076337E+00
         22   -1    0    0    0    0  0.00000000000E+00  0.00000000000E+00  0.69538381157E+03  0.69538381157E+03  0.00000000000E+00 0.  1.
         22   -1    0    0    0    0 -0.00000000000E+00 -0.00000000000E+00 -0.11836360564E+03  0.11836360564E+03  0.00000000000E+00 0. -1.
         24    2    1    2    0    0 -0.50072880937E+02  0.37636515073E+02  0.19119864668E+02  0.11110469858E+03  0.89749006396E+02 0.  0.
         25    2    1    2    0    0  0.10137493805E+03  0.70210699663E+02  0.61611253667E+02  0.18614498793E+03  0.12509032553E+03 0.  0.
        -24    2    1    2    0    0 -0.51302057117E+02 -0.10784721474E+03  0.49628908759E+03  0.51649773071E+03  0.78766265439E+02 0.  0.
        -13    1    3    3    0    0  0.14299882729E+02 -0.13443915261E+02  0.21214190382E+02  0.28900992668E+02  0.00000000000E+00 0.  1.
         14    1    3    3    0    0 -0.64372763666E+02  0.51080430335E+02 -0.20943257146E+01  0.82203705910E+02  0.00000000000E+00 0. -1.
         13    1    5    5    0    0 -0.40282164128E+02 -0.63829311861E+01  0.12916171643E+03  0.13544793667E+03  0.00000000000E+00 0. -1.
        -14    1    5    5    0    0 -0.11019892989E+02 -0.10146428355E+03  0.36712737116E+03  0.38104979403E+03  0.00000000000E+00 0.  1.
          5    1    4    4  501    0 -0.58945033197E+01 -0.28652340805E+02  0.13432229560E+02  0.32459189669E+02  0.41800000000E+01 0. -1.
         -5    1    4    4    0  501  0.10726944137E+03  0.98863040469E+02  0.48179024107E+02  0.15368579826E+03  0.41800000000E+01 0. -1.
</event>
<event>
11    1  0.6625361E-009  0.1421098E+03  0.7561462E-02  0.1105225E+00
         22   -1    0    0    0    0  0.00000000000E+00  0.00000000000E+00  0.65452515845E+02  0.65452515845E+02  0.00000000000E+00 0. -1.
         22   -1    0    0    0    0 -0.00000000000E+00 -0.00000000000E+00 -0.90049471896E+03  0.90049471896E+03  0.00000000000E+00 0. -1.
         24    2    1    2    0    0  0.39881112360E+02 -0.59231411622E+02 -0.60321671202E+03  0.61393431511E+03  0.89140778293E+02 0.  0.
         25    2    1    2    0    0 -0.48287093141E+02  0.30672446986E+02 -0.22807588444E+03  0.26634276881E+03  0.12508964411E+03 0.  0.
        -24    2    1    2    0    0  0.84059807810E+01  0.28558964636E+02 -0.37496066430E+01  0.85670150885E+02  0.80243630456E+02 0.  0.
        -13    1    3    3    0    0  0.58190540519E+01  0.14823412703E+02 -0.22735117832E+02  0.27757531177E+02  0.00000000000E+00 0.  1.
         14    1    3    3    0    0  0.34062058308E+02 -0.74054824325E+02 -0.58048159419E+03  0.58617678393E+03  0.00000000000E+00 0. -1.
         11    1    5    5    0    0  0.20648998582E+02 -0.76649344518E+01  0.28241795744E+02  0.35815239626E+02  0.00000000000E+00 0. -1.
        -12    1    5    5    0    0 -0.12243017801E+02  0.36223899088E+02 -0.31991402387E+02  0.49854911260E+02  0.00000000000E+00 0.  1.
          5    1    4    4  501    0 -0.63733255138E+02  0.65613963306E+01 -0.39123018999E+02  0.75186852227E+02  0.41800000000E+01 0. -1.
         -5    1    4    4    0  501  0.15446161997E+02  0.24111050655E+02 -0.18895286545E+03  0.19115591658E+03  0.41800000000E+01 0. -1.
</event>
<event>
11    1  0.9130123E-009  0.2196440E+03  0.7561462E-02  0.1041441E+00
         22   -1    0    0    0    0  0.00000000000E+00  0.00000000000E+00  0.62207937843E+03  0.62207937843E+03  0.00000000000E+00 0. -1.
         22   -1    0    0    0    0 -0.00000000000E+00 -0.00000000000E+00 -0.15860078921E+04  0.15860078921E+04  0.00000000000E+00 0.  1.
        -24    2    1    2    0    0 -0.67251314953E+02  0.24992337312E+01 -0.11565950131E+04  0.11613165100E+04  0.80093861063E+02 0.  0.
         25    2    1    2    0    0  0.10642479805E+03  0.17324219983E+03 -0.37584736789E+03  0.44525023826E+03  0.12508970095E+03 0.  0.
         24    2    1    2    0    0 -0.39173483101E+02 -0.17574143356E+03  0.56851386738E+03  0.60152052218E+03  0.78735684161E+02 0.  0.
        -13    1    5    5    0    0 -0.30925680361E+02 -0.13208072488E+02  0.10638424774E+03  0.11157266265E+03  0.00000000000E+00 0.  1.
         14    1    5    5    0    0 -0.82478027407E+01 -0.16253336107E+03  0.46212961964E+03  0.48994785953E+03  0.00000000000E+00 0. -1.
         11    1    3    3    0    0 -0.33176724653E+02  0.10330450698E+02 -0.10104585474E+04  0.10110558290E+04  0.00000000000E+00 0. -1.
        -12    1    3    3    0    0 -0.34074590300E+02 -0.78312169673E+01 -0.14613646572E+03  0.15026068107E+03  0.00000000000E+00 0.  1.
          5    1    4    4  501    0  0.38944794485E+02 -0.94391303925E+01 -0.97665769492E+02  0.10564974742E+03  0.41800000000E+01 0. -1.
         -5    1    4    4    0  501  0.67480003570E+02  0.18268133022E+03 -0.27818159839E+03  0.33960049084E+03  0.41800000000E+01 0. -1.
</event>
<event>
11    1  0.6625361E-009  0.1378785E+03  0.7561462E-02  0.1109951E+00
         22   -1    0    0    0    0  0.00000000000E+00  0.00000000000E+00  0.12853991444E+04  0.12853991444E+04  0.00000000000E+00 0.  1.
         22   -1    0    0    0    0 -0.00000000000E+00 -0.00000000000E+00 -0.22920295506E+03  0.22920295506E+03  0.00000000000E+00 0.  1.
         24    2    1    2    0    0  0.12916627085E+02 -0.91654431165E+01 -0.12573544122E+03  0.14777667273E+03  0.76011178253E+02 0.  0.
         25    2    1    2    0    0 -0.35288475911E+02  0.62347351041E+02 -0.32978175653E+02  0.14787715914E+03  0.12509046890E+03 0.  0.
        -24    2    1    2    0    0  0.22371848827E+02 -0.53181907924E+02  0.12149098062E+04  0.12189482676E+04  0.80623984538E+02 0.  0.
        -11    1    3    3    0    0  0.82618059891E+01  0.20734709120E+02 -0.11259574404E+03  0.11478670296E+03  0.00000000000E+00 0.  1.
         12    1    3    3    0    0  0.46548210954E+01 -0.29900152236E+02 -0.13139697186E+02  0.32989969768E+02  0.00000000000E+00 0. -1.
         13    1    5    5    0    0  0.57112979084E+01 -0.53112875537E+02  0.36627490772E+03  0.37014984060E+03  0.00000000000E+00 0. -1.
        -14    1    5    5    0    0  0.16660550918E+02 -0.69032386889E-01  0.84863489847E+03  0.84879842697E+03  0.00000000000E+00 0.  1.
          5    1    4    4  501    0 -0.89071111627E+01 -0.11249823278E+01  0.43704247226E+02  0.44812228690E+02  0.41800000000E+01 0. -1.
         -5    1    4    4    0  501 -0.26381364748E+02  0.63472333368E+02 -0.76682422879E+02  0.10306493045E+03  0.41800000000E+01 0. -1.
</event>
<event>
11    1  0.6625361E-009  0.1360041E+03  0.7561462E-02  0.1112104E+00
         22   -1    0    0    0    0  0.00000000000E+00  0.00000000000E+00  0.21287739501E+03  0.21287739501E+03  0.00000000000E+00 0. -1.
         22   -1    0    0    0    0 -0.00000000000E+00 -0.00000000000E+00 -0.51049999801E+03  0.51049999801E+03  0.00000000000E+00 0. -1.
        -24    2    1    2    0    0 -0.90129505374E+01  0.47531055235E+02 -0.39040814306E+03  0.40172524775E+03  0.81389323785E+02 0.  0.
         25    2    1    2    0    0 -0.22840593871E+02  0.23758383762E+01 -0.58801248522E+02  0.14011631122E+03  0.12509059320E+03 0.  0.
         24    2    1    2    0    0  0.31853544408E+02 -0.49906893611E+02  0.15158678858E+03  0.18153583404E+03  0.80444752763E+02 0.  0.
        -13    1    5    5    0    0  0.77112753281E+01  0.21973320495E+02  0.26665551617E+02  0.35402573689E+02  0.00000000000E+00 0.  1.
         14    1    5    5    0    0  0.24142269080E+02 -0.71880214106E+02  0.12492123696E+03  0.14613326035E+03  0.00000000000E+00 0. -1.
         11    1    3    3    0    0 -0.30127607702E+02  0.22860889476E+02 -0.33774350893E+03  0.33985433767E+03  0.00000000000E+00 0. -1.
        -12    1    3    3    0    0  0.21114657164E+02  0.24670165759E+02 -0.52664634132E+02  0.61870910079E+02  0.00000000000E+00 0.  1.
          5    1    4    4  501    0 -0.64925329285E+02  0.34883442555E+02 -0.35285478080E+02  0.81821087200E+02  0.41800000000E+01 0. -1.
         -5    1    4    4    0  501  0.42084735414E+02 -0.32507604179E+02 -0.23515770443E+02  0.58295224022E+02  0.41800000000E+01 0. -1.
</event>
<event>
11    1  0.6625361E-009  0.2138466E+03  0.7561462E-02  0.1045142E+00
         22   -1    0    0    0    0  0.00000000000E+00  0.00000000000E+00  0.17435566089E+03  0.17435566089E+03  0.00000000000E+00 0.  1.
         22   -1    0    0    0    0 -0.00000000000E+00 -0.00000000000E+00 -0.74015615993E+03  0.74015615993E+03  0.00000000000E+00 0. -1.
         24    2    1    2    0    0  0.23270989189E+02  0.11811338809E+03 -0.45488524951E+03  0.47673671596E+03  0.76583253628E+02 0.  0.
         25    2    1    2    0    0 -0.75602728690E+02  0.96033322531E+02 -0.10243798546E+03  0.20269033358E+03  0.12510658992E+03 0.  0.
        -24    2    1    2    0    0  0.52331739501E+02 -0.21414671062E+03 -0.84772640694E+01  0.23508477128E+03  0.81213059616E+02 0.  0.
        -11    1    3    3    0    0 -0.15480094099E+02 -0.36533991742E+00 -0.27684738289E+02  0.31720837327E+02  0.00000000000E+00 0.  1.
         12    1    3    3    0    0  0.38751083288E+02  0.11847872800E+03 -0.42720051122E+03  0.44501587863E+03  0.00000000000E+00 0. -1.
         13    1    5    5    0    0 -0.54044871919E+01 -0.13498269602E+03 -0.19476534287E+02  0.13648762616E+03  0.00000000000E+00 0. -1.
        -14    1    5    5    0    0  0.57736226693E+02 -0.79164014598E+02  0.10999270217E+02  0.98597145117E+02  0.00000000000E+00 0.  1.
          5    1    4    4  501    0 -0.43921318952E+02  0.27070977617E+02 -0.11457097234E+03  0.12572151841E+03  0.41800000000E+01 0. -1.
         -5    1    4    4    0  501 -0.31681409738E+02  0.68962344914E+02  0.12132986876E+02  0.76968815176E+02  0.41800000000E+01 0. -1.
</event>
<event>
11    1  0.8319782E-009  0.2008693E+03  0.7561462E-02  0.1053911E+00
         22   -1    0    0    0    0  0.00000000000E+00  0.00000000000E+00  0.85268444955E+03  0.85268444955E+03  0.00000000000E+00 0.  1.
         22   -1    0    0    0    0 -0.00000000000E+00 -0.00000000000E+00 -0.55991333275E+03  0.55991333275E+03  0.00000000000E+00 0.  1.
         24    2    1    2    0    0  0.79268733060E+02 -0.52426696184E+02 -0.43804137609E+03  0.45535101239E+03  0.80201039886E+02 0.  0.
         25    2    1    2    0    0 -0.79134571595E+02 -0.10950841782E+03 -0.19863542698E+02  0.18519867335E+03  0.12509841840E+03 0.  0.
        -24    2    1    2    0    0 -0.13416146510E+00  0.16193511400E+03  0.75067603558E+03  0.77204809657E+03  0.79503168896E+02 0.  0.
        -11    1    3    3    0    0  0.51311937812E+02 -0.51350810763E+02 -0.40756745051E+03  0.41398194097E+03  0.00000000000E+00 0.  1.
         12    1    3    3    0    0  0.27956795248E+02 -0.10758854207E+01 -0.30473925578E+02  0.41369071419E+02  0.00000000000E+00 0. -1.
         13    1    5    5    0    0  0.35109116829E+00  0.16654613927E+01  0.16016444901E+03  0.16017349266E+03  0.00000000000E+00 0. -1.
        -14    1    5    5    0    0 -0.48525263339E+00  0.16026965261E+03  0.59051158658E+03  0.61187460390E+03  0.00000000000E+00 0.  1.
          5    1    4    4  501    0 -0.98991944781E+02 -0.64193568572E+02 -0.48782572610E+02  0.12773970083E+03  0.41800000000E+01 0.  1.
         -5    1    4    4    0  501  0.19857373186E+02 -0.45314849243E+02  0.28919029912E+02  0.57458972518E+02  0.41800000000E+01 0.  1.
</event>
<event>
11    1  0.6625361E-009  0.1433750E+03  0.7561462E-02  0.1103847E+00
         22   -1    0    0    0    0  0.00000000000E+00  0.00000000000E+00  0.20572790573E+04  0.20572790573E+04  0.00000000000E+00 0.  1.
         22   -1    0    0    0    0 -0.00000000000E+00 -0.00000000000E+00 -0.10562127111E+03  0.10562127111E+03  0.00000000000E+00 0. -1.
        -24    2    1    2    0    0 -0.13592672679E+02  0.48838369925E+02 -0.68328511579E+02  0.11586234881E+03  0.78647004079E+02 0.  0.
         25    2    1    2    0    0 -0.12205491514E+02 -0.10818418074E+03  0.57435698318E+03  0.59781769010E+03  0.12508899024E+03 0.  0.
         24    2    1    2    0    0  0.25798164194E+02  0.59345810818E+02  0.14456293146E+04  0.14492202895E+04  0.78789985193E+02 0.  0.
        -13    1    5    5    0    0  0.14237646561E+02  0.74566101193E+02  0.13162012117E+04  0.13183885785E+04  0.00000000000E+00 0.  1.
         14    1    5    5    0    0  0.11560517633E+02 -0.15220290375E+02  0.12942810281E+03  0.13083171101E+03  0.00000000000E+00 0. -1.
         13    1    3    3    0    0 -0.18575733535E+02  0.13763345259E+02 -0.76149915269E+02  0.79582015208E+02  0.00000000000E+00 0. -1.
        -14    1    3    3    0    0  0.49830608554E+01  0.35075024666E+02  0.78214036906E+01  0.36280333606E+02  0.00000000000E+00 0.  1.
          5    1    4    4  501    0 -0.68461825070E+02 -0.52400807174E+02  0.28530036692E+03  0.29807153143E+03  0.41800000000E+01 0.  1.
         -5    1    4    4    0  501  0.56256333556E+02 -0.55783373569E+02  0.28905661627E+03  0.29974615867E+03  0.41800000000E+01 0.  1.
</event>
<event>
11    1  0.6625361E-009  0.1494177E+03  0.7561462E-02  0.1097475E+00
         22   -1    0    0    0    0  0.00000000000E+00  0.00000000000E+00  0.14693212854E+04  0.14693212854E+04  0.00000000000E+00 0.  1.
         22   -1    0    0    0    0 -0.00000000000E+00 -0.00000000000E+00 -0.17305110809E+03  0.17305110809E+03  0.00000000000E+00 0.  1.
         24    2    1    2    0    0 -0.65877287043E+02 -0.45752605894E+02 -0.12810461238E+03  0.17164859729E+03  0.81359273262E+02 0.  0.
         25    2    1    2    0    0  0.10298546557E+03  0.33603839786E+02  0.29853799491E+03  0.34132947857E+03  0.12508259018E+03 0.  0.
        -24    2    1    2    0    0 -0.37108178525E+02  0.12148766108E+02  0.11258367948E+04  0.11293943177E+04  0.80612820237E+02 0.  0.
        -11    1    3    3    0    0 -0.29985094413E+02 -0.61223119061E+02 -0.50774254292E+02  0.85002359340E+02  0.00000000000E+00 0.  1.
         12    1    3    3    0    0 -0.35892192629E+02  0.15470513167E+02 -0.77330358089E+02  0.86646237954E+02  0.00000000000E+00 0. -1.
         11    1    5    5    0    0 -0.50062761454E+01 -0.33317237954E+02  0.38658983534E+03  0.38805515321E+03  0.00000000000E+00 0. -1.
        -12    1    5    5    0    0 -0.32101902380E+02  0.45466004062E+02  0.73924695946E+03  0.74133916444E+03  0.00000000000E+00 0.  1.
          5    1    4    4  501    0  0.10831223668E+03  0.69351927131E+02  0.24225682821E+03  0.27431200051E+03  0.41800000000E+01 0.  1.
         -5    1    4    4    0  501 -0.53267711151E+01 -0.35748087345E+02  0.56281166703E+02  0.67017478054E+02  0.41800000000E+01 0.  1.
</event>
<event>
11    1  0.6625361E-009  0.2922456E+03  0.7561462E-02  0.1003528E+00
         22   -1    0    0    0    0  0.00000000000E+00  0.00000000000E+00  0.14704631381E+04  0.14704631381E+04  0.00000000000E+00 0. -1.
         22   -1    0    0    0    0 -0.00000000000E+00 -0.00000000000E+00 -0.92455004620E+03  0.92455004620E+03  0.00000000000E+00 0. -1.
         24    2    1    2    0    0  0.15497669445E+03 -0.24364107849E+03 -0.60531627272E+03  0.67467798581E+03  0.73510839747E+02 0.  0.
         25    2    1    2    0    0 -0.12578302082E+03  0.18427128990E+03 -0.22487688060E+03  0.34058032018E+03  0.12509223181E+03 0.  0.
        -24    2    1    2    0    0 -0.29193673629E+02  0.59369788588E+02  0.13761062453E+04  0.13797548783E+04  0.75353060181E+02 0.  0.
        -13    1    3    3    0    0 -0.19240672955E+00 -0.30951810041E+02 -0.10297648746E+03  0.10752771054E+03  0.00000000000E+00 0.  1.
         14    1    3    3    0    0  0.15516910118E+03 -0.21268926845E+03 -0.50233978527E+03  0.56715027527E+03  0.00000000000E+00 0. -1.
         13    1    5    5    0    0 -0.23315792146E+02  0.76660914716E+02  0.99981797926E+03  0.10030236855E+04  0.00000000000E+00 0. -1.
        -14    1    5    5    0    0 -0.58778814824E+01 -0.17291126128E+02  0.37628826601E+03  0.37673119285E+03  0.00000000000E+00 0.  1.
          5    1    4    4  501    0 -0.49037529597E+02 -0.61387075820E+01 -0.55208538870E+02  0.74214676473E+02  0.41800000000E+01 0.  1.
         -5    1    4    4    0  501 -0.76745491228E+02  0.19040999748E+03 -0.16966834173E+03  0.26636564371E+03  0.41800000000E+01 0.  1.
</event>
<event>
11    1  0.6625361E-009  0.1936019E+03  0.7561462E-02  0.1059143E+00
         22   -1    0    0    0    0  0.00000000000E+00  0.00000000000E+00  0.92820456054E+02  0.92820456054E+02  0.00000000000E+00 0. -1.
         22   -1    0    0    0    0 -0.00000000000E+00 -0.00000000000E+00 -0.31081162027E+04  0.31081162027E+04  0.00000000000E+00 0. -1.
         24    2    1    2    0    0  0.13017428901E+03 -0.69657384056E+02 -0.21453518559E+04  0.21518553579E+04  0.78418102405E+02 0.  0.
         25    2    1    2    0    0 -0.13756833914E+03  0.56528615203E+02 -0.92836711075E+03  0.94848997765E+03  0.12508882089E+03 0.  0.
        -24    2    1    2    0    0  0.73940501234E+01  0.13128768853E+02  0.58423220015E+02  0.10059132325E+03  0.80487919141E+02 0.  0.
        -13    1    3    3    0    0 -0.10474133402E+02 -0.22729027105E+01 -0.10241900979E+03  0.10297828472E+03  0.00000000000E+00 0.  1.
         14    1    3    3    0    0  0.14064842241E+03 -0.67384481345E+02 -0.20429328461E+04  0.20488770732E+04  0.00000000000E+00 0. -1.
         11    1    5    5    0    0  0.36913044296E+02  0.80583927704E+00  0.57813586564E+02  0.68597616632E+02  0.00000000000E+00 0. -1.
        -12    1    5    5    0    0 -0.29518994173E+02  0.12322929576E+02  0.60963345048E+00  0.31993706619E+02  0.00000000000E+00 0.  1.
          5    1    4    4  501    0 -0.72899276884E+02  0.15035655790E+02 -0.16271154311E+03  0.17897735660E+03  0.41800000000E+01 0. -1.
         -5    1    4    4    0  501 -0.64669062251E+02  0.41492959413E+02 -0.76565556763E+03  0.76951262104E+03  0.41800000000E+01 0. -1.
</event>
<event>
11    1  0.6625361E-009  0.1912949E+03  0.7561462E-02  0.1060856E+00
         22   -1    0    0    0    0  0.00000000000E+00  0.00000000000E+00  0.45041381830E+03  0.45041381830E+03  0.00000000000E+00 0. -1.
         22   -1    0    0    0    0 -0.00000000000E+00 -0.00000000000E+00 -0.25893800051E+04  0.25893800051E+04  0.00000000000E+00 0. -1.
        -24    2    1    2    0    0  0.12558063777E-01  0.37727769837E+01 -0.22437828005E+04  0.22451430781E+04  0.78050951654E+02 0.  0.
         25    2    1    2    0    0  0.12553799567E+03  0.68401116571E+02 -0.30120385495E+03  0.35610363537E+03  0.12509011063E+03 0.  0.
         24    2    1    2    0    0 -0.12555055373E+03 -0.72173893555E+02  0.40602046873E+03  0.43854710991E+03  0.80615966951E+02 0.  0.
        -13    1    5    5    0    0 -0.23855952128E+02  0.11675339003E+02  0.12982211644E+03  0.13251113881E+03  0.00000000000E+00 0.  1.
         14    1    5    5    0    0 -0.10169460161E+03 -0.83849232557E+02  0.27619835230E+03  0.30603597110E+03  0.00000000000E+00 0. -1.
         11    1    3    3    0    0  0.12326048237E+02  0.90651250849E+01 -0.21756897310E+04  0.21757435312E+04  0.00000000000E+00 0. -1.
        -12    1    3    3    0    0 -0.12313490173E+02 -0.52923481012E+01 -0.68093069540E+02  0.69399546887E+02  0.00000000000E+00 0.  1.
          5    1    4    4  501    0 -0.25069519874E+00  0.57181812643E+02 -0.13995862876E+03  0.15124719075E+03  0.41800000000E+01 0.  1.
         -5    1    4    4    0  501  0.12578869087E+03  0.11219303928E+02 -0.16124522620E+03  0.20485644462E+03  0.41800000000E+01 0.  1.
</event>
<event>
11    1  0.6625361E-009  0.3865642E+03  0.7561462E-02  0.9690254E-01
         22   -1    0    0    0    0  0.00000000000E+00  0.00000000000E+00  0.21616517821E+03  0.21616517821E+03  0.00000000000E+00 0. -1.
         22   -1    0    0    0    0 -0.00000000000E+00 -0.00000000000E+00 -0.72889908625E+03  0.72889908625E+03  0.00000000000E+00 0.  1.
         24    2    1    2    0    0  0.16759838711E+03  0.41513903399E+02 -0.43242805064E+03  0.47159430651E+03  0.74796707254E+02 0.  0.
         25    2    1    2    0    0  0.92585110871E+02 -0.45574387448E+02 -0.11600773332E+03  0.19938531815E+03  0.12509070051E+03 0.  0.
        -24    2    1    2    0    0 -0.26018349799E+03  0.40604840487E+01  0.35701875920E+02  0.27408463981E+03  0.78331511402E+02 0.  0.
        -11    1    3    3    0    0  0.11577545097E+03 -0.12310009744E+01 -0.32374498192E+03  0.34382594976E+03  0.00000000000E+00 0.  1.
         12    1    3    3    0    0  0.51822936148E+02  0.42744904374E+02 -0.10868306872E+03  0.12776835675E+03  0.00000000000E+00 0. -1.
         13    1    5    5    0    0 -0.15300516868E+03 -0.34768989893E+02  0.31344815990E+02  0.16000613048E+03  0.00000000000E+00 0. -1.
        -14    1    5    5    0    0 -0.10717832931E+03  0.38829473942E+02  0.43570599306E+01  0.11407850933E+03  0.00000000000E+00 0.  1.
          5    1    4    4  501    0  0.75869222796E+02 -0.40018241616E+02 -0.14304641158E+03  0.16684527831E+03  0.41800000000E+01 0. -1.
         -5    1    4    4    0  501  0.16715888074E+02 -0.55561458323E+01  0.27038678255E+02  0.32540039834E+02  0.41800000000E+01 0. -1.
</event>
<event>
11    1  0.6625361E-009  0.2362618E+03  0.7561462E-02  0.1031483E+00
         22   -1    0    0    0    0  0.00000000000E+00  0.00000000000E+00  0.19897977860E+04  0.19897977860E+04  0.00000000000E+00 0.  1.
         22   -1    0    0    0    0 -0.00000000000E+00 -0.00000000000E+00 -0.13492692204E+03  0.13492692204E+03  0.00000000000E+00 0. -1.
        -24    2    1    2    0    0  0.34306074300E+02 -0.94149930406E+01 -0.88723062702E+02  0.12615803535E+03  0.82331763004E+02 0.  0.
         25    2    1    2    0    0  0.18225952562E+03  0.35834226118E+02  0.98530736543E+03  0.10104347044E+04  0.12508021816E+03 0.  0.
         24    2    1    2    0    0 -0.21656559992E+03 -0.26419233078E+02  0.95828656122E+03  0.98813196833E+03  0.10243543558E+03 0.  0.
        -11    1    5    5    0    0 -0.10121695343E+03 -0.43751948607E+02  0.63371910214E+03  0.64324101633E+03  0.00000000000E+00 0.  1.
         12    1    5    5    0    0 -0.11534864649E+03  0.17332715529E+02  0.32456745908E+03  0.34489095200E+03  0.00000000000E+00 0. -1.
         11    1    3    3    0    0  0.13973722881E+02 -0.20962601814E+02 -0.97862019670E+02  0.10105281045E+03  0.00000000000E+00 0. -1.
        -12    1    3    3    0    0  0.20332351420E+02  0.11547608774E+02  0.91389569681E+01  0.25105224896E+02  0.00000000000E+00 0.  1.
          5    1    4    4  501    0  0.14729697932E+03  0.34902445880E+02  0.94434760231E+03  0.95641227890E+03  0.41800000000E+01 0. -1.
         -5    1    4    4    0  501  0.34962546301E+02  0.93178023875E+00  0.40959763122E+02  0.54022425466E+02  0.41800000000E+01 0. -1.
</event>
<event>
11    1  0.6625361E-009  0.1272222E+03  0.7561462E-02  0.1122730E+00
         22   -1    0    0    0    0  0.00000000000E+00  0.00000000000E+00  0.21061987894E+04  0.21061987894E+04  0.00000000000E+00 0.  1.
         22   -1    0    0    0    0 -0.00000000000E+00 -0.00000000000E+00 -0.12283694251E+04  0.12283694251E+04  0.00000000000E+00 0.  1.
         24    2    1    2    0    0 -0.17912125055E+02  0.22968847578E+02 -0.12148825270E+04  0.12178060934E+04  0.79143631685E+02 0.  0.
         25    2    1    2    0    0  0.15656754155E+02  0.22841681728E+01  0.35151796232E+03  0.37344461298E+03  0.12508257174E+03 0.  0.
        -24    2    1    2    0    0  0.22553708998E+01 -0.25253015751E+02  0.17411939290E+04  0.17433175081E+04  0.82199964897E+02 0.  0.
        -13    1    3    3    0    0 -0.18397325066E+02  0.37032382427E+02 -0.11708440824E+04  0.11715740370E+04  0.00000000000E+00 0.  1.
         14    1    3    3    0    0  0.48520001182E+00 -0.14063534849E+02 -0.44038444664E+02  0.46232056410E+02  0.00000000000E+00 0. -1.
         13    1    5    5    0    0  0.28024727479E+02 -0.21050539615E+02  0.32529343943E+03  0.32717630157E+03  0.00000000000E+00 0. -1.
        -14    1    5    5    0    0 -0.25769356579E+02 -0.42024761367E+01  0.14159004895E+04  0.14161412065E+04  0.00000000000E+00 0.  1.
          5    1    4    4  501    0 -0.27295492068E+02  0.48732429984E+02  0.22580610912E+03  0.23264944645E+03  0.41800000000E+01 0.  1.
         -5    1    4    4    0  501  0.42952246223E+02 -0.46448261811E+02  0.12571185320E+03  0.14079516652E+03  0.41800000000E+01 0.  1.
</event>
<event>
11    1  0.6625361E-009  0.1329020E+03  0.7561462E-02  0.1115754E+00
         22   -1    0    0    0    0  0.00000000000E+00  0.00000000000E+00  0.83001175991E+02  0.83001175991E+02  0.00000000000E+00 0.  1.
         22   -1    0    0    0    0 -0.00000000000E+00 -0.00000000000E+00 -0.65113776584E+03  0.65113776584E+03  0.00000000000E+00 0.  1.
         24    2    1    2    0    0  0.38416483457E+02  0.24872977137E+02 -0.49658093092E+03  0.50505651795E+03  0.79968582449E+02 0.  0.
         25    2    1    2    0    0 -0.18149558907E+02 -0.37858711768E+02 -0.64344322020E+02  0.14680332794E+03  0.12509331227E+03 0.  0.
        -24    2    1    2    0    0 -0.20266924551E+02  0.12985734630E+02 -0.72113369149E+01  0.82279095943E+02  0.78348380420E+02 0.  0.
        -11    1    3    3    0    0  0.45503434797E+02  0.13100584311E+02 -0.48435444472E+03  0.48666355525E+03  0.00000000000E+00 0.  1.
         12    1    3    3    0    0 -0.70869513400E+01  0.11772392826E+02 -0.12226486199E+02  0.18392962701E+02  0.00000000000E+00 0. -1.
         11    1    5    5    0    0 -0.26280754066E+02 -0.16221354711E+02 -0.31280343925E+02  0.43957596602E+02  0.00000000000E+00 0. -1.
        -12    1    5    5    0    0  0.60138295156E+01  0.29207089342E+02  0.24069007010E+02  0.38321499341E+02  0.00000000000E+00 0.  1.
          5    1    4    4  501    0  0.51508736776E+02 -0.18124346160E+02 -0.88242184884E+01  0.55470542813E+02  0.41800000000E+01 0.  1.
         -5    1    4    4    0  501 -0.69658295683E+02 -0.19734365608E+02 -0.55520103531E+02  0.91332785130E+02  0.41800000000E+01 0.  1.
</event>
<event>
11    1  0.6625361E-009  0.1529892E+03  0.7561462E-02  0.1093863E+00
         22   -1    0    0    0    0  0.00000000000E+00  0.00000000000E+00  0.28100739543E+04  0.28100739543E+04  0.00000000000E+00 0.  1.
         22   -1    0    0    0    0 -0.00000000000E+00 -0.00000000000E+00 -0.45238580936E+03  0.45238580936E+03  0.00000000000E+00 0.  1.
         24    2    1    2    0    0  0.27214213277E+02  0.82857588965E+02 -0.40919536413E+03  0.42572055998E+03  0.78683897425E+02 0.  0.
         25    2    1    2    0    0 -0.55365325411E+02 -0.97187568487E+02  0.17176444155E+03  0.24012761831E+03  0.12508999548E+03 0.  0.
        -24    2    1    2    0    0  0.28151112135E+02  0.14329979521E+02  0.25951190676E+04  0.25966115854E+04  0.82163965767E+02 0.  0.
        -11    1    3    3    0    0  0.35339147816E+02  0.18492895110E+02 -0.71707089587E+02  0.82053331650E+02  0.00000000000E+00 0.  1.
         12    1    3    3    0    0 -0.81249345393E+01  0.64364693855E+02 -0.33748827454E+03  0.34366722833E+03  0.00000000000E+00 0. -1.
         13    1    5    5    0    0  0.23571832233E+02  0.60140811616E+01  0.20004996477E+03  0.20152366822E+03  0.00000000000E+00 0. -1.
        -14    1    5    5    0    0  0.45792799011E+01  0.83158983597E+01  0.23950691028E+04  0.23950879172E+04  0.00000000000E+00 0.  1.
          5    1    4    4  501    0 -0.39931049263E+02  0.22998416749E+02  0.53881977540E+02  0.71022220268E+02  0.41800000000E+01 0. -1.
         -5    1    4    4    0  501 -0.15434276148E+02 -0.12018598524E+03  0.11788246401E+03  0.16910539804E+03  0.41800000000E+01 0. -1.
</event>
<event>
11    1  0.6625361E-009  0.1889591E+03  0.7561462E-02  0.1062618E+00
         22   -1    0    0    0    0  0.00000000000E+00  0.00000000000E+00  0.41877604649E+03  0.41877604649E+03  0.00000000000E+00 0. -1.
         22   -1    0    0    0    0 -0.00000000000E+00 -0.00000000000E+00 -0.64813142005E+03  0.64813142005E+03  0.00000000000E+00 0. -1.
         24    2    1    2    0    0 -0.13790029936E+03 -0.27684231165E+02 -0.51848632649E+03  0.54157701601E+03  0.68517766251E+02 0.  0.
         25    2    1    2    0    0  0.14819473577E+03  0.17005944064E+02 -0.28907821710E+02  0.19680998437E+03  0.12509047104E+03 0.  0.
        -24    2    1    2    0    0 -0.10294436415E+02  0.10678287100E+02  0.31803877464E+03  0.32852046616E+03  0.80975510369E+02 0.  0.
        -13    1    3    3    0    0  0.13248883924E+01  0.10364043235E+02 -0.19331719453E+02  0.21974623965E+02  0.00000000000E+00 0.  1.
         14    1    3    3    0    0 -0.13922518775E+03 -0.38048274400E+02 -0.49915460704E+03  0.51960239204E+03  0.00000000000E+00 0. -1.
         13    1    5    5    0    0 -0.41220340892E+02  0.16051397023E+02  0.11770916342E+03  0.12574661428E+03  0.00000000000E+00 0. -1.
        -14    1    5    5    0    0  0.30925904477E+02 -0.53731099227E+01  0.20032961121E+03  0.20277385188E+03  0.00000000000E+00 0.  1.
          5    1    4    4  501    0  0.34863836542E+02 -0.22623356374E+02 -0.59636166920E+02  0.72809670765E+02  0.41800000000E+01 0. -1.
         -5    1    4    4    0  501  0.11333089923E+03  0.39629300439E+02  0.30728345210E+02  0.12400031360E+03  0.41800000000E+01 0. -1.
</event>
<event>
11    1  0.6625361E-009  0.1394089E+03  0.7561462E-02  0.1108220E+00
         22   -1    0    0    0    0  0.00000000000E+00  0.00000000000E+00  0.19405980942E+04  0.19405980942E+04  0.00000000000E+00 0.  1.
         22   -1    0    0    0    0 -0.00000000000E+00 -0.00000000000E+00 -0.55882490769E+02  0.55882490769E+02  0.00000000000E+00 0. -1.
        -24    2    1    2    0    0  0.50626327826E+02 -0.36576456147E+02  0.36042488440E+02  0.10915104031E+03  0.81939162891E+02 0.  0.
         25    2    1    2    0    0 -0.33364707839E+02  0.51726248245E+02  0.24860103543E+03  0.28502264587E+03  0.12508647152E+03 0.  0.
         24    2    1    2    0    0 -0.17261619987E+02 -0.15149792098E+02  0.16000720795E+04  0.16023068987E+04  0.81420257702E+02 0.  0.
        -11    1    5    5    0    0 -0.39429503285E+02 -0.22823723583E+02  0.52333747644E+03  0.52531678284E+03  0.00000000000E+00 0.  1.
         12    1    5    5    0    0  0.22167883298E+02  0.76739314849E+01  0.10767346031E+04  0.10769901159E+04  0.00000000000E+00 0. -1.
         11    1    3    3    0    0  0.71023474841E+02 -0.19156763576E+02  0.15039640186E+02  0.75083329349E+02  0.00000000000E+00 0. -1.
        -12    1    3    3    0    0 -0.20397147015E+02 -0.17419692571E+02  0.21002848254E+02  0.34067710965E+02  0.00000000000E+00 0.  1.
          5    1    4    4  501    0 -0.18128577074E+02 -0.35614868267E+02  0.13503337201E+03  0.14088487536E+03  0.41800000000E+01 0. -1.
         -5    1    4    4    0  501 -0.15236130766E+02  0.87341116512E+02  0.11356766341E+03  0.14413777051E+03  0.41800000000E+01 0. -1.
</event>
<event>
11    1  0.6625361E-009  0.1691158E+03  0.7561462E-02  0.1078804E+00
         22   -1    0    0    0    0  0.00000000000E+00  0.00000000000E+00  0.19154364069E+03  0.19154364069E+03  0.00000000000E+00 0. -1.
         22   -1    0    0    0    0 -0.00000000000E+00 -0.00000000000E+00 -0.61659844445E+03  0.61659844445E+03  0.00000000000E+00 0.  1.
        -24    2    1    2    0    0  0.31868801510E+02 -0.63451227454E+01 -0.48258867995E+03  0.49020102128E+03  0.79682659061E+02 0.  0.
         25    2    1    2    0    0  0.22073044292E+02  0.11050236414E+03  0.47773624896E+02  0.17500907714E+03  0.12509143088E+03 0.  0.
         24    2    1    2    0    0 -0.53941845803E+02 -0.10415724139E+03  0.97602513032E+01  0.14293198672E+03  0.81091532593E+02 0.  0.
        -11    1    5    5    0    0 -0.16328537425E+02 -0.16519746526E+02  0.37056332729E+02  0.43734368122E+02  0.00000000000E+00 0.  1.
         12    1    5    5    0    0 -0.37613308378E+02 -0.87637494866E+02 -0.27296081426E+02  0.99197618594E+02  0.00000000000E+00 0. -1.
         11    1    3    3    0    0  0.42324110512E+02  0.82344774756E+01 -0.12622923978E+03  0.13339024674E+03  0.00000000000E+00 0. -1.
        -12    1    3    3    0    0 -0.10455309001E+02 -0.14579600221E+02 -0.35635944018E+03  0.35681077455E+03  0.00000000000E+00 0.  1.
          5    1    4    4  501    0  0.33726053508E+02  0.53441236592E+02 -0.36035567340E+02  0.72865952044E+02  0.41800000000E+01 0. -1.
         -5    1    4    4    0  501 -0.11653009215E+02  0.57061127545E+02  0.83809192237E+02  0.10214312509E+03  0.41800000000E+01 0. -1.
</event>
<event>
11    1  0.6625361E-009  0.1485331E+03  0.7561462E-02  0.1098387E+00
         22   -1    0    0    0    0  0.00000000000E+00  0.00000000000E+00  0.15215292005E+03  0.15215292005E+03  0.00000000000E+00 0. -1.
         22   -1    0    0    0    0 -0.00000000000E+00 -0.00000000000E+00 -0.89805981282E+03  0.89805981282E+03  0.00000000000E+00 0.  1.
        -24    2    1    2    0    0  0.63479421196E+02  0.20878551827E+02 -0.52662978472E+03  0.53682367025E+03  0.79844673881E+02 0.  0.
         25    2    1    2    0    0 -0.43416207954E+02 -0.97976230608E+02 -0.32097467350E+03  0.36077176265E+03  0.12508882771E+03 0.  0.
         24    2    1    2    0    0 -0.20063213241E+02  0.77097678781E+02  0.10169756545E+03  0.15261729998E+03  0.81259219996E+02 0.  0.
        -11    1    5    5    0    0 -0.40261405160E+01  0.55739116968E+02  0.95721028627E+01  0.56698184459E+02  0.00000000000E+00 0.  1.
         12    1    5    5    0    0 -0.16037072725E+02  0.21358561814E+02  0.92125462589E+02  0.95919115517E+02  0.00000000000E+00 0. -1.
         13    1    3    3    0    0 -0.38659624668E+01  0.29194187306E+02 -0.83774718345E+02  0.88800054459E+02  0.00000000000E+00 0. -1.
        -14    1    3    3    0    0  0.67345383663E+02 -0.83156354788E+01 -0.44285506637E+03  0.44802361579E+03  0.00000000000E+00 0.  1.
          5    1    4    4  501    0  0.11823728789E+02 -0.13491926338E+01 -0.18307581684E+03  0.18350980354E+03  0.41800000000E+01 0.  1.
         -5    1    4    4    0  501 -0.55239936744E+02 -0.96627037974E+02 -0.13789885666E+03  0.17726195911E+03  0.41800000000E+01 0.  1.
</event>
<event>
11    1  0.6625361E-009  0.1366977E+03  0.7561462E-02  0.1111303E+00
         22   -1    0    0    0    0  0.00000000000E+00  0.00000000000E+00  0.66116202858E+03  0.66116202858E+03  0.00000000000E+00 0. -1.
         22   -1    0    0    0    0 -0.00000000000E+00 -0.00000000000E+00 -0.58653261995E+02  0.58653261995E+02  0.00000000000E+00 0. -1.
        -24    2    1    2    0    0  0.20810217076E+02  0.24524119522E+02  0.22940153506E+02  0.91231470664E+02  0.82234013788E+02 0.  0.
         25    2    1    2    0    0  0.40640265340E+02 -0.13472764833E+02  0.24119647464E+03  0.27505695548E+03  0.12508973906E+03 0.  0.
         24    2    1    2    0    0 -0.61450482417E+02 -0.11051354689E+02  0.33837213843E+03  0.35352686443E+03  0.81161848026E+02 0.  0.
        -13    1    5    5    0    0  0.86676969954E+01  0.13394902452E+02  0.15567364147E+02  0.22291146435E+02  0.00000000000E+00 0.  1.
         14    1    5    5    0    0 -0.70118179412E+02 -0.24446257142E+02  0.32280477429E+03  0.33123571799E+03  0.00000000000E+00 0. -1.
         13    1    3    3    0    0  0.17199907147E+02  0.74905584784E+01 -0.30065957874E+02  0.35438779537E+02  0.00000000000E+00 0. -1.
        -14    1    3    3    0    0  0.36103099291E+01  0.17033561044E+02  0.53006111380E+02  0.55792691127E+02  0.00000000000E+00 0.  1.
          5    1    4    4  501    0  0.77734286891E+02  0.11080138424E+02  0.19743171294E+03  0.21251386425E+03  0.41800000000E+01 0.  1.
         -5    1    4    4    0  501 -0.37094021550E+02 -0.24552903257E+02  0.43764761706E+02  0.62543091227E+02  0.41800000000E+01 0.  1.
</event>
<event>
11    1  0.6625361E-009  0.1907742E+03  0.7561462E-02  0.1061246E+00
         22   -1    0    0    0    0  0.00000000000E+00  0.00000000000E+00  0.41144914324E+04  0.41144914324E+04  0.00000000000E+00 0.  1.
         22   -1    0    0    0    0 -0.00000000000E+00 -0.00000000000E+00 -0.23471222793E+03  0.23471222793E+03  0.00000000000E+00 0.  1.
         24    2    1    2    0    0 -0.30136677509E+02  0.19180020691E+02 -0.20139246708E+03  0.21993262556E+03  0.80841458813E+02 0.  0.
         25    2    1    2    0    0  0.11865351634E+03  0.94125776750E+02  0.41440117626E+03  0.45858373243E+03  0.12502954041E+03 0.  0.
        -24    2    1    2    0    0 -0.88516838828E+02 -0.11330579744E+03  0.36667704953E+04  0.36706873023E+04  0.89810756731E+02 0.  0.
        -11    1    3    3    0    0 -0.24361121000E+02  0.32231717509E+02 -0.20165016378E+03  0.20565781381E+03  0.00000000000E+00 0.  1.
         12    1    3    3    0    0 -0.57755565091E+01 -0.13051696818E+02  0.25769669793E+00  0.14274811746E+02  0.00000000000E+00 0. -1.
         13    1    5    5    0    0  0.53893677935E+01 -0.58648306007E+02  0.10343611553E+04  0.10360365189E+04  0.00000000000E+00 0. -1.
        -14    1    5    5    0    0 -0.93906206621E+02 -0.54657491434E+02  0.26324093400E+04  0.26346507834E+04  0.00000000000E+00 0.  1.
          5    1    4    4  501    0  0.16190801495E+02  0.54006798385E+02  0.27594828771E+03  0.28168032629E+03  0.41800000000E+01 0. -1.
         -5    1    4    4    0  501  0.10246271484E+03  0.40118978365E+02  0.13845288855E+03  0.17690340614E+03  0.41800000000E+01 0. -1.
</event>
<event>
11    1  0.6625361E-009  0.1284974E+03  0.7561462E-02  0.1121129E+00
         22   -1    0    0    0    0  0.00000000000E+00  0.00000000000E+00  0.12852979695E+03  0.12852979695E+03  0.00000000000E+00 0.  1.
         22   -1    0    0    0    0 -0.00000000000E+00 -0.00000000000E+00 -0.58400711529E+03  0.58400711529E+03  0.00000000000E+00 0. -1.
        -24    2    1    2    0    0 -0.13944940811E+02  0.85961234402E+01 -0.42187181218E+03  0.43003053860E+03  0.81744012006E+02 0.  0.
         25    2    1    2    0    0 -0.85220634825E+01 -0.28344665822E+02 -0.10904578912E+03  0.16856698461E+03  0.12509116087E+03 0.  0.
         24    2    1    2    0    0  0.22467004293E+02  0.19748542382E+02  0.75440282959E+02  0.11393938903E+03  0.79976101880E+02 0.  0.
        -13    1    5    5    0    0  0.33475464115E+02 -0.22284270792E+02  0.47695487735E+02  0.62386336426E+02  0.00000000000E+00 0.  1.
         14    1    5    5    0    0 -0.11008459821E+02  0.42032813174E+02  0.27744795224E+02  0.51553052606E+02  0.00000000000E+00 0. -1.
         11    1    3    3    0    0  0.18979886751E+02 -0.22593464172E+01 -0.34695473790E+03  0.34748083530E+03  0.00000000000E+00 0. -1.
        -12    1    3    3    0    0 -0.32924827562E+02  0.10855469857E+02 -0.74917074285E+02  0.82549703302E+02  0.00000000000E+00 0.  1.
          5    1    4    4  501    0  0.90583269786E+01 -0.71269901222E+02 -0.32493998913E+02  0.78960651424E+02  0.41800000000E+01 0. -1.
         -5    1    4    4    0  501 -0.17580390461E+02  0.42925235400E+02 -0.76551790208E+02  0.89606333185E+02  0.41800000000E+01 0. -1.
</event>
<event>
11    1  0.6625361E-009  0.1263447E+03  0.7561462E-02  0.1123844E+00
         22   -1    0    0    0    0  0.00000000000E+00  0.00000000000E+00  0.58925448858E+03  0.58925448858E+03  0.00000000000E+00 0.  1.
         22   -1    0    0    0    0 -0.00000000000E+00 -0.00000000000E+00 -0.13028721706E+03  0.13028721706E+03  0.00000000000E+00 0.  1.
         24    2    1    2    0    0  0.11782510549E+02 -0.15851723968E+02 -0.78030565553E+02  0.11219478071E+03  0.78158780382E+02 0.  0.
         25    2    1    2    0    0 -0.60831585017E+01  0.35006688195E+00  0.86934670940E+02  0.15245176134E+03  0.12508707032E+03 0.  0.
        -24    2    1    2    0    0 -0.56993520475E+01  0.15501657086E+02  0.45006316614E+03  0.45489516359E+03  0.64031026497E+02 0.  0.
        -13    1    3    3    0    0  0.70838455138E+01  0.29658125789E+02 -0.49923454255E+02  0.58499030567E+02  0.00000000000E+00 0.  1.
         14    1    3    3    0    0  0.46986650354E+01 -0.45509849757E+02 -0.28107111298E+02  0.53695750144E+02  0.00000000000E+00 0. -1.
         13    1    5    5    0    0  0.15529088192E+02 -0.34464130863E+01  0.30778075788E+02  0.34645638866E+02  0.00000000000E+00 0. -1.
        -14    1    5    5    0    0 -0.21228440239E+02  0.18948070172E+02  0.41928509035E+03  0.42024952472E+03  0.00000000000E+00 0.  1.
          5    1    4    4  501    0 -0.19594995480E+02  0.40479428614E+02 -0.10290317552E+02  0.46323978932E+02  0.41800000000E+01 0.  1.
         -5    1    4    4    0  501  0.13511836978E+02 -0.40129361732E+02  0.97224988492E+02  0.10612778241E+03  0.41800000000E+01 0.  1.
</event>
<event>
11    1  0.6625361E-009  0.1393202E+03  0.7561462E-02  0.1108320E+00
         22   -1    0    0    0    0  0.00000000000E+00  0.00000000000E+00  0.12912787092E+04  0.12912787092E+04  0.00000000000E+00 0.  1.
         22   -1    0    0    0    0 -0.00000000000E+00 -0.00000000000E+00 -0.65210498453E+03  0.65210498453E+03  0.00000000000E+00 0.  1.
        -24    2    1    2    0    0 -0.54392050605E+02  0.14625350372E+02 -0.62257263278E+03  0.63034732289E+03  0.81047321652E+02 0.  0.
         25    2    1    2    0    0 -0.98635311495E+01 -0.29654200582E+02  0.15576385240E+03  0.20220221412E+03  0.12508675718E+03 0.  0.
         24    2    1    2    0    0  0.64255581754E+02  0.15028850210E+02  0.11059825051E+04  0.11108341568E+04  0.80003600543E+02 0.  0.
        -13    1    5    5    0    0  0.39512060273E+02  0.24410244737E+02  0.10154993109E+04  0.10165608262E+04  0.00000000000E+00 0.  1.
         14    1    5    5    0    0  0.24743521481E+02 -0.93813945267E+01  0.90483194209E+02  0.94273330550E+02  0.00000000000E+00 0. -1.
         13    1    3    3    0    0 -0.89484818571E+01  0.33138511450E+02 -0.43866272400E+03  0.44000366100E+03  0.00000000000E+00 0. -1.
        -14    1    3    3    0    0 -0.45443568748E+02 -0.18513161078E+02 -0.18390990878E+03  0.19034366189E+03  0.00000000000E+00 0.  1.
          5    1    4    4  501    0  0.54431946327E+01 -0.77015355402E+02  0.11001795310E+03  0.13447087320E+03  0.41800000000E+01 0.  1.
         -5    1    4    4    0  501 -0.15306725782E+02  0.47361154820E+02  0.45745899307E+02  0.67731340925E+02  0.41800000000E+01 0.  1.
</event>
<event>
11    1  0.6625361E-009  0.1510487E+03  0.7561462E-02  0.1095812E+00
         22   -1    0    0    0    0  0.00000000000E+00  0.00000000000E+00  0.25972733265E+03  0.25972733265E+03  0.00000000000E+00 0. -1.
         22   -1    0    0    0    0 -0.00000000000E+00 -0.00000000000E+00 -0.41089080533E+03  0.41089080533E+03  0.00000000000E+00 0.  1.
        -24    2    1    2    0    0  0.88736845450E+01  0.10381120209E+02 -0.28377802534E+03  0.29393964111E+03  0.75392539512E+02 0.  0.
         25    2    1    2    0    0 -0.76665018017E+02 -0.57880803458E+02 -0.45213675003E+02  0.16407335912E+03  0.12509227941E+03 0.  0.
         24    2    1    2    0    0  0.67791333472E+02  0.47499683249E+02  0.17782822767E+03  0.21260513776E+03  0.82013299198E+02 0.  0.
        -13    1    5    5    0    0  0.15289462664E+02  0.89111142705E+01 -0.51016371185E+01  0.18417446277E+02  0.00000000000E+00 0.  1.
         14    1    5    5    0    0  0.52501870808E+02  0.38588568978E+02  0.18292986478E+03  0.19418769148E+03  0.00000000000E+00 0. -1.
         13    1    3    3    0    0 -0.10769470890E+02 -0.23811510849E+02 -0.45926024453E+02  0.52840981011E+02  0.00000000000E+00 0. -1.
        -14    1    3    3    0    0  0.19643155435E+02  0.34192631058E+02 -0.23785200089E+03  0.24109866010E+03  0.00000000000E+00 0.  1.
          5    1    4    4  501    0 -0.42918844367E+02 -0.93111067171E+02 -0.86726876097E+01  0.10297759922E+03  0.41800000000E+01 0. -1.
         -5    1    4    4    0  501 -0.33746173649E+02  0.35230263713E+02 -0.36540987394E+02  0.61095759894E+02  0.41800000000E+01 0. -1.
</event>
<event>
11    1  0.1532991E-008  0.1592207E+03  0.7561462E-02  0.1087813E+00
         22   -1    0    0    0    0  0.00000000000E+00  0.00000000000E+00  0.18499638602E+03  0.18499638602E+03  0.00000000000E+00 0.  1.
         22   -1    0    0    0    0 -0.00000000000E+00 -0.00000000000E+00 -0.24890210028E+04  0.24890210028E+04  0.00000000000E+00 0. -1.
         24    2    1    2    0    0  0.76439907434E+02  0.84292412723E+01 -0.13475130630E+04  0.13518958195E+04  0.76920349192E+02 0.  0.
         25    2    1    2    0    0 -0.14514511426E+03  0.60832145428E+02 -0.11078578773E+04  0.11259504736E+04  0.12509092108E+03 0.  0.
        -24    2    1    2    0    0  0.68705206823E+02 -0.69261386700E+02  0.15134632358E+03  0.19617109573E+03  0.77844999889E+02 0.  0.
        -13    1    3    3    0    0  0.27474886752E+02  0.10837552012E+02 -0.12662547107E+03  0.13002435103E+03  0.00000000000E+00 0.  1.
         14    1    3    3    0    0  0.48965020682E+02 -0.24083107395E+01 -0.12208875920E+04  0.12218714684E+04  0.00000000000E+00 0. -1.
         11    1    5    5    0    0 -0.15515767649E+02 -0.11096881874E+00  0.14495943128E+02  0.21234022864E+02  0.00000000000E+00 0. -1.
        -12    1    5    5    0    0  0.84220974472E+02 -0.69150417881E+02  0.13685038045E+03  0.17493707287E+03  0.00000000000E+00 0.  1.
          5    1    4    4  501    0 -0.56574828874E+02  0.53638718588E+01 -0.12303807366E+03  0.13559248634E+03  0.41800000000E+01 0. -1.
         -5    1    4    4    0  501 -0.88570285383E+02  0.55468273569E+02 -0.98481980367E+03  0.99035798726E+03  0.41800000000E+01 0. -1.
</event>
<event>
11    1  0.6625361E-009  0.1487242E+03  0.7561462E-02  0.1098190E+00
         22   -1    0    0    0    0  0.00000000000E+00  0.00000000000E+00  0.76780255148E+03  0.76780255148E+03  0.00000000000E+00 0.  1.
         22   -1    0    0    0    0 -0.00000000000E+00 -0.00000000000E+00 -0.67466342936E+03  0.67466342936E+03  0.00000000000E+00 0.  1.
        -24    2    1    2    0    0  0.30413491101E+02  0.23400816875E+02 -0.62668948380E+03  0.63272823113E+03  0.78311727675E+02 0.  0.
         25    2    1    2    0    0  0.34104021755E+02 -0.73176577900E+02  0.10010835074E+03  0.17940474052E+03  0.12508590321E+03 0.  0.
         24    2    1    2    0    0 -0.64517512855E+02  0.49775761025E+02  0.61972025518E+03  0.63033300918E+03  0.81402530262E+02 0.  0.
        -11    1    5    5    0    0 -0.79339968047E+02  0.56472623849E+02  0.48885384512E+03  0.49845969713E+03  0.00000000000E+00 0.  1.
         12    1    5    5    0    0  0.14822455191E+02 -0.66968628236E+01  0.13086641006E+03  0.13187331205E+03  0.00000000000E+00 0. -1.
         11    1    3    3    0    0 -0.16649353555E+02  0.11109731351E+01 -0.35242378943E+02  0.38993082831E+02  0.00000000000E+00 0. -1.
        -12    1    3    3    0    0  0.47062844656E+02  0.22289843740E+02 -0.59144710486E+03  0.59373514830E+03  0.00000000000E+00 0.  1.
          5    1    4    4  501    0  0.23281349005E+02  0.17987230322E+02 -0.14035460730E+02  0.32863782863E+02  0.41800000000E+01 0.  1.
         -5    1    4    4    0  501  0.10822672750E+02 -0.91163808222E+02  0.11414381147E+03  0.14654095766E+03  0.41800000000E+01 0.  1.
</event>
<event>
11    1  0.6625361E-009  0.1477923E+03  0.7561462E-02  0.1099156E+00
         22   -1    0    0    0    0  0.00000000000E+00  0.00000000000E+00  0.18764526665E+04  0.18764526665E+04  0.00000000000E+00 0.  1.
         22   -1    0    0    0    0 -0.00000000000E+00 -0.00000000000E+00 -0.43788823044E+03  0.43788823044E+03  0.00000000000E+00 0. -1.
         24    2    1    2    0    0  0.73670520180E+02  0.26528766130E+02 -0.41926543110E+03  0.43429752783E+03  0.81851817222E+02 0.  0.
         25    2    1    2    0    0 -0.12577998053E+03 -0.49216521491E+02  0.10353997179E+04  0.10516383416E+04  0.12509099162E+03 0.  0.
        -24    2    1    2    0    0  0.52109460345E+02  0.22687755361E+02  0.82243014931E+03  0.82840502756E+03  0.81445743285E+02 0.  0.
        -13    1    3    3    0    0  0.67064787280E+02  0.93761206961E+01 -0.15201330796E+03  0.16641407131E+03  0.00000000000E+00 0.  1.
         14    1    3    3    0    0  0.66057329002E+01  0.17152645434E+02 -0.26725212314E+03  0.26788345652E+03  0.00000000000E+00 0. -1.
         13    1    5    5    0    0 -0.18166049792E+02  0.18537006771E+02  0.32249150375E+03  0.32353422690E+03  0.00000000000E+00 0. -1.
        -14    1    5    5    0    0  0.70275510137E+02  0.41507485903E+01  0.49993864556E+03  0.50487080066E+03  0.00000000000E+00 0.  1.
          5    1    4    4  501    0 -0.69764460136E+02 -0.46584623993E+02  0.24036423925E+03  0.25461666678E+03  0.41800000000E+01 0. -1.
         -5    1    4    4    0  501 -0.56015520390E+02 -0.26318974979E+01  0.79503547861E+03  0.79702167478E+03  0.41800000000E+01 0. -1.
</event>
<event>
11    1  0.6625361E-009  0.1411631E+03  0.7561462E-02  0.1106266E+00
         22   -1    0    0    0    0  0.00000000000E+00  0.00000000000E+00  0.67397393271E+02  0.67397393271E+02  0.00000000000E+00 0. -1.
         22   -1    0    0    0    0 -0.00000000000E+00 -0.00000000000E+00 -0.11657306349E+04  0.11657306349E+04  0.00000000000E+00 0.  1.
        -24    2    1    2    0    0 -0.50946112152E+02 -0.58538025096E+02 -0.88651597122E+03  0.89372324861E+03  0.82513460400E+02 0.  0.
         25    2    1    2    0    0 -0.11790370987E+02 -0.47220668783E+01 -0.17061565412E+03  0.21194024904E+03  0.12509059504E+03 0.  0.
         24    2    1    2    0    0  0.62736483139E+02  0.63260091974E+02 -0.41201616296E+02  0.12746453053E+03  0.81313761475E+02 0.  0.
        -11    1    5    5    0    0  0.37703015115E+02  0.33717563093E+02 -0.64734462800E+02  0.82151945100E+02  0.00000000000E+00 0.  1.
         12    1    5    5    0    0  0.25033468024E+02  0.29542528882E+02  0.23532846504E+02  0.45312585433E+02  0.00000000000E+00 0. -1.
         13    1    3    3    0    0  0.13588123905E+02 -0.10819748349E+02 -0.42682559439E+02  0.46081503294E+02  0.00000000000E+00 0. -1.
        -14    1    3    3    0    0 -0.64534236057E+02 -0.47718276747E+02 -0.84383341178E+03  0.84764174532E+03  0.00000000000E+00 0.  1.
          5    1    4    4  501    0  0.39332494782E+02  0.16832961171E+02 -0.14396983602E+03  0.15025039038E+03  0.41800000000E+01 0. -1.
         -5    1    4    4    0  501 -0.51122865769E+02 -0.21555028050E+02 -0.26645818104E+02  0.61689858657E+02  0.41800000000E+01 0. -1.
</event>
<event>
11    1  0.6625361E-009  0.1487349E+03  0.7561462E-02  0.1098179E+00
         22   -1    0    0    0    0  0.00000000000E+00  0.00000000000E+00  0.15318347261E+03  0.15318347261E+03  0.00000000000E+00 0. -1.
         22   -1    0    0    0    0 -0.00000000000E+00 -0.00000000000E+00 -0.55888834926E+03  0.55888834926E+03  0.00000000000E+00 0. -1.
        -24    2    1    2    0    0  0.55023324307E+02  0.92433736838E+01 -0.40663874609E+03  0.41809349793E+03  0.79587040519E+02 0.  0.
         25    2    1    2    0    0  0.34907553357E+02 -0.33848667204E+02 -0.67566533536E+02  0.15025663312E+03  0.12509016664E+03 0.  0.
         24    2    1    2    0    0 -0.89930877664E+02  0.24605293520E+02  0.68500402976E+02  0.14372169081E+03  0.85268024345E+02 0.  0.
        -13    1    5    5    0    0 -0.44799439311E+02  0.69409629911E+01 -0.14509485859E+02  0.47599284761E+02  0.00000000000E+00 0.  1.
         14    1    5    5    0    0 -0.45131438353E+02  0.17664330529E+02  0.83009888836E+02  0.96122406053E+02  0.00000000000E+00 0. -1.
         13    1    3    3    0    0  0.57661791255E+02 -0.12115582465E+02 -0.37636761925E+03  0.38095177428E+03  0.00000000000E+00 0. -1.
        -14    1    3    3    0    0 -0.26384669477E+01  0.21358956149E+02 -0.30271126836E+02  0.37141723648E+02  0.00000000000E+00 0.  1.
          5    1    4    4  501    0 -0.34730416754E+02 -0.34206128615E+02  0.54988958881E+01  0.49233843428E+02  0.41800000000E+01 0.  1.
         -5    1    4    4    0  501  0.69637970111E+02  0.35746141094E+00 -0.73065429424E+02  0.10102278969E+03  0.41800000000E+01 0.  1.
</event>
<event>
11    1  0.6625361E-009  0.1357149E+03  0.7561462E-02  0.1112440E+00
         22   -1    0    0    0    0  0.00000000000E+00  0.00000000000E+00  0.69673244371E+03  0.69673244371E+03  0.00000000000E+00 0.  1.
         22   -1    0    0    0    0 -0.00000000000E+00 -0.00000000000E+00 -0.10137758628E+04  0.10137758628E+04  0.00000000000E+00 0.  1.
         24    2    1    2    0    0 -0.43557632239E+02 -0.30356065339E+02 -0.98007418417E+03  0.98618711191E+03  0.95921088365E+02 0.  0.
         25    2    1    2    0    0  0.74923638979E+01  0.39895756778E+02  0.13396190726E+03  0.18772501182E+03  0.12508829097E+03 0.  0.
        -24    2    1    2    0    0  0.36065268341E+02 -0.95396914393E+01  0.52906885782E+03  0.53659618278E+03  0.81424184136E+02 0.  0.
        -13    1    3    3    0    0 -0.60497747622E+02 -0.49713150213E+02 -0.84964949394E+03  0.85325004385E+03  0.00000000000E+00 0.  1.
         14    1    3    3    0    0  0.16940115382E+02  0.19357084873E+02 -0.13042469023E+03  0.13293706807E+03  0.00000000000E+00 0. -1.
         11    1    5    5    0    0  0.50132732102E+02 -0.56886061693E+01  0.17245278547E+03  0.17968198097E+03  0.00000000000E+00 0. -1.
        -12    1    5    5    0    0 -0.14067463761E+02 -0.38510852700E+01  0.35661607235E+03  0.35691420181E+03  0.00000000000E+00 0.  1.
          5    1    4    4  501    0 -0.51221732950E+02 -0.64010734048E+01  0.30828617961E+02  0.60270355504E+02  0.41800000000E+01 0. -1.
         -5    1    4    4    0  501  0.58714096848E+02  0.46296830183E+02  0.10313328930E+03  0.12745465631E+03  0.41800000000E+01 0. -1.
</event>
<event>
11    1  0.6625361E-009  0.1465166E+03  0.7561462E-02  0.1100492E+00
         22   -1    0    0    0    0  0.00000000000E+00  0.00000000000E+00  0.57915455908E+03  0.57915455908E+03  0.00000000000E+00 0.  1.
         22   -1    0    0    0    0 -0.00000000000E+00 -0.00000000000E+00 -0.22576010791E+03  0.22576010791E+03  0.00000000000E+00 0.  1.
        -24    2    1    2    0    0 -0.19658116754E+01 -0.96588978642E+02 -0.12055069521E+03  0.17355693079E+03  0.79096415212E+02 0.  0.
         25    2    1    2    0    0 -0.24631468739E+02  0.30275657055E+02 -0.13561579827E+02  0.13172288325E+03  0.12507468513E+03 0.  0.
         24    2    1    2    0    0  0.26597280414E+02  0.66313321586E+02  0.48750672620E+03  0.49963485295E+03  0.82869211747E+02 0.  0.
        -13    1    5    5    0    0 -0.25808504283E+02  0.41635729059E+02  0.27727907121E+03  0.28157289671E+03  0.00000000000E+00 0.  1.
         14    1    5    5    0    0  0.52405784697E+02  0.24677592527E+02  0.21022765498E+03  0.21806195625E+03  0.00000000000E+00 0. -1.
         11    1    3    3    0    0  0.17432351648E+02  0.70563925585E+01 -0.12501225017E+02  0.22582298086E+02  0.00000000000E+00 0. -1.
        -12    1    3    3    0    0 -0.19398163323E+02 -0.10364537120E+03 -0.10804947019E+03  0.15097463270E+03  0.00000000000E+00 0.  1.
          5    1    4    4  501    0  0.35275289873E+02  0.47570632126E+02  0.17555598246E+02  0.61911085811E+02  0.41800000000E+01 0.  1.
         -5    1    4    4    0  501 -0.59906758612E+02 -0.17294975071E+02 -0.31117178073E+02  0.69811797437E+02  0.41800000000E+01 0.  1.
</event>
<event>
11    1  0.6625361E-009  0.2049258E+03  0.7561462E-02  0.1051094E+00
         22   -1    0    0    0    0  0.00000000000E+00  0.00000000000E+00  0.11076321454E+04  0.11076321454E+04  0.00000000000E+00 0. -1.
         22   -1    0    0    0    0 -0.00000000000E+00 -0.00000000000E+00 -0.30866318639E+03  0.30866318639E+03  0.00000000000E+00 0. -1.
        -24    2    1    2    0    0  0.66845013248E+02 -0.13616044700E+03 -0.16270971378E+03  0.23643985846E+03  0.80133841717E+02 0.  0.
         25    2    1    2    0    0 -0.71030405402E+02  0.18797882866E+03  0.25251759746E+02  0.23804809888E+03  0.12509151648E+03 0.  0.
         24    2    1    2    0    0  0.41853921536E+01 -0.51818381662E+02  0.93642691306E+03  0.94180737446E+03  0.86041297646E+02 0.  0.
        -11    1    5    5    0    0 -0.16096547335E+02 -0.44766540236E+02  0.22118077290E+03  0.22623898042E+03  0.00000000000E+00 0.  1.
         12    1    5    5    0    0  0.20281939488E+02 -0.70518414262E+01  0.71524614017E+03  0.71556839405E+03  0.00000000000E+00 0. -1.
         11    1    3    3    0    0  0.65230920995E+02 -0.10870471476E+03 -0.16585501781E+03  0.20875745495E+03  0.00000000000E+00 0. -1.
        -12    1    3    3    0    0  0.16140922536E+01 -0.27455732239E+02  0.31453040325E+01  0.27682403509E+02  0.00000000000E+00 0.  1.
          5    1    4    4  501    0 -0.10852395620E+02  0.12691866869E+03  0.65444707844E+02  0.14327108968E+03  0.41800000000E+01 0. -1.
         -5    1    4    4    0  501 -0.60178009782E+02  0.61060159971E+02 -0.40192948098E+02  0.94777009204E+02  0.41800000000E+01 0. -1.
</event>
<event>
11    1  0.6625361E-009  0.1373392E+03  0.7561462E-02  0.1110567E+00
         22   -1    0    0    0    0  0.00000000000E+00  0.00000000000E+00  0.43006334944E+02  0.43006334944E+02  0.00000000000E+00 0. -1.
         22   -1    0    0    0    0 -0.00000000000E+00 -0.00000000000E+00 -0.28229686264E+04  0.28229686264E+04  0.00000000000E+00 0.  1.
        -24    2    1    2    0    0  0.24555420728E+02  0.51747729290E+02 -0.25127915159E+04  0.25147438864E+04  0.80838208638E+02 0.  0.
         25    2    1    2    0    0 -0.50759423971E+02 -0.20109006243E+02 -0.14450653686E+03  0.19877440409E+03  0.12509289858E+03 0.  0.
         24    2    1    2    0    0  0.26204003243E+02 -0.31638723047E+02 -0.12266423878E+03  0.15245667087E+03  0.80677521241E+02 0.  0.
        -13    1    5    5    0    0  0.33158243860E+02 -0.31221896644E+02 -0.13266699040E+03  0.14026691095E+03  0.00000000000E+00 0.  1.
         14    1    5    5    0    0 -0.69542406169E+01 -0.41682640335E+00  0.10002751619E+02  0.12189759914E+02  0.00000000000E+00 0. -1.
         11    1    3    3    0    0  0.21714542368E+02 -0.67770961781E+01 -0.21397238328E+03  0.21517813827E+03  0.00000000000E+00 0. -1.
        -12    1    3    3    0    0  0.28408783601E+01  0.58524825468E+02 -0.22988191326E+04  0.22995657482E+04  0.00000000000E+00 0.  1.
          5    1    4    4  501    0  0.13367406142E+02 -0.37097551613E+02  0.65793150498E-01  0.39653406051E+02  0.41800000000E+01 0.  1.
         -5    1    4    4    0  501 -0.64126830113E+02  0.16988545370E+02 -0.14457233001E+03  0.15912099804E+03  0.41800000000E+01 0.  1.
</event>
<event>
11    1  0.6625361E-009  0.1401224E+03  0.7561462E-02  0.1107422E+00
         22   -1    0    0    0    0  0.00000000000E+00  0.00000000000E+00  0.31931707322E+03  0.31931707322E+03  0.00000000000E+00 0.  1.
         22   -1    0    0    0    0 -0.00000000000E+00 -0.00000000000E+00 -0.68741676607E+03  0.68741676607E+03  0.00000000000E+00 0.  1.
         24    2    1    2    0    0  0.85267579341E-01  0.61591319588E+02 -0.44092440092E+03  0.45270212364E+03  0.82045033402E+02 0.  0.
         25    2    1    2    0    0  0.14896759189E+02 -0.68532266699E+02 -0.21286381609E+03  0.25666610288E+03  0.12509156309E+03 0.  0.
        -24    2    1    2    0    0 -0.14982026768E+02  0.69409471113E+01  0.28568852415E+03  0.29736561277E+03  0.80843904847E+02 0.  0.
        -13    1    3    3    0    0  0.16041443938E+02  0.61476822344E+02 -0.42645532677E+03  0.43116223552E+03  0.00000000000E+00 0.  1.
         14    1    3    3    0    0 -0.15956176359E+02  0.11449724332E+00 -0.14469074153E+02  0.21539888125E+02  0.00000000000E+00 0. -1.
         11    1    5    5    0    0  0.66311611196E+01  0.11409334672E+02  0.26399309759E+01  0.13457876914E+02  0.00000000000E+00 0. -1.
        -12    1    5    5    0    0 -0.21613187888E+02 -0.44683875611E+01  0.28304859318E+03  0.28390773586E+03  0.00000000000E+00 0.  1.
          5    1    4    4  501    0  0.39966650209E+02  0.91420871879E+01 -0.14404274166E+03  0.14982221034E+03  0.41800000000E+01 0.  1.
         -5    1    4    4    0  501 -0.25069891020E+02 -0.77674353887E+02 -0.68821074429E+02  0.10684389254E+03  0.41800000000E+01 0.  1.
</event>
<event>
11    1  0.6625361E-009  0.1251147E+03  0.7561462E-02  0.1125421E+00
         22   -1    0    0    0    0  0.00000000000E+00  0.00000000000E+00  0.10402864134E+04  0.10402864134E+04  0.00000000000E+00 0. -1.
         22   -1    0    0    0    0 -0.00000000000E+00 -0.00000000000E+00 -0.23802334176E+03  0.23802334176E+03  0.00000000000E+00 0. -1.
         24    2    1    2    0    0 -0.98304141804E+01 -0.18627443408E+02 -0.19822334938E+03  0.21529096045E+03  0.81327011033E+02 0.  0.
         25    2    1    2    0    0  0.11286898000E+02  0.17084578560E+02  0.11080022795E+03  0.16835867134E+03  0.12509466340E+03 0.  0.
        -24    2    1    2    0    0 -0.14564838201E+01  0.15428648484E+01  0.88968619303E+03  0.89466012334E+03  0.94184459672E+02 0.  0.
        -11    1    3    3    0    0 -0.39916206460E+02 -0.10756078738E+02 -0.55417614379E+02  0.69138330551E+02  0.00000000000E+00 0.  1.
         12    1    3    3    0    0  0.30085792279E+02 -0.78713646704E+01 -0.14280573500E+03  0.14615262990E+03  0.00000000000E+00 0. -1.
         11    1    5    5    0    0  0.28231015843E+02 -0.23442478916E+02  0.70437092582E+03  0.70532612401E+03  0.00000000000E+00 0. -1.
        -12    1    5    5    0    0 -0.29687499663E+02  0.24985343764E+02  0.18531526722E+03  0.18933399933E+03  0.00000000000E+00 0.  1.
          5    1    4    4  501    0 -0.32210105713E+02 -0.16014623590E+02 -0.83845576052E+01  0.37171659702E+02  0.41800000000E+01 0.  1.
         -5    1    4    4    0  501  0.43497003713E+02  0.33099202149E+02  0.11918478556E+03  0.13118701164E+03  0.41800000000E+01 0.  1.
</event>
<event>
11    1  0.6625361E-009  0.1904403E+03  0.7561462E-02  0.1061497E+00
         22   -1    0    0    0    0  0.00000000000E+00  0.00000000000E+00  0.38852280571E+03  0.38852280571E+03  0.00000000000E+00 0. -1.
         22   -1    0    0    0    0 -0.00000000000E+00 -0.00000000000E+00 -0.96751506075E+03  0.96751506075E+03  0.00000000000E+00 0. -1.
        -24    2    1    2    0    0  0.37510048315E+02  0.10987490018E+01 -0.82496561428E+03  0.82944510443E+03  0.77477129199E+02 0.  0.
         25    2    1    2    0    0  0.94263301073E+02  0.68129120745E+02 -0.56712753089E+02  0.17997548957E+03  0.12509074091E+03 0.  0.
         24    2    1    2    0    0 -0.13177334939E+03 -0.69227869747E+02  0.30268611233E+03  0.34661727246E+03  0.79799357232E+02 0.  0.
        -13    1    5    5    0    0  0.54487458429E+01 -0.23670622486E+02  0.45224562616E+02  0.51334669220E+02  0.00000000000E+00 0.  1.
         14    1    5    5    0    0 -0.13722209523E+03 -0.45557247260E+02  0.25746154971E+03  0.29528260324E+03  0.00000000000E+00 0. -1.
         11    1    3    3    0    0  0.46714232765E+02 -0.17794369818E+02 -0.74779755754E+03  0.74946650772E+03  0.00000000000E+00 0. -1.
        -12    1    3    3    0    0 -0.92041844507E+01  0.18893118820E+02 -0.77168056743E+02  0.79978596710E+02  0.00000000000E+00 0.  1.
          5    1    4    4  501    0  0.83092531525E+02 -0.16691182416E+02 -0.22926091996E+02  0.87897909303E+02  0.41800000000E+01 0.  1.
         -5    1    4    4    0  501  0.11170769548E+02  0.84820303161E+02 -0.33786661093E+02  0.92077580270E+02  0.41800000000E+01 0.  1.
</event>
<event>
11    1  0.6625361E-009  0.1599747E+03  0.7561462E-02  0.1087101E+00
         22   -1    0    0    0    0  0.00000000000E+00  0.00000000000E+00  0.72081514224E+03  0.72081514224E+03  0.00000000000E+00 0.  1.
         22   -1    0    0    0    0 -0.00000000000E+00 -0.00000000000E+00 -0.38618652120E+03  0.38618652120E+03  0.00000000000E+00 0. -1.
         24    2    1    2    0    0 -0.96933069712E+02 -0.10654217412E+02 -0.30453897152E+03  0.32910279654E+03  0.77814736196E+02 0.  0.
         25    2    1    2    0    0  0.11719231982E+03  0.32875632695E+02  0.48928039583E+02  0.18126889387E+03  0.12509840838E+03 0.  0.
        -24    2    1    2    0    0 -0.20259250107E+02 -0.22221415283E+02  0.59023955298E+03  0.59662997302E+03  0.81733507787E+02 0.  0.
        -11    1    3    3    0    0  0.11744670721E+02 -0.10385339697E+02 -0.30323058665E+02  0.34136204502E+02  0.00000000000E+00 0.  1.
         12    1    3    3    0    0 -0.10867774043E+03 -0.26887771470E+00 -0.27421591285E+03  0.29496659204E+03  0.00000000000E+00 0. -1.
         13    1    5    5    0    0 -0.53933669763E+01 -0.38026959178E+02  0.12233141263E+03  0.12821900229E+03  0.00000000000E+00 0. -1.
        -14    1    5    5    0    0 -0.14865883131E+02  0.15805543895E+02  0.46790814034E+03  0.46841097073E+03  0.00000000000E+00 0.  1.
          5    1    4    4  501    0  0.27574775318E+02  0.59975996100E+02  0.56847909925E+02  0.87216085700E+02  0.41800000000E+01 0.  1.
         -5    1    4    4    0  501  0.89617544501E+02 -0.27100363404E+02 -0.79198703423E+01  0.94052808173E+02  0.41800000000E+01 0.  1.
</event>
<event>
11    1  0.6625361E-009  0.1535891E+03  0.7561462E-02  0.1093267E+00
         22   -1    0    0    0    0  0.00000000000E+00  0.00000000000E+00  0.88268512895E+02  0.88268512895E+02  0.00000000000E+00 0.  1.
         22   -1    0    0    0    0 -0.00000000000E+00 -0.00000000000E+00 -0.94844515263E+03  0.94844515263E+03  0.00000000000E+00 0. -1.
         24    2    1    2    0    0  0.28057717705E+02 -0.82108614788E+02 -0.64350926089E+03  0.65438914748E+03  0.81190685028E+02 0.  0.
         25    2    1    2    0    0  0.46697737218E+02  0.12085370946E+03 -0.19391345440E+03  0.26463985526E+03  0.12508208282E+03 0.  0.
        -24    2    1    2    0    0 -0.74755454923E+02 -0.38745094675E+02 -0.22753924445E+02  0.11768466279E+03  0.79008723417E+02 0.  0.
        -11    1    3    3    0    0  0.11041467901E+02 -0.92937713611E+01 -0.38530242668E+03  0.38557262378E+03  0.00000000000E+00 0.  1.
         12    1    3    3    0    0  0.17016249804E+02 -0.72814843426E+02 -0.25820683421E+03  0.26881652370E+03  0.00000000000E+00 0. -1.
         13    1    5    5    0    0 -0.39497011260E+02 -0.28191704317E+02  0.27205813761E+02  0.55632206438E+02  0.00000000000E+00 0. -1.
        -14    1    5    5    0    0 -0.35258443664E+02 -0.10553390357E+02 -0.49959738206E+02  0.62052456351E+02  0.00000000000E+00 0.  1.
          5    1    4    4  501    0  0.76069601046E+02  0.25710333595E+02 -0.88601965198E+02  0.11964692263E+03  0.41800000000E+01 0. -1.
         -5    1    4    4    0  501 -0.29371863827E+02  0.95143375867E+02 -0.10531148920E+03  0.14499293263E+03  0.41800000000E+01 0. -1.
</event>
<event>
11    1  0.6625361E-009  0.1894232E+03  0.7561462E-02  0.1062266E+00
         22   -1    0    0    0    0  0.00000000000E+00  0.00000000000E+00  0.66840103882E+03  0.66840103882E+03  0.00000000000E+00 0. -1.
         22   -1    0    0    0    0 -0.00000000000E+00 -0.00000000000E+00 -0.40686201988E+03  0.40686201988E+03  0.00000000000E+00 0.  1.
        -24    2    1    2    0    0  0.60855918441E+02  0.42145713766E+02 -0.24318520754E+03  0.26633473871E+03  0.79469767080E+02 0.  0.
         25    2    1    2    0    0 -0.18759535859E+03 -0.93480910208E+02 -0.34531369361E+02  0.24651727847E+03  0.12509058308E+03 0.  0.
         24    2    1    2    0    0  0.12673944015E+03  0.51335196442E+02  0.53925559584E+03  0.56241104152E+03  0.82531169211E+02 0.  0.
        -13    1    5    5    0    0  0.36232805471E+01  0.31259756604E+02  0.16319070934E+03  0.16619719661E+03  0.00000000000E+00 0.  1.
         14    1    5    5    0    0  0.12311615960E+03  0.20075439838E+02  0.37606488650E+03  0.39621384491E+03  0.00000000000E+00 0. -1.
         11    1    3    3    0    0 -0.17486086039E+02  0.16302564251E+01 -0.21579636913E+02  0.27822682658E+02  0.00000000000E+00 0. -1.
        -12    1    3    3    0    0  0.78342004481E+02  0.40515457341E+02 -0.22160557063E+03  0.23851205606E+03  0.00000000000E+00 0.  1.
          5    1    4    4  501    0 -0.31010093118E+02  0.25887318242E+02  0.15255882630E+02  0.43381948732E+02  0.41800000000E+01 0. -1.
         -5    1    4    4    0  501 -0.15658526547E+03 -0.11936822845E+03 -0.49787251991E+02  0.20313532974E+03  0.41800000000E+01 0. -1.
</event>
<event>
11    1  0.6625361E-009  0.2501872E+03  0.7561462E-02  0.1023800E+00
         22   -1    0    0    0    0  0.00000000000E+00  0.00000000000E+00  0.41321392149E+03  0.41321392149E+03  0.00000000000E+00 0.  1.
         22   -1    0    0    0    0 -0.00000000000E+00 -0.00000000000E+00 -0.25487851294E+03  0.25487851294E+03  0.00000000000E+00 0. -1.
        -24    2    1    2    0    0  0.94026709190E+02  0.30166085902E+02  0.82756456842E+01  0.12769192065E+03  0.80534002192E+02 0.  0.
         25    2    1    2    0    0 -0.65407479334E+02  0.19604136358E+03 -0.23828557499E+02  0.24276666011E+03  0.12512991857E+03 0.  0.
         24    2    1    2    0    0 -0.28619229856E+02 -0.22620744948E+03  0.17388832036E+03  0.29763385367E+03  0.79748933357E+02 0.  0.
        -11    1    5    5    0    0  0.13176155659E+02 -0.20691323068E+02  0.45615908273E+02  0.51793368454E+02  0.00000000000E+00 0.  1.
         12    1    5    5    0    0 -0.41795385515E+02 -0.20551612641E+03  0.12827241209E+03  0.24584048521E+03  0.00000000000E+00 0. -1.
         11    1    3    3    0    0  0.80941730802E+02  0.30068244341E+02  0.38662911904E+02  0.94606996887E+02  0.00000000000E+00 0. -1.
        -12    1    3    3    0    0  0.13084978388E+02  0.97841560818E-01 -0.30387266220E+02  0.33084923767E+02  0.00000000000E+00 0.  1.
          5    1    4    4  501    0  0.85257730187E+01  0.83450153445E+02  0.40726429651E+02  0.93342012983E+02  0.41800000000E+01 0.  1.
         -5    1    4    4    0  501 -0.73933252353E+02  0.11259121013E+03 -0.64554987150E+02  0.14942464713E+03  0.41800000000E+01 0.  1.
</event>
<event>
11    1  0.6625361E-009  0.1606582E+03  0.7561462E-02  0.1086460E+00
         22   -1    0    0    0    0  0.00000000000E+00  0.00000000000E+00  0.35416393269E+03  0.35416393269E+03  0.00000000000E+00 0.  1.
         22   -1    0    0    0    0 -0.00000000000E+00 -0.00000000000E+00 -0.14537596071E+04  0.14537596071E+04  0.00000000000E+00 0. -1.
         24    2    1    2    0    0 -0.25645413200E+02 -0.99977651208E+02 -0.13710386888E+04  0.13772424770E+04  0.79978348954E+02 0.  0.
         25    2    1    2    0    0 -0.49781649786E+00  0.52763807190E+02 -0.74277475148E+01  0.13596875274E+03  0.12509221846E+03 0.  0.
        -24    2    1    2    0    0  0.26143229698E+02  0.47213844019E+02  0.27887076186E+03  0.29471231011E+03  0.78573713060E+02 0.  0.
        -11    1    3    3    0    0  0.28418051872E+02 -0.40634196867E+02 -0.45548390788E+03  0.45817498181E+03  0.00000000000E+00 0.  1.
         12    1    3    3    0    0 -0.54063465072E+02 -0.59343454342E+02 -0.91555478090E+03  0.91906749515E+03  0.00000000000E+00 0. -1.
         11    1    5    5    0    0  0.43213667541E+00  0.12290152203E+02 -0.19268661175E+00  0.12299256539E+02  0.00000000000E+00 0. -1.
        -12    1    5    5    0    0  0.25711093023E+02  0.34923691815E+02  0.27906344847E+03  0.28241305357E+03  0.00000000000E+00 0.  1.
          5    1    4    4  501    0  0.55723076536E+02  0.94483089778E+01  0.19516685206E+02  0.59939179196E+02  0.41800000000E+01 0. -1.
         -5    1    4    4    0  501 -0.56220893034E+02  0.43315498212E+02 -0.26944432721E+02  0.76029573546E+02  0.41800000000E+01 0. -1.
</event>
<event>
11    1  0.6625361E-009  0.1583408E+03  0.7561462E-02  0.1088648E+00
         22   -1    0    0    0    0  0.00000000000E+00  0.00000000000E+00  0.74965054679E+03  0.74965054679E+03  0.00000000000E+00 0.  1.
         22   -1    0    0    0    0 -0.00000000000E+00 -0.00000000000E+00 -0.39755780745E+03  0.39755780745E+03  0.00000000000E+00 0.  1.
         24    2    1    2    0    0 -0.85287816762E+01  0.10721513065E+03 -0.34710583092E+03  0.37242422945E+03  0.81544616421E+02 0.  0.
         25    2    1    2    0    0 -0.81316728426E+02 -0.34050979028E+02  0.19069891825E+03  0.24451068343E+03  0.12509003717E+03 0.  0.
        -24    2    1    2    0    0  0.89845510102E+02 -0.73164151620E+02  0.50849965201E+03  0.53027344136E+03  0.95879183064E+02 0.  0.
        -11    1    3    3    0    0 -0.39173786973E+02  0.83309812433E+02 -0.19831792614E+03  0.21864379768E+03  0.00000000000E+00 0.  1.
         12    1    3    3    0    0  0.30645005296E+02  0.23905318215E+02 -0.14878790478E+03  0.15378043177E+03  0.00000000000E+00 0. -1.
         11    1    5    5    0    0  0.21539864561E+02  0.20222718707E+02  0.57217392613E+02  0.64395295905E+02  0.00000000000E+00 0. -1.
        -12    1    5    5    0    0  0.68305645540E+02 -0.93386870327E+02  0.45128225940E+03  0.46587814545E+03  0.00000000000E+00 0.  1.
          5    1    4    4  501    0 -0.98218645919E+01  0.38301895424E+02  0.17141403996E+02  0.43299010937E+02  0.41800000000E+01 0.  1.
         -5    1    4    4    0  501 -0.71494863834E+02 -0.72352874452E+02  0.17355751425E+03  0.20121167250E+03  0.41800000000E+01 0.  1.
</event>
<event>
11    1  0.6625361E-009  0.1376462E+03  0.7561462E-02  0.1110216E+00
         22   -1    0    0    0    0  0.00000000000E+00  0.00000000000E+00  0.14089515319E+04  0.14089515319E+04  0.00000000000E+00 0. -1.
         22   -1    0    0    0    0 -0.00000000000E+00 -0.00000000000E+00 -0.70514498483E+03  0.70514498483E+03  0.00000000000E+00 0. -1.
        -24    2    1    2    0    0 -0.36757940006E+02 -0.25502153496E+02 -0.68253982681E+03  0.68887186910E+03  0.81745525063E+02 0.  0.
         25    2    1    2    0    0  0.19733490448E+01  0.71218833124E+02  0.28217068894E+03  0.31677021589E+03  0.12508819160E+03 0.  0.
         24    2    1    2    0    0  0.34784590961E+02 -0.45716679628E+02  0.11041756849E+04  0.11084544317E+04  0.78532168363E+02 0.  0.
        -11    1    5    5    0    0  0.34527186359E+02  0.13269814186E+02  0.34022517683E+03  0.34223001843E+03  0.00000000000E+00 0.  1.
         12    1    5    5    0    0  0.25740460207E+00 -0.58986493814E+02  0.76395050811E+03  0.76622441331E+03  0.00000000000E+00 0. -1.
         11    1    3    3    0    0  0.59056475650E+01 -0.43026285102E+02 -0.42701580240E+03  0.42921863122E+03  0.00000000000E+00 0. -1.
        -12    1    3    3    0    0 -0.42663587571E+02  0.17524131606E+02 -0.25552402441E+03  0.25965323788E+03  0.00000000000E+00 0.  1.
          5    1    4    4  501    0 -0.35114466884E+02 -0.30321024941E+01  0.18736782624E+03  0.19069974866E+03  0.41800000000E+01 0.  1.
         -5    1    4    4    0  501  0.37087815929E+02  0.74250935619E+02  0.94802862707E+02  0.12607046723E+03  0.41800000000E+01 0.  1.
</event>
<event>
11    1  0.6625361E-009  0.1365993E+03  0.7561462E-02  0.1111416E+00
         22   -1    0    0    0    0  0.00000000000E+00  0.00000000000E+00  0.10696179868E+03  0.10696179868E+03  0.00000000000E+00 0.  1.
         22   -1    0    0    0    0 -0.00000000000E+00 -0.00000000000E+00 -0.82565039859E+03  0.82565039859E+03  0.00000000000E+00 0.  1.
        -24    2    1    2    0    0 -0.49207315855E+02 -0.18813391656E+02 -0.64672831726E+03  0.65413342510E+03  0.82811338939E+02 0.  0.
         25    2    1    2    0    0  0.80168696211E+02  0.66617327870E+01 -0.10581872441E+03  0.18252805805E+03  0.12508993167E+03 0.  0.
         24    2    1    2    0    0 -0.30961380356E+02  0.12151658869E+02  0.33858441758E+02  0.95950714114E+02  0.83389900911E+02 0.  0.
        -11    1    5    5    0    0  0.23776022585E+02 -0.12008700618E+02  0.22891454299E+02  0.35121600482E+02  0.00000000000E+00 0.  1.
         12    1    5    5    0    0 -0.54737402941E+02  0.24160359487E+02  0.10966987458E+02  0.60829113632E+02  0.00000000000E+00 0. -1.
         13    1    3    3    0    0 -0.59041337431E+01 -0.41830576896E+02 -0.18268054341E+03  0.18750156505E+03  0.00000000000E+00 0. -1.
        -14    1    3    3    0    0 -0.43303182112E+02  0.23017185240E+02 -0.46404777385E+03  0.46663186005E+03  0.00000000000E+00 0.  1.
          5    1    4    4  501    0  0.38645695223E+02  0.65751489503E+02 -0.54002465391E+02  0.93544036685E+02  0.41800000000E+01 0.  1.
         -5    1    4    4    0  501  0.41523000988E+02 -0.59089756716E+02 -0.51816259019E+02  0.88984021366E+02  0.41800000000E+01 0.  1.
</event>
<event>
11    1  0.6625361E-009  0.1918075E+03  0.7561462E-02  0.1060473E+00
         22   -1    0    0    0    0  0.00000000000E+00  0.00000000000E+00  0.10665773614E+04  0.10665773614E+04  0.00000000000E+00 0.  1.
         22   -1    0    0    0    0 -0.00000000000E+00 -0.00000000000E+00 -0.12600567732E+04  0.12600567732E+04  0.00000000000E+00 0.  1.
         24    2    1    2    0    0 -0.14400147646E+03  0.31082403460E+02 -0.12189824708E+04  0.12305546233E+04  0.81509972131E+02 0.  0.
         25    2    1    2    0    0  0.73919853302E+02  0.92496657387E+02  0.25145879871E+03  0.30479239565E+03  0.12508837138E+03 0.  0.
        -24    2    1    2    0    0  0.70081623154E+02 -0.12357906085E+03  0.77404426037E+03  0.79128711574E+03  0.82507965282E+02 0.  0.
        -13    1    3    3    0    0 -0.12414416183E+03  0.13801948926E+02 -0.71086243894E+03  0.72175319452E+03  0.00000000000E+00 0.  1.
         14    1    3    3    0    0 -0.19857314623E+02  0.17280454534E+02 -0.50812003191E+03  0.50880142874E+03  0.00000000000E+00 0. -1.
         11    1    5    5    0    0  0.83026355744E+02 -0.82211792381E+02  0.47727383196E+03  0.49136795299E+03  0.00000000000E+00 0. -1.
        -12    1    5    5    0    0 -0.12944732590E+02 -0.41367268466E+02  0.29677042841E+03  0.29991916274E+03  0.00000000000E+00 0.  1.
          5    1    4    4  501    0  0.32242018559E+02  0.49397297093E+02  0.15268770949E+02  0.61075760226E+02  0.41800000000E+01 0. -1.
         -5    1    4    4    0  501  0.41677834743E+02  0.43099360294E+02  0.23619002776E+03  0.24371663542E+03  0.41800000000E+01 0. -1.
</event>
<event>
11    1  0.6625361E-009  0.1679881E+03  0.7561462E-02  0.1079796E+00
         22   -1    0    0    0    0  0.00000000000E+00  0.00000000000E+00  0.78267821996E+03  0.78267821996E+03  0.00000000000E+00 0.  1.
         22   -1    0    0    0    0 -0.00000000000E+00 -0.00000000000E+00 -0.86118303287E+03  0.86118303287E+03  0.00000000000E+00 0.  1.
         24    2    1    2    0    0  0.42205306699E+02  0.88958422761E+02 -0.82140550570E+03  0.83115088252E+03  0.80061825014E+02 0.  0.
         25    2    1    2    0    0 -0.13009919980E+03 -0.12685827655E+02  0.33218165196E+03  0.37825808143E+03  0.12509114380E+03 0.  0.
        -24    2    1    2    0    0  0.87893893101E+02 -0.76272595106E+02  0.41071904083E+03  0.43445228888E+03  0.80720602120E+02 0.  0.
        -13    1    3    3    0    0  0.64519729016E+02  0.72717994153E+02 -0.69510882345E+03  0.70187390501E+03  0.00000000000E+00 0.  1.
         14    1    3    3    0    0 -0.22314422317E+02  0.16240428608E+02 -0.12629668225E+03  0.12927697750E+03  0.00000000000E+00 0. -1.
         11    1    5    5    0    0  0.62451354600E+02 -0.36446546906E+02  0.12143102843E+03  0.14132946310E+03  0.00000000000E+00 0. -1.
        -12    1    5    5    0    0  0.25442538501E+02 -0.39826048200E+02  0.28928801240E+03  0.29312282579E+03  0.00000000000E+00 0.  1.
          5    1    4    4  501    0 -0.95624873770E+02  0.49735885906E+02  0.17443550736E+03  0.20509264604E+03  0.41800000000E+01 0. -1.
         -5    1    4    4    0  501 -0.34474326030E+02 -0.62421713561E+02  0.15774614460E+03  0.17316543539E+03  0.41800000000E+01 0. -1.
</event>
<event>
11    1  0.6625361E-009  0.1770394E+03  0.7561462E-02  0.1072063E+00
         22   -1    0    0    0    0  0.00000000000E+00  0.00000000000E+00  0.19122480017E+03  0.19122480017E+03  0.00000000000E+00 0. -1.
         22   -1    0    0    0    0 -0.00000000000E+00 -0.00000000000E+00 -0.12898555427E+04  0.12898555427E+04  0.00000000000E+00 0. -1.
        -24    2    1    2    0    0  0.14912552891E+02 -0.74039756875E+01 -0.10805043906E+04  0.10835740470E+04  0.79785801576E+02 0.  0.
         25    2    1    2    0    0 -0.11957960183E+03 -0.58446555736E+02 -0.12044267088E+03  0.21879042684E+03  0.12509009897E+03 0.  0.
         24    2    1    2    0    0  0.10466704894E+03  0.65850531423E+02  0.10231631889E+03  0.17871586908E+03  0.78608200120E+02 0.  0.
        -11    1    5    5    0    0  0.54274375550E+02 -0.32246549205E+01  0.14765002323E+02  0.56339253938E+02  0.00000000000E+00 0.  1.
         12    1    5    5    0    0  0.50392673385E+02  0.69075186344E+02  0.87551316571E+02  0.12237661514E+03  0.00000000000E+00 0. -1.
         11    1    3    3    0    0 -0.26222957730E+02 -0.15622786135E+02 -0.71836275683E+03  0.71901096331E+03  0.00000000000E+00 0. -1.
        -12    1    3    3    0    0  0.41135510621E+02  0.82188104470E+01 -0.36214163374E+03  0.36456308366E+03  0.00000000000E+00 0.  1.
          5    1    4    4  501    0 -0.12309405750E+03 -0.68175742980E+02 -0.13855194199E+03  0.19752010518E+03  0.41800000000E+01 0.  1.
         -5    1    4    4    0  501  0.35144556722E+01  0.97291872443E+01  0.18109271117E+02  0.21270321660E+02  0.41800000000E+01 0.  1.
</event>
<event>
11    1  0.6625361E-009  0.1761089E+03  0.7561462E-02  0.1072834E+00
         22   -1    0    0    0    0  0.00000000000E+00  0.00000000000E+00  0.15970023359E+03  0.15970023359E+03  0.00000000000E+00 0. -1.
         22   -1    0    0    0    0 -0.00000000000E+00 -0.00000000000E+00 -0.46442371512E+03  0.46442371512E+03  0.00000000000E+00 0. -1.
        -24    2    1    2    0    0  0.33789396839E+02  0.71095645487E+01 -0.25278813240E+03  0.26800692264E+03  0.82058524554E+02 0.  0.
         25    2    1    2    0    0 -0.12990196074E+03  0.60126423662E+02 -0.87089228501E+02  0.20909847175E+03  0.12509169014E+03 0.  0.
         24    2    1    2    0    0  0.96112563896E+02 -0.67235988211E+02  0.35153879379E+02  0.14701855432E+03  0.81365576447E+02 0.  0.
        -13    1    5    5    0    0  0.47943446822E+02 -0.50587099291E+01  0.47176487414E+02  0.67452098588E+02  0.00000000000E+00 0.  1.
         14    1    5    5    0    0  0.48169117075E+02 -0.62177278282E+02 -0.12022608035E+02  0.79566455735E+02  0.00000000000E+00 0. -1.
         11    1    3    3    0    0  0.31350046556E+02 -0.29888447327E+02 -0.19181733368E+03  0.19664697863E+03  0.00000000000E+00 0. -1.
        -12    1    3    3    0    0  0.24393502834E+01  0.36998011876E+02 -0.60970798720E+02  0.71359944010E+02  0.00000000000E+00 0.  1.
          5    1    4    4  501    0 -0.28153108164E+02  0.48151638423E+02 -0.90630124389E+02  0.10650103112E+03  0.41800000000E+01 0. -1.
         -5    1    4    4    0  501 -0.10174885257E+03  0.11974785239E+02  0.35408958883E+01  0.10259744063E+03  0.41800000000E+01 0. -1.
</event>
<event>
11    1  0.6625361E-009  0.1933673E+03  0.7561462E-02  0.1059316E+00
         22   -1    0    0    0    0  0.00000000000E+00  0.00000000000E+00  0.15816173782E+04  0.15816173782E+04  0.00000000000E+00 0. -1.
         22   -1    0    0    0    0 -0.00000000000E+00 -0.00000000000E+00 -0.10317516821E+04  0.10317516821E+04  0.00000000000E+00 0. -1.
        -24    2    1    2    0    0  0.54406285474E+01 -0.14659905714E+03 -0.98754445086E+03  0.10015441030E+04  0.79534041668E+02 0.  0.
         25    2    1    2    0    0 -0.33272626467E+02  0.18542732278E+03  0.32567262418E+03  0.39648451166E+03  0.12508776976E+03 0.  0.
         24    2    1    2    0    0  0.27831997919E+02 -0.38828265645E+02  0.12117375228E+04  0.12153404457E+04  0.80388559584E+02 0.  0.
        -11    1    5    5    0    0  0.53153972619E+02 -0.25266263165E+02  0.58702487024E+03  0.58996773398E+03  0.00000000000E+00 0.  1.
         12    1    5    5    0    0 -0.25321974699E+02 -0.13562002480E+02  0.62471265252E+03  0.62537271169E+03  0.00000000000E+00 0. -1.
         11    1    3    3    0    0 -0.13995848428E+02 -0.11199587118E+03 -0.50933855931E+03  0.52169409326E+03  0.00000000000E+00 0. -1.
        -12    1    3    3    0    0  0.19436476975E+02 -0.34603185953E+02 -0.47820589154E+03  0.47985000971E+03  0.00000000000E+00 0.  1.
          5    1    4    4  501    0  0.13188271694E+02  0.15420085083E+03  0.29337736397E+03  0.33172214728E+03  0.41800000000E+01 0.  1.
         -5    1    4    4    0  501 -0.46460898160E+02  0.31226471954E+02  0.32295260208E+02  0.64762364383E+02  0.41800000000E+01 0.  1.
</event>
<event>
11    1  0.6625361E-009  0.1490839E+03  0.7561462E-02  0.1097819E+00
         22   -1    0    0    0    0  0.00000000000E+00  0.00000000000E+00  0.55109757903E+03  0.55109757903E+03  0.00000000000E+00 0. -1.
         22   -1    0    0    0    0 -0.00000000000E+00 -0.00000000000E+00 -0.24425856838E+03  0.24425856838E+03  0.00000000000E+00 0.  1.
        -24    2    1    2    0    0 -0.33728738444E+02 -0.77688064384E+02 -0.19086032268E+03  0.22313384078E+03  0.78663746295E+02 0.  0.
         25    2    1    2    0    0  0.75824925443E+02  0.58321772166E+01  0.16787683121E+03  0.22274188591E+03  0.12509150119E+03 0.  0.
         24    2    1    2    0    0 -0.42096187000E+02  0.71855887168E+02  0.32982250212E+03  0.34948042072E+03  0.80114443670E+02 0.  0.
        -13    1    5    5    0    0  0.23062833459E+02  0.88427559265E+01  0.62247669280E+02  0.66969104446E+02  0.00000000000E+00 0.  1.
         14    1    5    5    0    0 -0.65159020459E+02  0.63013131241E+02  0.26757483284E+03  0.28251131628E+03  0.00000000000E+00 0. -1.
         13    1    3    3    0    0 -0.37564223412E+02 -0.51163158811E+02 -0.52994291128E+02  0.82686967487E+02  0.00000000000E+00 0. -1.
        -14    1    3    3    0    0  0.38354849681E+01 -0.26524905573E+02 -0.13786603156E+03  0.14044687329E+03  0.00000000000E+00 0.  1.
          5    1    4    4  501    0  0.10084969784E+03 -0.86297366042E+01  0.16470577106E+03  0.19336648450E+03  0.41800000000E+01 0.  1.
         -5    1    4    4    0  501 -0.25024772401E+02  0.14461913821E+02  0.31710601542E+01  0.29375401403E+02  0.41800000000E+01 0.  1.
</event>
<event>
11    1  0.6625361E-009  0.1348985E+03  0.7561462E-02  0.1113393E+00
         22   -1    0    0    0    0  0.00000000000E+00  0.00000000000E+00  0.93280937351E+03  0.93280937351E+03  0.00000000000E+00 0. -1.
         22   -1    0    0    0    0 -0.00000000000E+00 -0.00000000000E+00 -0.77377502589E+02  0.77377502589E+02  0.00000000000E+00 0.  1.
        -24    2    1    2    0    0 -0.98897326295E+01 -0.52334081203E+02 -0.17637900348E+02  0.96930797230E+02  0.79043159452E+02 0.  0.
         25    2    1    2    0    0 -0.19544452414E+02  0.35884981760E+02  0.23555559480E+03  0.26983076100E+03  0.12510988693E+03 0.  0.
         24    2    1    2    0    0  0.29434185043E+02  0.16449099444E+02  0.63751417647E+03  0.64342531787E+03  0.80217643618E+02 0.  0.
        -11    1    5    5    0    0  0.41578049137E+02  0.30061191762E+02  0.23672639307E+03  0.24222261372E+03  0.00000000000E+00 0.  1.
         12    1    5    5    0    0 -0.12143864094E+02 -0.13612092319E+02  0.40078778340E+03  0.40120270415E+03  0.00000000000E+00 0. -1.
         11    1    3    3    0    0 -0.15473435647E+02 -0.56476393552E+02  0.17495986168E+02  0.61115626245E+02  0.00000000000E+00 0. -1.
        -12    1    3    3    0    0  0.55837030176E+01  0.41423123486E+01 -0.35133886516E+02  0.35815170985E+02  0.00000000000E+00 0.  1.
          5    1    4    4  501    0  0.47513955894E+01  0.13060013151E+01 -0.14668427932E+02  0.16028617454E+02  0.41800000000E+01 0.  1.
         -5    1    4    4    0  501 -0.24295848003E+02  0.34578980445E+02  0.25022402273E+03  0.25380214355E+03  0.41800000000E+01 0.  1.
</event>
<event>
11    1  0.6625361E-009  0.1474600E+03  0.7561462E-02  0.1099503E+00
         22   -1    0    0    0    0  0.00000000000E+00  0.00000000000E+00  0.84637556267E+03  0.84637556267E+03  0.00000000000E+00 0.  1.
         22   -1    0    0    0    0 -0.00000000000E+00 -0.00000000000E+00 -0.21915649814E+03  0.21915649814E+03  0.00000000000E+00 0. -1.
         24    2    1    2    0    0 -0.27974619990E+02 -0.13694176936E+02 -0.11006336583E+02  0.87239187329E+02  0.80742965733E+02 0.  0.
         25    2    1    2    0    0  0.32831891703E+01 -0.60850040995E+02 -0.13748827018E+03  0.19561233214E+03  0.12509058009E+03 0.  0.
        -24    2    1    2    0    0  0.24691430820E+02  0.74544217931E+02  0.77571367130E+03  0.78268054135E+03  0.68488121547E+02 0.  0.
        -11    1    3    3    0    0  0.16260729409E+02 -0.27101040798E+02  0.14134806829E+02  0.34621821116E+02  0.00000000000E+00 0.  1.
         12    1    3    3    0    0 -0.44235349400E+02  0.13406863862E+02 -0.25141143413E+02  0.52617366214E+02  0.00000000000E+00 0. -1.
         13    1    5    5    0    0  0.39330680269E+02  0.13862046599E+02  0.32508560681E+03  0.32774946300E+03  0.00000000000E+00 0. -1.
        -14    1    5    5    0    0 -0.14639249449E+02  0.60682171332E+02  0.45062806449E+03  0.45493107835E+03  0.00000000000E+00 0.  1.
          5    1    4    4  501    0 -0.59193246278E+00 -0.15308489778E+02 -0.14773462711E+03  0.14858564093E+03  0.41800000000E+01 0. -1.
         -5    1    4    4    0  501  0.38751216331E+01 -0.45541551217E+02  0.10246356935E+02  0.47026691201E+02  0.41800000000E+01 0. -1.
</event>
<event>
11    1  0.6625361E-009  0.1405365E+03  0.7561462E-02  0.1106961E+00
         22   -1    0    0    0    0  0.00000000000E+00  0.00000000000E+00  0.18123442294E+03  0.18123442294E+03  0.00000000000E+00 0.  1.
         22   -1    0    0    0    0 -0.00000000000E+00 -0.00000000000E+00 -0.11451331340E+04  0.11451331340E+04  0.00000000000E+00 0.  1.
        -24    2    1    2    0    0 -0.25785872099E+02  0.21329222697E+02 -0.92003129678E+03  0.92430052018E+03  0.82182830370E+02 0.  0.
         25    2    1    2    0    0  0.28604072739E+02 -0.83685892725E+02 -0.17849153219E+03  0.23521556854E+03  0.12508243283E+03 0.  0.
         24    2    1    2    0    0 -0.28182006398E+01  0.62356670028E+02  0.13462411789E+03  0.16685146824E+03  0.76285403468E+02 0.  0.
        -11    1    5    5    0    0  0.36319804105E+02  0.32711815710E+02  0.76288192431E+02  0.90603969900E+02  0.00000000000E+00 0.  1.
         12    1    5    5    0    0 -0.39138004745E+02  0.29644854318E+02  0.58335925463E+02  0.76247498337E+02  0.00000000000E+00 0. -1.
         13    1    3    3    0    0 -0.37693870205E+02  0.14431686064E+02 -0.19474467912E+03  0.19888336145E+03  0.00000000000E+00 0. -1.
        -14    1    3    3    0    0  0.11907998106E+02  0.68975366328E+01 -0.72528661766E+03  0.72541715873E+03  0.00000000000E+00 0.  1.
          5    1    4    4  501    0 -0.42808992572E+02 -0.59202217481E+01 -0.29235294476E+02  0.52343420921E+02  0.41800000000E+01 0. -1.
         -5    1    4    4    0  501  0.71413065311E+02 -0.77765670977E+02 -0.14925623771E+03  0.18287214762E+03  0.41800000000E+01 0. -1.
</event>
<event>
11    1  0.6625361E-009  0.1280612E+03  0.7561462E-02  0.1121674E+00
         22   -1    0    0    0    0  0.00000000000E+00  0.00000000000E+00  0.36641731418E+03  0.36641731418E+03  0.00000000000E+00 0.  1.
         22   -1    0    0    0    0 -0.00000000000E+00 -0.00000000000E+00 -0.20635472933E+03  0.20635472933E+03  0.00000000000E+00 0.  1.
        -24    2    1    2    0    0  0.26998646640E+02  0.14005737930E+02 -0.13047963122E+03  0.15541176248E+03  0.78757819535E+02 0.  0.
         25    2    1    2    0    0 -0.15107935214E+02  0.65017923800E+01  0.12025265170E+02  0.12673576472E+03  0.12508726573E+03 0.  0.
         24    2    1    2    0    0 -0.11890711425E+02 -0.20507530310E+02  0.27851695090E+03  0.29062451631E+03  0.79554822123E+02 0.  0.
        -11    1    5    5    0    0 -0.18024923204E+01  0.29028623493E+02  0.14431988388E+03  0.14722139398E+03  0.00000000000E+00 0.  1.
         12    1    5    5    0    0 -0.10088219105E+02 -0.49536153803E+02  0.13419706702E+03  0.14340312233E+03  0.00000000000E+00 0. -1.
         13    1    3    3    0    0 -0.10127628369E+02 -0.78512024068E+01  0.46101290291E+01  0.13618499377E+02  0.00000000000E+00 0. -1.
        -14    1    3    3    0    0  0.37126275008E+02  0.21856940337E+02 -0.13508976025E+03  0.14179326310E+03  0.00000000000E+00 0.  1.
          5    1    4    4  501    0 -0.54458899345E+02 -0.33544726536E+02 -0.12535190292E+02  0.65311743139E+02  0.41800000000E+01 0. -1.
         -5    1    4    4    0  501  0.39350964130E+02  0.40046518916E+02  0.24560455462E+02  0.61424021586E+02  0.41800000000E+01 0. -1.
</event>
<event>
11    1  0.6625361E-009  0.1360905E+03  0.7561462E-02  0.1112004E+00
         22   -1    0    0    0    0  0.00000000000E+00  0.00000000000E+00  0.17304400628E+04  0.17304400628E+04  0.00000000000E+00 0.  1.
         22   -1    0    0    0    0 -0.00000000000E+00 -0.00000000000E+00 -0.49295515628E+03  0.49295515628E+03  0.00000000000E+00 0. -1.
        -24    2    1    2    0    0  0.15949409648E+02  0.25637568692E+01 -0.47909142512E+03  0.48684012272E+03  0.84992675880E+02 0.  0.
         25    2    1    2    0    0 -0.63762590888E+02 -0.19299731994E+02  0.60862462018E+03  0.62490764745E+03  0.12508993528E+03 0.  0.
         24    2    1    2    0    0  0.47813181241E+02  0.16735975125E+02  0.11079517115E+04  0.11116474489E+04  0.75079042005E+02 0.  0.
        -11    1    5    5    0    0  0.58739306864E+02  0.33364125769E+00  0.10114265928E+04  0.10131308751E+04  0.00000000000E+00 0.  1.
         12    1    5    5    0    0 -0.10926125623E+02  0.16402333867E+02  0.96525118636E+02  0.98516573759E+02  0.00000000000E+00 0. -1.
         11    1    3    3    0    0  0.43526844035E+02 -0.13743155633E+02 -0.16756586614E+03  0.17367147138E+03  0.00000000000E+00 0. -1.
        -12    1    3    3    0    0 -0.27577434387E+02  0.16306912502E+02 -0.31152555898E+03  0.31316865134E+03  0.00000000000E+00 0.  1.
          5    1    4    4  501    0 -0.79631358127E+02 -0.49943457856E+02  0.53829724641E+03  0.54645850718E+03  0.41800000000E+01 0.  1.
         -5    1    4    4    0  501  0.15868767238E+02  0.30643725862E+02  0.70327373767E+02  0.78449140271E+02  0.41800000000E+01 0.  1.
</event>
<event>
11    1  0.6625361E-009  0.1499607E+03  0.7561462E-02  0.1096919E+00
         22   -1    0    0    0    0  0.00000000000E+00  0.00000000000E+00  0.45919369150E+03  0.45919369150E+03  0.00000000000E+00 0.  1.
         22   -1    0    0    0    0 -0.00000000000E+00 -0.00000000000E+00 -0.10869076255E+04  0.10869076255E+04  0.00000000000E+00 0.  1.
        -24    2    1    2    0    0  0.19977588199E+02  0.34319632725E+02 -0.10454367181E+04  0.10492024176E+04  0.79440797488E+02 0.  0.
         25    2    1    2    0    0  0.66150816879E+02 -0.49136631501E+02  0.24951680697E+03  0.29102569829E+03  0.12508789299E+03 0.  0.
         24    2    1    2    0    0 -0.86128405078E+02  0.14816998776E+02  0.16820597714E+03  0.20587320111E+03  0.80329811257E+02 0.  0.
        -13    1    5    5    0    0 -0.62633095749E+02  0.90447326737E+01  0.17021292680E+03  0.18159612420E+03  0.00000000000E+00 0.  1.
         14    1    5    5    0    0 -0.23495309330E+02  0.57722661025E+01 -0.20069496676E+01  0.24277076912E+02  0.00000000000E+00 0. -1.
         11    1    3    3    0    0  0.43601741563E+01  0.10305977669E+02 -0.16913077322E+02  0.20279952635E+02  0.00000000000E+00 0. -1.
        -12    1    3    3    0    0  0.15617414043E+02  0.24013655056E+02 -0.10285236408E+04  0.10289224650E+04  0.00000000000E+00 0.  1.
          5    1    4    4  501    0  0.23564639672E+02  0.23029274525E+02  0.17712665993E+03  0.18021366704E+03  0.41800000000E+01 0. -1.
         -5    1    4    4    0  501  0.42586177207E+02 -0.72165906026E+02  0.72390147043E+02  0.11081203125E+03  0.41800000000E+01 0. -1.
</event>
<event>
11    1  0.6625361E-009  0.1947002E+03  0.7561462E-02  0.1058336E+00
         22   -1    0    0    0    0  0.00000000000E+00  0.00000000000E+00  0.57020814111E+03  0.57020814111E+03  0.00000000000E+00 0. -1.
         22   -1    0    0    0    0 -0.00000000000E+00 -0.00000000000E+00 -0.13393656218E+04  0.13393656218E+04  0.00000000000E+00 0. -1.
         24    2    1    2    0    0 -0.45899017213E+02  0.30193754595E+02 -0.10855837911E+04  0.10899811521E+04  0.80921949808E+02 0.  0.
         25    2    1    2    0    0 -0.11412619792E+02  0.11024769545E+03 -0.20833581759E+03  0.26708950135E+03  0.12509271201E+03 0.  0.
        -24    2    1    2    0    0  0.57311637005E+02 -0.14044145005E+03  0.52476212798E+03  0.55250310942E+03  0.82921470809E+02 0.  0.
        -13    1    3    3    0    0 -0.38553932920E+02  0.63083735041E+01 -0.18638572267E+03  0.19043591818E+03  0.00000000000E+00 0.  1.
         14    1    3    3    0    0 -0.73450842932E+01  0.23885381091E+02 -0.89919806838E+03  0.89954523393E+03  0.00000000000E+00 0. -1.
         11    1    5    5    0    0  0.47947803112E+02 -0.15117441146E+03  0.48433891621E+03  0.50964387591E+03  0.00000000000E+00 0. -1.
        -12    1    5    5    0    0  0.93638338931E+01  0.10732961418E+02  0.40423211777E+02  0.42859233502E+02  0.00000000000E+00 0.  1.
          5    1    4    4  501    0  0.21838191204E+02  0.43858697111E+02 -0.18147555191E+03  0.18801952092E+03  0.41800000000E+01 0. -1.
         -5    1    4    4    0  501 -0.33250810996E+02  0.66388998340E+02 -0.26860265684E+02  0.79069980429E+02  0.41800000000E+01 0. -1.
</event>
<event>
11    1  0.6625361E-009  0.1280269E+03  0.7561462E-02  0.1121717E+00
         22   -1    0    0    0    0  0.00000000000E+00  0.00000000000E+00  0.82202822868E+03  0.82202822868E+03  0.00000000000E+00 0.  1.
         22   -1    0    0    0    0 -0.00000000000E+00 -0.00000000000E+00 -0.29335387363E+03  0.29335387363E+03  0.00000000000E+00 0.  1.
         24    2    1    2    0    0  0.26404477572E+02 -0.11544364164E+02 -0.26171503913E+03  0.27876974999E+03  0.91582438405E+02 0.  0.
         25    2    1    2    0    0  0.58465527959E+01 -0.77422031985E+01  0.17731758503E+03  0.21721571304E+03  0.12508803356E+03 0.  0.
        -24    2    1    2    0    0 -0.32251030368E+02  0.19286567362E+02  0.61307180914E+03  0.61939663928E+03  0.79894010696E+02 0.  0.
        -13    1    3    3    0    0  0.18739539949E+02  0.98652668556E+01 -0.25381389377E+03  0.25469587064E+03  0.00000000000E+00 0.  1.
         14    1    3    3    0    0  0.76649376230E+01 -0.21409631019E+02 -0.79011453540E+01  0.24073879352E+02  0.00000000000E+00 0. -1.
         13    1    5    5    0    0 -0.15040064730E+02 -0.37179561375E+00  0.16796460725E+02  0.22549121312E+02  0.00000000000E+00 0. -1.
        -14    1    5    5    0    0 -0.17210965637E+02  0.19658362976E+02  0.59627534841E+03  0.59684751796E+03  0.00000000000E+00 0.  1.
          5    1    4    4  501    0  0.65245871486E+02  0.10888863053E+00  0.94467357956E+02  0.11488511532E+03  0.41800000000E+01 0.  1.
         -5    1    4    4    0  501 -0.59399318690E+02 -0.78510918291E+01  0.82850227079E+02  0.10233059773E+03  0.41800000000E+01 0.  1.
</event>
<event>
11    1  0.6625361E-009  0.1956535E+03  0.7561462E-02  0.1057641E+00
         22   -1    0    0    0    0  0.00000000000E+00  0.00000000000E+00  0.23835161118E+03  0.23835161118E+03  0.00000000000E+00 0.  1.
         22   -1    0    0    0    0 -0.00000000000E+00 -0.00000000000E+00 -0.93223458751E+03  0.93223458751E+03  0.00000000000E+00 0.  1.
         24    2    1    2    0    0  0.14868914598E+02 -0.89316338048E+01 -0.53326882405E+03  0.53948761228E+03  0.79814700429E+02 0.  0.
         25    2    1    2    0    0  0.13587271387E+03 -0.90645484540E+01 -0.33789439640E+03  0.38518024578E+03  0.12509052008E+03 0.  0.
        -24    2    1    2    0    0 -0.15074162847E+03  0.17996182259E+02  0.17728024411E+03  0.24591834063E+03  0.77463824956E+02 0.  0.
        -11    1    3    3    0    0  0.26054557709E+01  0.25288079682E+02 -0.41453852606E+03  0.41531730636E+03  0.00000000000E+00 0.  1.
         12    1    3    3    0    0  0.12263458827E+02 -0.34219713487E+02 -0.11873029799E+03  0.12417030593E+03  0.00000000000E+00 0. -1.
         11    1    5    5    0    0 -0.46828927850E+02  0.18772458156E+02  0.13969802809E+02  0.52349871626E+02  0.00000000000E+00 0. -1.
        -12    1    5    5    0    0 -0.10391270062E+03 -0.77627589686E+00  0.16331044130E+03  0.19356846900E+03  0.00000000000E+00 0.  1.
          5    1    4    4  501    0  0.11311691364E+03  0.47059373647E+02 -0.24893474171E+03  0.27748152881E+03  0.41800000000E+01 0.  1.
         -5    1    4    4    0  501  0.22755800226E+02 -0.56123922101E+02 -0.88959654691E+02  0.10769871698E+03  0.41800000000E+01 0.  1.
</event>
<event>
11    1  0.6625361E-009  0.1659033E+03  0.7561462E-02  0.1081653E+00
         22   -1    0    0    0    0  0.00000000000E+00  0.00000000000E+00  0.49122376229E+03  0.49122376229E+03  0.00000000000E+00 0.  1.
         22   -1    0    0    0    0 -0.00000000000E+00 -0.00000000000E+00 -0.18611513958E+03  0.18611513958E+03  0.00000000000E+00 0. -1.
        -24    2    1    2    0    0 -0.45414214750E+02 -0.17632289824E+02 -0.11028685283E+03  0.14456015357E+03  0.79756501601E+02 0.  0.
         25    2    1    2    0    0 -0.14940895743E+02 -0.84206408018E+02  0.86948791902E+02  0.17470768283E+03  0.12509489401E+03 0.  0.
         24    2    1    2    0    0  0.60355110493E+02  0.10183869784E+03  0.32844668364E+03  0.35807106548E+03  0.79522350343E+02 0.  0.
        -13    1    5    5    0    0  0.96044834318E+01  0.57879408137E+02  0.71467977791E+02  0.92465906354E+02  0.00000000000E+00 0.  1.
         14    1    5    5    0    0  0.50750627062E+02  0.43959289706E+02  0.25697870584E+03  0.26560515913E+03  0.00000000000E+00 0. -1.
         13    1    3    3    0    0 -0.18719988357E+02 -0.34397765046E+01 -0.11263939742E+03  0.11423617588E+03  0.00000000000E+00 0. -1.
        -14    1    3    3    0    0 -0.26694226393E+02 -0.14192513320E+02  0.23525445979E+01  0.30323977693E+02  0.00000000000E+00 0.  1.
          5    1    4    4  501    0 -0.55278046901E+02 -0.14240565304E+02  0.17820906283E+01  0.57263464935E+02  0.41800000000E+01 0.  1.
         -5    1    4    4    0  501  0.40337151158E+02 -0.69965842715E+02  0.85166701273E+02  0.11744421789E+03  0.41800000000E+01 0.  1.
</event>
<event>
11    1  0.6625361E-009  0.1534045E+03  0.7561462E-02  0.1093450E+00
         22   -1    0    0    0    0  0.00000000000E+00  0.00000000000E+00  0.64184808747E+03  0.64184808747E+03  0.00000000000E+00 0.  1.
         22   -1    0    0    0    0 -0.00000000000E+00 -0.00000000000E+00 -0.85256550113E+02  0.85256550113E+02  0.00000000000E+00 0. -1.
        -24    2    1    2    0    0  0.27782339205E+01  0.58298749116E+00 -0.14843248894E+02  0.91697978314E+02  0.90444119383E+02 0.  0.
         25    2    1    2    0    0 -0.21112228049E+02 -0.87053763778E+02  0.26386954001E+03  0.30544868422E+03  0.12509068945E+03 0.  0.
         24    2    1    2    0    0  0.18333994128E+02  0.86470776287E+02  0.30756524624E+03  0.32995797504E+03  0.80390012489E+02 0.  0.
        -13    1    5    5    0    0  0.36928333844E+02  0.92764712063E+02  0.25826680814E+03  0.27689481366E+03  0.00000000000E+00 0.  1.
         14    1    5    5    0    0 -0.18594339716E+02 -0.62939357760E+01  0.49298438096E+02  0.53063161381E+02  0.00000000000E+00 0. -1.
         13    1    3    3    0    0 -0.23229594533E+02 -0.29953192190E+02 -0.30487345848E+02  0.48644486238E+02  0.00000000000E+00 0. -1.
        -14    1    3    3    0    0  0.26007828454E+02  0.30536179681E+02  0.15644096955E+02  0.43053492076E+02  0.00000000000E+00 0.  1.
          5    1    4    4  501    0 -0.72673535389E+02 -0.38881971038E+02  0.12814093074E+03  0.15241660326E+03  0.41800000000E+01 0.  1.
         -5    1    4    4    0  501  0.51561307340E+02 -0.48171792740E+02  0.13572860927E+03  0.15303208096E+03  0.41800000000E+01 0.  1.
</event>
<event>
11    1  0.6625361E-009  0.1322785E+03  0.7561462E-02  0.1116501E+00
         22   -1    0    0    0    0  0.00000000000E+00  0.00000000000E+00  0.36016180668E+03  0.36016180668E+03  0.00000000000E+00 0.  1.
         22   -1    0    0    0    0 -0.00000000000E+00 -0.00000000000E+00 -0.13888117575E+04  0.13888117575E+04  0.00000000000E+00 0.  1.
        -24    2    1    2    0    0 -0.33364922330E+02 -0.26973654073E+02 -0.10525846793E+04  0.10565761313E+04  0.81103748568E+02 0.  0.
         25    2    1    2    0    0  0.51858389157E+02  0.34222395269E+01 -0.31417713748E+03  0.34213397446E+03  0.12508948205E+03 0.  0.
         24    2    1    2    0    0 -0.18493466827E+02  0.23551414546E+02  0.33811186592E+03  0.35026345847E+03  0.86418626588E+02 0.  0.
        -13    1    5    5    0    0 -0.33956889585E+02  0.10592564763E+02  0.32325952082E+03  0.32521068645E+03  0.00000000000E+00 0.  1.
         14    1    5    5    0    0  0.15463422758E+02  0.12958849783E+02  0.14852345100E+02  0.25052772024E+02  0.00000000000E+00 0. -1.
         11    1    3    3    0    0 -0.39406299664E-01  0.23815619726E+02 -0.14338562264E+03  0.14534999854E+03  0.00000000000E+00 0. -1.
        -12    1    3    3    0    0 -0.33325516031E+02 -0.50789273798E+02 -0.90919905666E+03  0.91122613274E+03  0.00000000000E+00 0.  1.
          5    1    4    4  501    0  0.32023518476E+00  0.56586922908E+02 -0.18117055757E+03  0.18984842829E+03  0.41800000000E+01 0.  1.
         -5    1    4    4    0  501  0.51538153973E+02 -0.53164683381E+02 -0.13300657991E+03  0.15228554617E+03  0.41800000000E+01 0.  1.
</event>
<event>
11    1  0.6625361E-009  0.1423533E+03  0.7561462E-02  0.1104959E+00
         22   -1    0    0    0    0  0.00000000000E+00  0.00000000000E+00  0.35755323250E+03  0.35755323250E+03  0.00000000000E+00 0. -1.
         22   -1    0    0    0    0 -0.00000000000E+00 -0.00000000000E+00 -0.83938121362E+03  0.83938121362E+03  0.00000000000E+00 0. -1.
         24    2    1    2    0    0 -0.56160459149E+02 -0.36298430189E+02 -0.58784544162E+03  0.59709363337E+03  0.80541731831E+02 0.  0.
         25    2    1    2    0    0  0.72913788158E+02  0.21135105323E+02 -0.21936269402E+03  0.26367771303E+03  0.12507130622E+03 0.  0.
        -24    2    1    2    0    0 -0.16753329009E+02  0.15163324866E+02  0.32538015452E+03  0.33616309973E+03  0.81380490337E+02 0.  0.
        -11    1    3    3    0    0 -0.53794971048E+02  0.90027355929E+01 -0.22970782700E+03  0.23609454450E+03  0.00000000000E+00 0.  1.
         12    1    3    3    0    0 -0.23654881009E+01 -0.45301165782E+02 -0.35813761462E+03  0.36099908887E+03  0.00000000000E+00 0. -1.
         13    1    5    5    0    0 -0.25381186821E+02  0.45930421348E+02  0.20645802746E+03  0.21302282824E+03  0.00000000000E+00 0. -1.
        -14    1    5    5    0    0  0.86278578119E+01 -0.30767096483E+02  0.11892212706E+03  0.12314027149E+03  0.00000000000E+00 0.  1.
          5    1    4    4  501    0  0.52516622260E+02 -0.44874306129E+02 -0.15237924216E+03  0.16735771510E+03  0.41800000000E+01 0. -1.
         -5    1    4    4    0  501  0.20397165898E+02  0.66009411453E+02 -0.66983451863E+02  0.96319997926E+02  0.41800000000E+01 0. -1.
</event>
<event>
11    1  0.6625361E-009  0.4436284E+03  0.7561462E-02  0.9529134E-01
         22   -1    0    0    0    0  0.00000000000E+00  0.00000000000E+00  0.76134624934E+03  0.76134624934E+03  0.00000000000E+00 0. -1.
         22   -1    0    0    0    0 -0.00000000000E+00 -0.00000000000E+00 -0.13274250580E+04  0.13274250580E+04  0.00000000000E+00 0.  1.
        -24    2    1    2    0    0  0.30509334348E+02  0.44505754200E+02 -0.96351260057E+03  0.96835061038E+03  0.80217152306E+02 0.  0.
         25    2    1    2    0    0 -0.30741327911E+03 -0.35183394870E+03 -0.72384764097E+02  0.48905641807E+03  0.12508626763E+03 0.  0.
         24    2    1    2    0    0  0.27690394476E+03  0.30732819450E+03  0.46981855602E+03  0.63136427889E+03  0.82249397043E+02 0.  0.
        -13    1    5    5    0    0  0.25625159906E+01 -0.68897034499E+00  0.23434632721E+02  0.23584384222E+02  0.00000000000E+00 0.  1.
         14    1    5    5    0    0  0.27434142877E+03  0.30801716484E+03  0.44638392330E+03  0.60777989466E+03  0.00000000000E+00 0. -1.
         13    1    3    3    0    0 -0.10359882788E+02 -0.89471828439E+01 -0.47817825945E+03  0.47837414966E+03  0.00000000000E+00 0. -1.
        -14    1    3    3    0    0  0.40869217136E+02  0.53452937044E+02 -0.48533434111E+03  0.48997646071E+03  0.00000000000E+00 0.  1.
          5    1    4    4  501    0 -0.23275107032E+03 -0.23307115569E+03  0.36620242480E+01  0.32943300862E+03  0.41800000000E+01 0. -1.
         -5    1    4    4    0  501 -0.74662208785E+02 -0.11876279301E+03 -0.76046788345E+02  0.15962340945E+03  0.41800000000E+01 0. -1.
</event>
<event>
11    1  0.6625361E-009  0.3153546E+03  0.7561462E-02  0.9938944E-01
         22   -1    0    0    0    0  0.00000000000E+00  0.00000000000E+00  0.12749370142E+04  0.12749370142E+04  0.00000000000E+00 0. -1.
         22   -1    0    0    0    0 -0.00000000000E+00 -0.00000000000E+00 -0.97501569239E+03  0.97501569239E+03  0.00000000000E+00 0.  1.
        -24    2    1    2    0    0 -0.10776534329E+03 -0.26644196372E+03 -0.86021823731E+03  0.91068891873E+03  0.82305538358E+02 0.  0.
         25    2    1    2    0    0  0.28974227759E+03  0.23788961732E+03  0.43872323078E+03  0.59048084186E+03  0.12508994336E+03 0.  0.
         24    2    1    2    0    0 -0.18197693430E+03  0.28552346406E+02  0.72141632830E+03  0.74878294597E+03  0.79394838175E+02 0.  0.
        -11    1    5    5    0    0 -0.68580202842E+02  0.14289295704E+02  0.14365004831E+03  0.15982103921E+03  0.00000000000E+00 0.  1.
         12    1    5    5    0    0 -0.11339673146E+03  0.14263050701E+02  0.57776627999E+03  0.58896190676E+03  0.00000000000E+00 0. -1.
         11    1    3    3    0    0  0.46161527784E+01 -0.47403070935E+02 -0.21227840094E+03  0.21755569289E+03  0.00000000000E+00 0. -1.
        -12    1    3    3    0    0 -0.11238149607E+03 -0.21903889279E+03 -0.64793983637E+03  0.69313322584E+03  0.00000000000E+00 0.  1.
          5    1    4    4  501    0  0.15536852582E+03  0.18684301297E+03  0.33176956590E+03  0.41126415789E+03  0.41800000000E+01 0.  1.
         -5    1    4    4    0  501  0.13437375178E+03  0.51046604344E+02  0.10695366488E+03  0.17921668397E+03  0.41800000000E+01 0.  1.
</event>
<event>
11    1  0.6625361E-009  0.2317721E+03  0.7561462E-02  0.1034084E+00
         22   -1    0    0    0    0  0.00000000000E+00  0.00000000000E+00  0.62763723765E+02  0.62763723765E+02  0.00000000000E+00 0. -1.
         22   -1    0    0    0    0 -0.00000000000E+00 -0.00000000000E+00 -0.22269963560E+04  0.22269963560E+04  0.00000000000E+00 0. -1.
         24    2    1    2    0    0  0.29697551921E+02  0.15434561313E+02 -0.11857513318E+04  0.11875211431E+04  0.55498417698E+02 0.  0.
         25    2    1    2    0    0  0.12550871631E+03 -0.13881950184E+03 -0.77395554686E+03  0.80602292611E+03  0.12506988825E+03 0.  0.
        -24    2    1    2    0    0 -0.15520626823E+03  0.12338494052E+03 -0.20452575360E+03  0.29621601050E+03  0.81242302663E+02 0.  0.
        -13    1    3    3    0    0 -0.12613865777E+01 -0.18446548257E+02 -0.28234108345E+03  0.28294584931E+03  0.00000000000E+00 0.  1.
         14    1    3    3    0    0  0.30958938498E+02  0.33881109570E+02 -0.90341024831E+03  0.90457529383E+03  0.00000000000E+00 0. -1.
         13    1    5    5    0    0 -0.16475166971E+03  0.11601306027E+03 -0.18673058860E+03  0.27471886638E+03  0.00000000000E+00 0. -1.
        -14    1    5    5    0    0  0.95454014771E+01  0.73718802483E+01 -0.17795165002E+02  0.21497144117E+02  0.00000000000E+00 0.  1.
          5    1    4    4  501    0  0.98326290675E+02 -0.13220909976E+03 -0.42371080141E+03  0.45463790112E+03  0.41800000000E+01 0. -1.
         -5    1    4    4    0  501  0.27182425633E+02 -0.66104020714E+01 -0.35024474544E+03  0.35138502499E+03  0.41800000000E+01 0. -1.
</event>
<event>
11    1  0.6625361E-009  0.1467681E+03  0.7561462E-02  0.1100228E+00
         22   -1    0    0    0    0  0.00000000000E+00  0.00000000000E+00  0.46279140947E+03  0.46279140947E+03  0.00000000000E+00 0.  1.
         22   -1    0    0    0    0 -0.00000000000E+00 -0.00000000000E+00 -0.12593080440E+04  0.12593080440E+04  0.00000000000E+00 0.  1.
        -24    2    1    2    0    0 -0.64149361233E+02 -0.38813103103E+02 -0.10387883863E+04  0.10446481910E+04  0.81159928208E+02 0.  0.
         25    2    1    2    0    0  0.12008045622E+03 -0.12832977924E+02 -0.17463998952E+03  0.24643543854E+03  0.12508916077E+03 0.  0.
         24    2    1    2    0    0 -0.55931094985E+02  0.51646081027E+02  0.41691174129E+03  0.43101582393E+03  0.78508823558E+02 0.  0.
        -11    1    5    5    0    0 -0.49054774410E+02  0.50765801927E+02  0.41806914192E+03  0.42398743491E+03  0.00000000000E+00 0.  1.
         12    1    5    5    0    0 -0.68763205748E+01  0.88027909942E+00 -0.11574006270E+01  0.70283890154E+01  0.00000000000E+00 0. -1.
         11    1    3    3    0    0 -0.59309430805E+02  0.66641271865E+01 -0.73718794536E+03  0.73959994994E+03  0.00000000000E+00 0. -1.
        -12    1    3    3    0    0 -0.48399304278E+01 -0.45477230289E+02 -0.30160044098E+03  0.30504824110E+03  0.00000000000E+00 0.  1.
          5    1    4    4  501    0  0.60425525691E+02  0.53715262078E+02 -0.10750540310E+03  0.13457881569E+03  0.41800000000E+01 0. -1.
         -5    1    4    4    0  501  0.59654930526E+02 -0.66548240002E+02 -0.67134586419E+02  0.11185662286E+03  0.41800000000E+01 0. -1.
</event>
<event>
11    1  0.6625361E-009  0.2814007E+03  0.7561462E-02  0.1008385E+00
         22   -1    0    0    0    0  0.00000000000E+00  0.00000000000E+00  0.18505514353E+03  0.18505514353E+03  0.00000000000E+00 0. -1.
         22   -1    0    0    0    0 -0.00000000000E+00 -0.00000000000E+00 -0.20850075457E+04  0.20850075457E+04  0.00000000000E+00 0.  1.
        -24    2    1    2    0    0  0.17542433531E+03 -0.17957604627E+03 -0.16802988110E+04  0.17009040476E+04  0.81542816518E+02 0.  0.
         25    2    1    2    0    0 -0.17397735763E+03  0.18990751933E+03 -0.32730924012E+03  0.43486973910E+03  0.12508942582E+03 0.  0.
         24    2    1    2    0    0 -0.14469776863E+01 -0.10331473061E+02  0.10765564893E+03  0.13428890260E+03  0.79592320830E+02 0.  0.
        -11    1    5    5    0    0  0.53562684068E+01  0.19721368704E+02 -0.18606939655E+01  0.20520335691E+02  0.00000000000E+00 0.  1.
         12    1    5    5    0    0 -0.68032460931E+01 -0.30052841765E+02  0.10951634290E+03  0.11376856691E+03  0.00000000000E+00 0. -1.
         11    1    3    3    0    0  0.42124203660E+01 -0.42545890271E+01 -0.50659151822E+01  0.78427998676E+01  0.00000000000E+00 0. -1.
        -12    1    3    3    0    0  0.17121191495E+03 -0.17532145724E+03 -0.16752328958E+04  0.16930612477E+04  0.00000000000E+00 0.  1.
          5    1    4    4  501    0 -0.13965614262E+03  0.20466336096E+03 -0.27157709303E+03  0.36764455572E+03  0.41800000000E+01 0. -1.
         -5    1    4    4    0  501 -0.34321215004E+02 -0.14755841628E+02 -0.55732147087E+02  0.67225183379E+02  0.41800000000E+01 0. -1.
</event>
<event>
11    1  0.6625361E-009  0.2215166E+03  0.7561462E-02  0.1040272E+00
         22   -1    0    0    0    0  0.00000000000E+00  0.00000000000E+00  0.58045673781E+03  0.58045673781E+03  0.00000000000E+00 0.  1.
         22   -1    0    0    0    0 -0.00000000000E+00 -0.00000000000E+00 -0.34354882115E+03  0.34354882115E+03  0.00000000000E+00 0. -1.
        -24    2    1    2    0    0 -0.22745836907E+02 -0.18205438074E+02 -0.25293096937E+03  0.26673861389E+03  0.79539938426E+02 0.  0.
         25    2    1    2    0    0  0.19759391014E+03  0.20678062628E+02  0.19474364279E+03  0.30503019102E+03  0.12508954964E+03 0.  0.
         24    2    1    2    0    0 -0.17484807323E+03 -0.24726245539E+01  0.29509524323E+03  0.35223675405E+03  0.80072253229E+02 0.  0.
        -11    1    5    5    0    0 -0.11083788952E+03 -0.38900388289E+02  0.20016288139E+03  0.23208502116E+03  0.00000000000E+00 0.  1.
         12    1    5    5    0    0 -0.64010183712E+02  0.36427763735E+02  0.94932361845E+02  0.12015173288E+03  0.00000000000E+00 0. -1.
         11    1    3    3    0    0  0.14144687106E+02 -0.40852704026E+01 -0.20076864119E+03  0.20130774673E+03  0.00000000000E+00 0. -1.
        -12    1    3    3    0    0 -0.36890524013E+02 -0.14120167671E+02 -0.52162328172E+02  0.65430867160E+02  0.00000000000E+00 0.  1.
          5    1    4    4  501    0  0.94361347522E+02  0.33807637699E+01  0.17433295852E+03  0.19830518475E+03  0.41800000000E+01 0.  1.
         -5    1    4    4    0  501  0.10323256262E+03  0.17297298858E+02  0.20410684269E+02  0.10672500628E+03  0.41800000000E+01 0.  1.
</event>
<event>
11    1  0.6625361E-009  0.2023374E+03  0.7561462E-02  0.1052883E+00
         22   -1    0    0    0    0  0.00000000000E+00  0.00000000000E+00  0.46363371104E+03  0.46363371104E+03  0.00000000000E+00 0. -1.
         22   -1    0    0    0    0 -0.00000000000E+00 -0.00000000000E+00 -0.15214343197E+04  0.15214343197E+04  0.00000000000E+00 0. -1.
        -24    2    1    2    0    0  0.15207702842E+03  0.63308645047E+02 -0.13405910050E+04  0.13528827332E+04  0.77278974532E+02 0.  0.
         25    2    1    2    0    0 -0.94886925419E+02 -0.76111335661E+02 -0.12363094660E+03  0.21384155233E+03  0.12508850673E+03 0.  0.
         24    2    1    2    0    0 -0.57190102997E+02  0.12802690614E+02  0.40642134291E+03  0.41834374526E+03  0.79991027335E+02 0.  0.
        -13    1    5    5    0    0 -0.37857016068E+02 -0.31210508707E+02  0.24727094498E+03  0.25209159000E+03  0.00000000000E+00 0.  1.
         14    1    5    5    0    0 -0.19333086929E+02  0.44013199321E+02  0.15915039793E+03  0.16625215525E+03  0.00000000000E+00 0. -1.
         11    1    3    3    0    0  0.10977590723E+03  0.24955164355E+02 -0.10935175848E+04  0.10992971474E+04  0.00000000000E+00 0. -1.
        -12    1    3    3    0    0  0.42301121183E+02  0.38353480693E+02 -0.24707342021E+03  0.25358558577E+03  0.00000000000E+00 0.  1.
          5    1    4    4  501    0  0.13919649452E+02  0.97628341804E+01  0.10907830142E+02  0.20628202309E+02  0.41800000000E+01 0.  1.
         -5    1    4    4    0  501 -0.10880657487E+03 -0.85874169842E+02 -0.13453877674E+03  0.19321335003E+03  0.41800000000E+01 0.  1.
</event>
<event>
11    1  0.6625361E-009  0.1597241E+03  0.7561462E-02  0.1087337E+00
         22   -1    0    0    0    0  0.00000000000E+00  0.00000000000E+00  0.76567830146E+03  0.76567830146E+03  0.00000000000E+00 0.  1.
         22   -1    0    0    0    0 -0.00000000000E+00 -0.00000000000E+00 -0.67054615430E+02  0.67054615430E+02  0.00000000000E+00 0.  1.
         24    2    1    2    0    0 -0.54927247369E+02  0.71559289804E+02  0.13719283397E+03  0.18799033695E+03  0.91546483449E+02 0.  0.
         25    2    1    2    0    0  0.95314146678E+02 -0.62436649344E+02  0.16866500981E+03  0.23890992612E+03  0.12508775131E+03 0.  0.
        -24    2    1    2    0    0 -0.40386899309E+02 -0.91226404605E+01  0.39276584225E+03  0.40583265382E+03  0.93385287184E+02 0.  0.
        -13    1    3    3    0    0 -0.49780689433E+02  0.90500165607E+02  0.90450072464E+02  0.13729389143E+03  0.00000000000E+00 0.  1.
         14    1    3    3    0    0 -0.51465579357E+01 -0.18940875803E+02  0.46742761511E+02  0.50696445520E+02  0.00000000000E+00 0. -1.
         11    1    5    5    0    0 -0.48547168797E+02 -0.38734212509E+02  0.17059022579E+03  0.18154391192E+03  0.00000000000E+00 0. -1.
        -12    1    5    5    0    0  0.81602694884E+01  0.29611572048E+02  0.22217561646E+03  0.22428874190E+03  0.00000000000E+00 0.  1.
          5    1    4    4  501    0  0.27814167822E+02  0.13072180352E+02  0.12455974769E+03  0.12836320725E+03  0.41800000000E+01 0. -1.
         -5    1    4    4    0  501  0.67499978856E+02 -0.75508829696E+02  0.44105262121E+02  0.11054671888E+03  0.41800000000E+01 0. -1.
</event>
<event>
11    1  0.6625361E-009  0.1352358E+03  0.7561462E-02  0.1112998E+00
         22   -1    0    0    0    0  0.00000000000E+00  0.00000000000E+00  0.19141661368E+03  0.19141661368E+03  0.00000000000E+00 0. -1.
         22   -1    0    0    0    0 -0.00000000000E+00 -0.00000000000E+00 -0.24620174950E+04  0.24620174950E+04  0.00000000000E+00 0.  1.
         24    2    1    2    0    0 -0.46800730897E+02  0.24409160851E+02 -0.21319279864E+04  0.21341064419E+04  0.80667529838E+02 0.  0.
         25    2    1    2    0    0  0.19939486238E+02 -0.35636054997E+02 -0.30675565050E+03  0.33378299687E+03  0.12507816899E+03 0.  0.
        -24    2    1    2    0    0  0.26861244660E+02  0.11226894147E+02  0.16808275559E+03  0.18554466996E+03  0.72989329408E+02 0.  0.
        -11    1    3    3    0    0 -0.70942268288E+01  0.14412396134E+02 -0.17345763638E+04  0.17346507450E+04  0.00000000000E+00 0.  1.
         12    1    3    3    0    0 -0.39706504069E+02  0.99967647163E+01 -0.39735162258E+03  0.39945569684E+03  0.00000000000E+00 0. -1.
         13    1    5    5    0    0  0.16837163555E+02 -0.29470875717E+02  0.51713309559E+02  0.61857004273E+02  0.00000000000E+00 0. -1.
        -14    1    5    5    0    0  0.10024081105E+02  0.40697769864E+02  0.11636944603E+03  0.12368766569E+03  0.00000000000E+00 0.  1.
          5    1    4    4  501    0 -0.39097687821E+02 -0.38435987063E+02 -0.66297391706E+02  0.86132286870E+02  0.41800000000E+01 0.  1.
         -5    1    4    4    0  501  0.59037174059E+02  0.27999320650E+01 -0.24045825880E+03  0.24765071000E+03  0.41800000000E+01 0.  1.
</event>
<event>
11    1  0.6625361E-009  0.1283241E+03  0.7561462E-02  0.1121345E+00
         22   -1    0    0    0    0  0.00000000000E+00  0.00000000000E+00  0.11780185291E+04  0.11780185291E+04  0.00000000000E+00 0. -1.
         22   -1    0    0    0    0 -0.00000000000E+00 -0.00000000000E+00 -0.20981250465E+03  0.20981250465E+03  0.00000000000E+00 0. -1.
         24    2    1    2    0    0 -0.25884601160E+02  0.18514047534E+02 -0.14872172109E+03  0.17499425452E+03  0.86556665026E+02 0.  0.
         25    2    1    2    0    0 -0.42842508246E+01 -0.17996334967E+02  0.40124284396E+02  0.13266229019E+03  0.12508837741E+03 0.  0.
        -24    2    1    2    0    0  0.30168851984E+02 -0.51771256677E+00  0.10768034611E+04  0.10801744890E+04  0.79754656197E+02 0.  0.
        -13    1    3    3    0    0  0.16088664988E+02  0.20406282210E+02 -0.66265096521E+01  0.26817384752E+02  0.00000000000E+00 0.  1.
         14    1    3    3    0    0 -0.41973266148E+02 -0.18922346764E+01 -0.14209521143E+03  0.14817686977E+03  0.00000000000E+00 0. -1.
         13    1    5    5    0    0  0.41574800323E+02 -0.48929886393E+01  0.10486450498E+04  0.10494802742E+04  0.00000000000E+00 0. -1.
        -14    1    5    5    0    0 -0.11405948338E+02  0.43752760725E+01  0.28158411323E+02  0.30694214869E+02  0.00000000000E+00 0.  1.
          5    1    4    4  501    0  0.10456202805E+02  0.41149661685E+02  0.55167638948E+02  0.69739283198E+02  0.41800000000E+01 0. -1.
         -5    1    4    4    0  501 -0.14740453630E+02 -0.59145996652E+02 -0.15043354552E+02  0.62923006995E+02  0.41800000000E+01 0. -1.
</event>
<event>
11    1  0.6625361E-009  0.1452183E+03  0.7561462E-02  0.1101867E+00
         22   -1    0    0    0    0  0.00000000000E+00  0.00000000000E+00  0.16633132264E+04  0.16633132264E+04  0.00000000000E+00 0.  1.
         22   -1    0    0    0    0 -0.00000000000E+00 -0.00000000000E+00 -0.32882329647E+03  0.32882329647E+03  0.00000000000E+00 0. -1.
         24    2    1    2    0    0  0.62641195850E+02 -0.38749080296E+02 -0.28957733977E+03  0.30986948383E+03  0.82089284692E+02 0.  0.
         25    2    1    2    0    0 -0.50652037997E+02  0.61874763046E+02  0.16978403075E+03  0.22553910726E+03  0.12508859481E+03 0.  0.
        -24    2    1    2    0    0 -0.11989157853E+02 -0.23125682750E+02  0.14542832389E+04  0.14567279318E+04  0.80237092561E+02 0.  0.
        -13    1    3    3    0    0  0.75613243444E+02 -0.32718531886E+02 -0.16451841229E+03  0.18399503497E+03  0.00000000000E+00 0.  1.
         14    1    3    3    0    0 -0.12972047594E+02 -0.60305484093E+01 -0.12505892748E+03  0.12587444886E+03  0.00000000000E+00 0. -1.
         13    1    5    5    0    0 -0.35423444492E+02  0.14772933057E+02  0.54204499782E+03  0.54340209756E+03  0.00000000000E+00 0. -1.
        -14    1    5    5    0    0  0.23434286638E+02 -0.37898615807E+02  0.91223824112E+03  0.91332583421E+03  0.00000000000E+00 0.  1.
          5    1    4    4  501    0 -0.64453596321E+02 -0.83625251779E+01  0.12514235622E+03  0.14107543948E+03  0.41800000000E+01 0.  1.
         -5    1    4    4    0  501  0.13801558324E+02  0.70237288224E+02  0.44641674534E+02  0.84463667777E+02  0.41800000000E+01 0.  1.
</event>
<event>
11    1  0.6625361E-009  0.1484120E+03  0.7561462E-02  0.1098513E+00
         22   -1    0    0    0    0  0.00000000000E+00  0.00000000000E+00  0.24147225936E+03  0.24147225936E+03  0.00000000000E+00 0.  1.
         22   -1    0    0    0    0 -0.00000000000E+00 -0.00000000000E+00 -0.39602040107E+03  0.39602040107E+03  0.00000000000E+00 0.  1.
        -24    2    1    2    0    0  0.18152105533E+02  0.12474865329E+01 -0.31747271588E+03  0.32829444616E+03  0.81592051674E+02 0.  0.
         25    2    1    2    0    0 -0.54827873630E+02  0.65358295678E+02  0.10356996358E+03  0.18344491379E+03  0.12508995363E+03 0.  0.
         24    2    1    2    0    0  0.36675768097E+02 -0.66605782211E+02  0.59354610584E+02  0.12575330048E+03  0.80681352214E+02 0.  0.
        -13    1    5    5    0    0 -0.79651250481E+00 -0.66562701212E+02  0.57945042365E+02  0.88254493140E+02  0.00000000000E+00 0.  1.
         14    1    5    5    0    0  0.37472280602E+02 -0.43080999155E-01  0.14095682191E+01  0.37498807342E+02  0.00000000000E+00 0. -1.
         13    1    3    3    0    0  0.66542618149E+01 -0.87866687291E+01 -0.58292662936E+00  0.11037415962E+02  0.00000000000E+00 0. -1.
        -14    1    3    3    0    0  0.11497843718E+02  0.10034155262E+02 -0.31688978925E+03  0.31725703020E+03  0.00000000000E+00 0.  1.
          5    1    4    4  501    0 -0.21489914356E+02 -0.22087059741E+02 -0.13164448909E+02  0.33770249364E+02  0.41800000000E+01 0.  1.
         -5    1    4    4    0  501 -0.33337959274E+02  0.87445355419E+02  0.11673441249E+03  0.14967466443E+03  0.41800000000E+01 0.  1.
</event>
<event>
11    1  0.6625361E-009  0.1576384E+03  0.7561462E-02  0.1089320E+00
         22   -1    0    0    0    0  0.00000000000E+00  0.00000000000E+00  0.24275806458E+03  0.24275806458E+03  0.00000000000E+00 0. -1.
         22   -1    0    0    0    0 -0.00000000000E+00 -0.00000000000E+00 -0.39465758641E+03  0.39465758641E+03  0.00000000000E+00 0.  1.
         24    2    1    2    0    0 -0.36562758806E+02  0.17775641162E+02 -0.16969461591E+03  0.19193888479E+03  0.79946632659E+02 0.  0.
         25    2    1    2    0    0  0.83851542264E+02  0.65324602264E+02 -0.15950579594E+03  0.22888475982E+03  0.12509096505E+03 0.  0.
        -24    2    1    2    0    0 -0.47288783458E+02 -0.83100243426E+02  0.17730089003E+03  0.21659200639E+03  0.79590276593E+02 0.  0.
        -13    1    3    3    0    0 -0.46134720548E+02  0.18788104599E+02 -0.17429281941E+03  0.18127159792E+03  0.00000000000E+00 0.  1.
         14    1    3    3    0    0  0.95719617415E+01 -0.10124634364E+01  0.45982034951E+01  0.10667286870E+02  0.00000000000E+00 0. -1.
         11    1    5    5    0    0 -0.67930176787E+02 -0.69105134843E+02  0.12103281148E+03  0.15504505808E+03  0.00000000000E+00 0. -1.
        -12    1    5    5    0    0  0.20641393329E+02 -0.13995108583E+02  0.56268078543E+02  0.61546948305E+02  0.00000000000E+00 0.  1.
          5    1    4    4  501    0 -0.19209919724E+02  0.46579866376E+02 -0.19981594424E+02  0.54363972290E+02  0.41800000000E+01 0.  1.
         -5    1    4    4    0  501  0.10306146199E+03  0.18744735887E+02 -0.13952420152E+03  0.17452078753E+03  0.41800000000E+01 0.  1.
</event>
<event>
11    1  0.6625361E-009  0.1457796E+03  0.7561462E-02  0.1101271E+00
         22   -1    0    0    0    0  0.00000000000E+00  0.00000000000E+00  0.84108614164E+03  0.84108614164E+03  0.00000000000E+00 0. -1.
         22   -1    0    0    0    0 -0.00000000000E+00 -0.00000000000E+00 -0.18814098597E+03  0.18814098597E+03  0.00000000000E+00 0.  1.
        -24    2    1    2    0    0 -0.38824335410E+02 -0.58117690783E+01 -0.11262107931E+03  0.14584637481E+03  0.83943742226E+02 0.  0.
         25    2    1    2    0    0  0.66369890719E+02 -0.63036886231E+02  0.55325520336E+02  0.16458115275E+03  0.12508969271E+03 0.  0.
         24    2    1    2    0    0 -0.27545555309E+02  0.68848655309E+02  0.71024071464E+03  0.71879960006E+03  0.82049359222E+02 0.  0.
        -11    1    5    5    0    0 -0.44972251931E+02  0.30723590701E+02  0.21512887022E+03  0.22191636548E+03  0.00000000000E+00 0.  1.
         12    1    5    5    0    0  0.17426696622E+02  0.38125064609E+02  0.49511184443E+03  0.49688323457E+03  0.00000000000E+00 0. -1.
         11    1    3    3    0    0 -0.43231273238E+02  0.32055284699E+02 -0.56782665878E+02  0.78235256804E+02  0.00000000000E+00 0. -1.
        -12    1    3    3    0    0  0.44069378274E+01 -0.37867053777E+02 -0.55838413433E+02  0.67611118002E+02  0.00000000000E+00 0.  1.
          5    1    4    4  501    0  0.98239737034E+02 -0.37284616922E+02  0.63140528239E+02  0.12265964005E+03  0.41800000000E+01 0. -1.
         -5    1    4    4    0  501 -0.31869846315E+02 -0.25752269309E+02 -0.78150079031E+01  0.41921512702E+02  0.41800000000E+01 0. -1.
</event>
<event>
11    1  0.6625361E-009  0.1333227E+03  0.7561462E-02  0.1115253E+00
         22   -1    0    0    0    0  0.00000000000E+00  0.00000000000E+00  0.27269133197E+04  0.27269133197E+04  0.00000000000E+00 0.  1.
         22   -1    0    0    0    0 -0.00000000000E+00 -0.00000000000E+00 -0.69182631939E+02  0.69182631939E+02  0.00000000000E+00 0.  1.
        -24    2    1    2    0    0 -0.35850181375E+02 -0.29294175501E+02  0.64267750366E+01  0.94623893357E+02  0.82273893392E+02 0.  0.
         25    2    1    2    0    0 -0.32851143649E+01  0.66120770085E+02  0.18288781641E+03  0.23125383541E+03  0.12509050638E+03 0.  0.
         24    2    1    2    0    0  0.39135295740E+02 -0.36826594584E+02  0.24684160963E+04  0.24702182229E+04  0.77538858875E+02 0.  0.
        -13    1    5    5    0    0  0.33939173491E+02 -0.53991907912E+02  0.22932163838E+04  0.22941029568E+04  0.00000000000E+00 0.  1.
         14    1    5    5    0    0  0.51961222485E+01  0.17165313328E+02  0.17519971255E+03  0.17611526607E+03  0.00000000000E+00 0. -1.
         11    1    3    3    0    0 -0.16490872572E+02  0.24438031810E+02  0.20368519698E+02  0.35833543945E+02  0.00000000000E+00 0. -1.
        -12    1    3    3    0    0 -0.19359308802E+02 -0.53732207311E+02 -0.13941744661E+02  0.58790349413E+02  0.00000000000E+00 0.  1.
          5    1    4    4  501    0  0.47520507673E+02  0.68492906190E+02  0.76334286783E+02  0.11311000215E+03  0.41800000000E+01 0. -1.
         -5    1    4    4    0  501 -0.50805622038E+02 -0.23721361052E+01  0.10655352963E+03  0.11814383326E+03  0.41800000000E+01 0. -1.
</event>
<event>
11    1  0.6625361E-009  0.1377773E+03  0.7561462E-02  0.1110066E+00
         22   -1    0    0    0    0  0.00000000000E+00  0.00000000000E+00  0.77682052206E+02  0.77682052206E+02  0.00000000000E+00 0.  1.
         22   -1    0    0    0    0 -0.00000000000E+00 -0.00000000000E+00 -0.15640145664E+04  0.15640145664E+04  0.00000000000E+00 0.  1.
        -24    2    1    2    0    0  0.53115088848E+02  0.19998629863E+02 -0.12973596140E+04  0.13013371516E+04  0.84351978129E+02 0.  0.
         25    2    1    2    0    0 -0.64373215457E+02 -0.22908238258E+02 -0.21416615871E+03  0.25726527424E+03  0.12509827954E+03 0.  0.
         24    2    1    2    0    0  0.11258126609E+02  0.29096083950E+01  0.25193258522E+02  0.83094192770E+02  0.78324538693E+02 0.  0.
        -13    1    5    5    0    0 -0.43245522101E+01 -0.18534228570E+02  0.45749238146E+02  0.49550097593E+02  0.00000000000E+00 0.  1.
         14    1    5    5    0    0  0.15582678819E+02  0.21443836965E+02 -0.20555979624E+02  0.33544095177E+02  0.00000000000E+00 0. -1.
         13    1    3    3    0    0  0.10951700236E+02 -0.31694920794E+02 -0.54264879275E+03  0.54368393393E+03  0.00000000000E+00 0. -1.
        -14    1    3    3    0    0  0.42163388611E+02  0.51693550657E+02 -0.75471082125E+03  0.75765321766E+03  0.00000000000E+00 0.  1.
          5    1    4    4  501    0 -0.95002786517E+02 -0.27108470571E+02 -0.10719525451E+03  0.14583790183E+03  0.41800000000E+01 0.  1.
         -5    1    4    4    0  501  0.30629571060E+02  0.42002323124E+01 -0.10697090421E+03  0.11142737241E+03  0.41800000000E+01 0.  1.
</event>
<event>
11    1  0.6625361E-009  0.1322884E+03  0.7561462E-02  0.1116489E+00
         22   -1    0    0    0    0  0.00000000000E+00  0.00000000000E+00  0.23596770191E+03  0.23596770191E+03  0.00000000000E+00 0.  1.
         22   -1    0    0    0    0 -0.00000000000E+00 -0.00000000000E+00 -0.90181414188E+03  0.90181414188E+03  0.00000000000E+00 0.  1.
         24    2    1    2    0    0  0.28411322785E+02 -0.32629692531E+02 -0.77862521993E+03  0.78389403746E+03  0.79754177047E+02 0.  0.
         25    2    1    2    0    0 -0.49055492135E+02  0.94108440302E+01 -0.70374960896E+02  0.15196431936E+03  0.12508202886E+03 0.  0.
        -24    2    1    2    0    0  0.20644169350E+02  0.23218848500E+02  0.18315374086E+03  0.20192348697E+03  0.79135991443E+02 0.  0.
        -11    1    3    3    0    0 -0.18316188103E+02 -0.28979436549E+01 -0.46818146443E+03  0.46854857215E+03  0.00000000000E+00 0.  1.
         12    1    3    3    0    0  0.46727510888E+02 -0.29731748876E+02 -0.31044375550E+03  0.31534546531E+03  0.00000000000E+00 0. -1.
         13    1    5    5    0    0 -0.16244138285E+02  0.29219340732E+02  0.32215443959E+02  0.46427112024E+02  0.00000000000E+00 0. -1.
        -14    1    5    5    0    0  0.36888307635E+02 -0.60004922313E+01  0.15093829691E+03  0.15549637494E+03  0.00000000000E+00 0.  1.
          5    1    4    4  501    0 -0.76411626184E+02  0.27429118435E+02 -0.83400681592E+02  0.11646561400E+03  0.41800000000E+01 0. -1.
         -5    1    4    4    0  501  0.27356134049E+02 -0.18018274404E+02  0.13025720695E+02  0.35498705360E+02  0.41800000000E+01 0. -1.
</event>
<event>
11    1  0.6625361E-009  0.2486915E+03  0.7561462E-02  0.1024599E+00
         22   -1    0    0    0    0  0.00000000000E+00  0.00000000000E+00  0.80143038377E+03  0.80143038377E+03  0.00000000000E+00 0.  1.
         22   -1    0    0    0    0 -0.00000000000E+00 -0.00000000000E+00 -0.16128726284E+04  0.16128726284E+04  0.00000000000E+00 0.  1.
         24    2    1    2    0    0 -0.65736433781E+02 -0.91419214186E+01 -0.14892825764E+04  0.14928675076E+04  0.79283979411E+02 0.  0.
         25    2    1    2    0    0  0.24284984534E+03 -0.96190892488E+02  0.10596586519E+03  0.30839087840E+03  0.12508970429E+03 0.  0.
        -24    2    1    2    0    0 -0.17711341156E+03  0.10533281391E+03  0.57187446654E+03  0.61304462622E+03  0.79493056432E+02 0.  0.
        -13    1    3    3    0    0 -0.78945451244E+02  0.94902024958E+01 -0.12371433174E+04  0.12396959450E+04  0.00000000000E+00 0.  1.
         14    1    3    3    0    0  0.13209017463E+02 -0.18632123914E+02 -0.25213925900E+03  0.25317156261E+03  0.00000000000E+00 0. -1.
         11    1    5    5    0    0 -0.95416631860E+02  0.68363384668E+02  0.21368935266E+03  0.24380530232E+03  0.00000000000E+00 0. -1.
        -12    1    5    5    0    0 -0.81696779697E+02  0.36969429239E+02  0.35818511388E+03  0.36923932391E+03  0.00000000000E+00 0.  1.
          5    1    4    4  501    0  0.73318771739E+00  0.14357121930E+02  0.26760791225E+02  0.30663934212E+02  0.41800000000E+01 0.  1.
         -5    1    4    4    0  501  0.24211665762E+03 -0.11054801442E+03  0.79205073963E+02  0.27772694419E+03  0.41800000000E+01 0.  1.
</event>
<event>
11    1  0.6625361E-009  0.1471799E+03  0.7561462E-02  0.1099796E+00
         22   -1    0    0    0    0  0.00000000000E+00  0.00000000000E+00  0.36103493343E+03  0.36103493343E+03  0.00000000000E+00 0. -1.
         22   -1    0    0    0    0 -0.00000000000E+00 -0.00000000000E+00 -0.92850069511E+03  0.92850069511E+03  0.00000000000E+00 0. -1.
        -24    2    1    2    0    0  0.30947531535E+02 -0.55048114454E+02 -0.84504514396E+03  0.85115932140E+03  0.79892743466E+02 0.  0.
         25    2    1    2    0    0  0.29337438493E+02 -0.71071310126E+01 -0.79672131768E+01  0.12892909693E+03  0.12509212182E+03 0.  0.
         24    2    1    2    0    0 -0.60284970028E+02  0.62155245467E+02  0.28554659546E+03  0.30944721022E+03  0.81994911920E+02 0.  0.
        -13    1    5    5    0    0 -0.88881229508E+01  0.60379404736E+02  0.10230695586E+03  0.11912759740E+03  0.00000000000E+00 0.  1.
         14    1    5    5    0    0 -0.51396847077E+02  0.17758407309E+01  0.18323963960E+03  0.19031961281E+03  0.00000000000E+00 0. -1.
         13    1    3    3    0    0  0.19357061122E+02 -0.68040639666E+02 -0.79559092610E+03  0.79872970782E+03  0.00000000000E+00 0. -1.
        -14    1    3    3    0    0  0.11590470413E+02  0.12992525212E+02 -0.49454217861E+02  0.52429613578E+02  0.00000000000E+00 0.  1.
          5    1    4    4  501    0  0.38551516962E+02 -0.22847554382E+02  0.50438077319E+02  0.67599572816E+02  0.41800000000E+01 0. -1.
         -5    1    4    4    0  501 -0.92140784697E+01  0.15740423369E+02 -0.58405290496E+02  0.61329524112E+02  0.41800000000E+01 0. -1.
</event>
<event>
11    1  0.6625361E-009  0.1316557E+03  0.7561462E-02  0.1117251E+00
         22   -1    0    0    0    0  0.00000000000E+00  0.00000000000E+00  0.53658131693E+03  0.53658131693E+03  0.00000000000E+00 0. -1.
         22   -1    0    0    0    0 -0.00000000000E+00 -0.00000000000E+00 -0.23989206422E+04  0.23989206422E+04  0.00000000000E+00 0. -1.
         24    2    1    2    0    0  0.81068559472E+01 -0.19490602854E+02 -0.23662598695E+04  0.23675956843E+04  0.76667786543E+02 0.  0.
         25    2    1    2    0    0  0.26066681876E+02 -0.85827157885E+01  0.12815401372E+03  0.18117211699E+03  0.12508696906E+03 0.  0.
        -24    2    1    2    0    0 -0.34173537823E+02  0.28073318643E+02  0.37576653056E+03  0.38673415782E+03  0.80042997353E+02 0.  0.
        -13    1    3    3    0    0 -0.24416969702E+02 -0.68225555480E+01 -0.30854436874E+03  0.30958417781E+03  0.00000000000E+00 0.  1.
         14    1    3    3    0    0  0.32523825649E+02 -0.12668047306E+02 -0.20577155008E+04  0.20580115065E+04  0.00000000000E+00 0. -1.
         11    1    5    5    0    0 -0.55904819466E+02  0.34409498950E+02  0.31770477990E+03  0.32441592074E+03  0.00000000000E+00 0. -1.
        -12    1    5    5    0    0  0.21731281642E+02 -0.63361803074E+01  0.58061750668E+02  0.62318237084E+02  0.00000000000E+00 0.  1.
          5    1    4    4  501    0  0.71282815634E+02  0.84883569801E+01  0.44779062210E+02  0.84710854213E+02  0.41800000000E+01 0.  1.
         -5    1    4    4    0  501 -0.45216133758E+02 -0.17071072769E+02  0.83374951505E+02  0.96461262774E+02  0.41800000000E+01 0.  1.
</event>
<event>
11    1  0.6625361E-009  0.1507967E+03  0.7561462E-02  0.1096068E+00
         22   -1    0    0    0    0  0.00000000000E+00  0.00000000000E+00  0.25767257879E+03  0.25767257879E+03  0.00000000000E+00 0.  1.
         22   -1    0    0    0    0 -0.00000000000E+00 -0.00000000000E+00 -0.73845507413E+03  0.73845507413E+03  0.00000000000E+00 0.  1.
         24    2    1    2    0    0  0.22692924928E+02 -0.26969550372E+02 -0.60773520041E+03  0.61381909842E+03  0.78673288214E+02 0.  0.
         25    2    1    2    0    0 -0.10017173749E+03 -0.13513527011E+01 -0.52811674827E+02  0.16874497954E+03  0.12509832923E+03 0.  0.
        -24    2    1    2    0    0  0.77478812558E+02  0.28320903073E+02  0.17976437990E+03  0.21356357497E+03  0.80555126011E+02 0.  0.
        -11    1    3    3    0    0  0.44067418493E+01 -0.53576293539E+02 -0.39784634693E+03  0.40146177199E+03  0.00000000000E+00 0.  1.
         12    1    3    3    0    0  0.18286183078E+02  0.26606743168E+02 -0.20988885348E+03  0.21235732643E+03  0.00000000000E+00 0. -1.
         11    1    5    5    0    0  0.11442778192E+02  0.14300974428E+02 -0.31544378559E+01  0.18585088661E+02  0.00000000000E+00 0. -1.
        -12    1    5    5    0    0  0.66036034366E+02  0.14019928645E+02  0.18291881776E+03  0.19497848631E+03  0.00000000000E+00 0.  1.
          5    1    4    4  501    0  0.48027746475E+01 -0.75042193538E+01  0.32067371565E+02  0.33543533974E+02  0.41800000000E+01 0.  1.
         -5    1    4    4    0  501 -0.10497451213E+03  0.61528666527E+01 -0.84879046392E+02  0.13520144556E+03  0.41800000000E+01 0.  1.
</event>
<event>
11    1  0.6625361E-009  0.1533340E+03  0.7561462E-02  0.1093520E+00
         22   -1    0    0    0    0  0.00000000000E+00  0.00000000000E+00  0.13560848160E+04  0.13560848160E+04  0.00000000000E+00 0.  1.
         22   -1    0    0    0    0 -0.00000000000E+00 -0.00000000000E+00 -0.49350056998E+02  0.49350056998E+02  0.00000000000E+00 0. -1.
         24    2    1    2    0    0  0.92235001287E+02  0.11868382605E+02  0.11829268514E+03  0.17079055850E+03  0.80796667921E+02 0.  0.
         25    2    1    2    0    0 -0.27935196656E+02  0.65976693826E+02  0.26027535015E+03  0.29753006278E+03  0.12509029147E+03 0.  0.
        -24    2    1    2    0    0 -0.64299804632E+02 -0.77845076430E+02  0.92816672371E+03  0.93711425172E+03  0.80593628603E+02 0.  0.
        -13    1    3    3    0    0  0.29336278576E+02  0.41284429892E+02  0.31512708828E+02  0.59649578455E+02  0.00000000000E+00 0.  1.
         14    1    3    3    0    0  0.62898722712E+02 -0.29416047288E+02  0.86779976310E+02  0.11114098004E+03  0.00000000000E+00 0. -1.
         13    1    5    5    0    0 -0.37098353923E+02 -0.23652931156E+02  0.14313791275E+03  0.14974715718E+03  0.00000000000E+00 0. -1.
        -14    1    5    5    0    0 -0.27201450708E+02 -0.54192145274E+02  0.78502881096E+03  0.78736709454E+03  0.00000000000E+00 0.  1.
          5    1    4    4  501    0 -0.73883432713E+02  0.48010737300E+02  0.12118707749E+03  0.14989186995E+03  0.41800000000E+01 0. -1.
         -5    1    4    4    0  501  0.45948236058E+02  0.17965956526E+02  0.13908827266E+03  0.14763819283E+03  0.41800000000E+01 0. -1.
</event>
<event>
11    1  0.6625361E-009  0.1321439E+03  0.7561462E-02  0.1116662E+00
         22   -1    0    0    0    0  0.00000000000E+00  0.00000000000E+00  0.55914602742E+03  0.55914602742E+03  0.00000000000E+00 0.  1.
         22   -1    0    0    0    0 -0.00000000000E+00 -0.00000000000E+00 -0.26385180842E+04  0.26385180842E+04  0.00000000000E+00 0. -1.
         24    2    1    2    0    0 -0.67663743308E+01  0.27755331603E+02 -0.22633474814E+04  0.22649500864E+04  0.80255404020E+02 0.  0.
         25    2    1    2    0    0 -0.34499756557E+00 -0.69455821808E+02 -0.35677696242E+03  0.38440091631E+03  0.12510009329E+03 0.  0.
        -24    2    1    2    0    0  0.71113718964E+01  0.41700490205E+02  0.54075238706E+03  0.54831310894E+03  0.80278383351E+02 0.  0.
        -11    1    3    3    0    0 -0.18938349532E+02  0.32587193273E+02 -0.45595543412E+03  0.45751059458E+03  0.00000000000E+00 0.  1.
         12    1    3    3    0    0  0.12171975202E+02 -0.48318616696E+01 -0.18073920473E+04  0.18074394918E+04  0.00000000000E+00 0. -1.
         11    1    5    5    0    0  0.12480203188E+02  0.21374456193E+02  0.39460728750E+02  0.46580811099E+02  0.00000000000E+00 0. -1.
        -12    1    5    5    0    0 -0.53688312919E+01  0.20326034012E+02  0.50129165831E+03  0.50173229784E+03  0.00000000000E+00 0.  1.
          5    1    4    4  501    0 -0.29357613458E+02 -0.62815781413E+02 -0.34531866176E+03  0.35223591870E+03  0.41800000000E+01 0. -1.
         -5    1    4    4    0  501  0.29012615893E+02 -0.66400403951E+01 -0.11458300659E+02  0.32164997612E+02  0.41800000000E+01 0. -1.
</event>
<event>
11    1  0.6625361E-009  0.1385134E+03  0.7561462E-02  0.1109230E+00
         22   -1    0    0    0    0  0.00000000000E+00  0.00000000000E+00  0.57522646953E+03  0.57522646953E+03  0.00000000000E+00 0. -1.
         22   -1    0    0    0    0 -0.00000000000E+00 -0.00000000000E+00 -0.26064713262E+03  0.26064713262E+03  0.00000000000E+00 0.  1.
        -24    2    1    2    0    0  0.60195491580E+02 -0.38444167129E+01 -0.22440451273E+03  0.24590859861E+03  0.80469725913E+02 0.  0.
         25    2    1    2    0    0 -0.42424541825E+02  0.12200372426E+02  0.19004401753E+03  0.23176036166E+03  0.12508975097E+03 0.  0.
         24    2    1    2    0    0 -0.17770949755E+02 -0.83559557134E+01  0.34893983210E+03  0.35820464189E+03  0.78523438482E+02 0.  0.
        -13    1    5    5    0    0 -0.39054138465E+02  0.20437695806E+02  0.16336537054E+03  0.16920747452E+03  0.00000000000E+00 0.  1.
         14    1    5    5    0    0  0.21283188710E+02 -0.28793651519E+02  0.18557446156E+03  0.18899716737E+03  0.00000000000E+00 0. -1.
         13    1    3    3    0    0  0.23427312121E+02  0.11651821739E+02 -0.10302186793E+02  0.28120081006E+02  0.00000000000E+00 0. -1.
        -14    1    3    3    0    0  0.36768179459E+02 -0.15496238452E+02 -0.21410232594E+03  0.21778851760E+03  0.00000000000E+00 0.  1.
          5    1    4    4  501    0 -0.79386511364E+02 -0.21499540077E+02  0.12251174577E+03  0.14761791444E+03  0.41800000000E+01 0. -1.
         -5    1    4    4    0  501  0.36961969540E+02  0.33699912503E+02  0.67532271759E+02  0.84142447219E+02  0.41800000000E+01 0. -1.
</event>
<event>
11    1  0.6625361E-009  0.2623463E+03  0.7561462E-02  0.1017520E+00
         22   -1    0    0    0    0  0.00000000000E+00  0.00000000000E+00  0.12001165140E+04  0.12001165140E+04  0.00000000000E+00 0. -1.
         22   -1    0    0    0    0 -0.00000000000E+00 -0.00000000000E+00 -0.13939026627E+04  0.13939026627E+04  0.00000000000E+00 0. -1.
         24    2    1    2    0    0 -0.11577260050E+02  0.50855500326E+01 -0.81371954070E+03  0.81758006518E+03  0.78343961368E+02 0.  0.
         25    2    1    2    0    0 -0.21187069234E+03 -0.62991557478E+02 -0.53667481664E+03  0.59373720072E+03  0.12508748182E+03 0.  0.
        -24    2    1    2    0    0  0.22344795239E+03  0.57906007445E+02  0.11566082087E+04  0.11827019108E+04  0.88086142143E+02 0.  0.
        -11    1    3    3    0    0 -0.29104162337E+02  0.13480010597E+02 -0.14191204251E+03  0.14549154876E+03  0.00000000000E+00 0.  1.
         12    1    3    3    0    0  0.17526902286E+02 -0.83944605641E+01 -0.67180749819E+03  0.67208851641E+03  0.00000000000E+00 0. -1.
         13    1    5    5    0    0  0.10326605544E+03  0.38785406409E+02  0.75638597291E+03  0.76438728795E+03  0.00000000000E+00 0. -1.
        -14    1    5    5    0    0  0.12018189695E+03  0.19120601036E+02  0.40022223576E+03  0.41831462290E+03  0.00000000000E+00 0.  1.
          5    1    4    4  501    0 -0.22263142570E+03 -0.37804562671E+02 -0.46676817710E+03  0.51854020117E+03  0.41800000000E+01 0. -1.
         -5    1    4    4    0  501  0.10760733357E+02 -0.25186994807E+02 -0.69906639540E+02  0.75196999552E+02  0.41800000000E+01 0. -1.
</event>
<event>
11    1  0.6625361E-009  0.1347950E+03  0.7561462E-02  0.1113514E+00
         22   -1    0    0    0    0  0.00000000000E+00  0.00000000000E+00  0.27266632179E+03  0.27266632179E+03  0.00000000000E+00 0.  1.
         22   -1    0    0    0    0 -0.00000000000E+00 -0.00000000000E+00 -0.49831534977E+03  0.49831534977E+03  0.00000000000E+00 0. -1.
         24    2    1    2    0    0  0.21843041555E+02 -0.17540382922E+02 -0.38278182466E+03  0.39202109244E+03  0.79836258222E+02 0.  0.
         25    2    1    2    0    0 -0.21970750610E+02  0.66117682452E+02 -0.49735786582E+02  0.15156819627E+03  0.12508000574E+03 0.  0.
        -24    2    1    2    0    0  0.12770905576E+00 -0.48577299530E+02  0.20686858326E+03  0.22739238286E+03  0.80950075361E+02 0.  0.
        -13    1    3    3    0    0  0.20680971305E+02 -0.88952242272E+01 -0.23178824641E+02  0.32312311894E+02  0.00000000000E+00 0.  1.
         14    1    3    3    0    0  0.11620702493E+01 -0.86451586946E+01 -0.35960300002E+03  0.35970878054E+03  0.00000000000E+00 0. -1.
         11    1    5    5    0    0  0.22448199368E+01 -0.68922611729E+02  0.12246501928E+03  0.14054553202E+03  0.00000000000E+00 0. -1.
        -12    1    5    5    0    0 -0.21171108810E+01  0.20345312199E+02  0.84403563980E+02  0.86846850833E+02  0.00000000000E+00 0.  1.
          5    1    4    4  501    0  0.29276210172E+02  0.47011587813E+02  0.23299226745E+02  0.60228832279E+02  0.41800000000E+01 0. -1.
         -5    1    4    4    0  501 -0.51246960782E+02  0.19106094638E+02 -0.73035013327E+02  0.91339363986E+02  0.41800000000E+01 0. -1.
</event>
<event>
11    1  0.6625361E-009  0.1359523E+03  0.7561462E-02  0.1112164E+00
         22   -1    0    0    0    0  0.00000000000E+00  0.00000000000E+00  0.61561032360E+03  0.61561032360E+03  0.00000000000E+00 0.  1.
         22   -1    0    0    0    0 -0.00000000000E+00 -0.00000000000E+00 -0.41117342694E+03  0.41117342694E+03  0.00000000000E+00 0. -1.
         24    2    1    2    0    0 -0.56998431953E+02 -0.24388788622E+02 -0.37820459033E+03  0.39200908256E+03  0.82394019220E+02 0.  0.
         25    2    1    2    0    0 -0.73715143792E+01  0.42206713434E+02  0.22408960287E+03  0.26019168574E+03  0.12509123603E+03 0.  0.
        -24    2    1    2    0    0  0.64369946332E+02 -0.17817924812E+02  0.35855188413E+03  0.37458298225E+03  0.85393141080E+02 0.  0.
        -11    1    3    3    0    0  0.20634752387E+02 -0.13004309824E+02 -0.78355534596E+02  0.82063968231E+02  0.00000000000E+00 0.  1.
         12    1    3    3    0    0 -0.77633184340E+02 -0.11384478798E+02 -0.29984905574E+03  0.30994511433E+03  0.00000000000E+00 0. -1.
         11    1    5    5    0    0  0.85551333540E+02 -0.16833741344E+02  0.29085761062E+03  0.30364544319E+03  0.00000000000E+00 0. -1.
        -12    1    5    5    0    0 -0.21181387208E+02 -0.98418346732E+00  0.67694273509E+02  0.70937539054E+02  0.00000000000E+00 0.  1.
          5    1    4    4  501    0 -0.34477149495E+01  0.42461221720E+02  0.74173276509E+01  0.43443425715E+02  0.41800000000E+01 0.  1.
         -5    1    4    4    0  501 -0.39237994297E+01 -0.25450828646E+00  0.21667227522E+03  0.21674826003E+03  0.41800000000E+01 0.  1.
</event>
<event>
11    1  0.6625361E-009  0.1813557E+03  0.7561462E-02  0.1068551E+00
         22   -1    0    0    0    0  0.00000000000E+00  0.00000000000E+00  0.13698652406E+04  0.13698652406E+04  0.00000000000E+00 0. -1.
         22   -1    0    0    0    0 -0.00000000000E+00 -0.00000000000E+00 -0.36981605809E+03  0.36981605809E+03  0.00000000000E+00 0.  1.
        -24    2    1    2    0    0 -0.10311394991E+03 -0.67406143220E+02 -0.19386965993E+03  0.24390512726E+03  0.82025552444E+02 0.  0.
         25    2    1    2    0    0  0.11632754734E+03  0.10017401973E+03 -0.83772371071E+02  0.21501638160E+03  0.12508917500E+03 0.  0.
         24    2    1    2    0    0 -0.13213597429E+02 -0.32767876505E+02  0.12776912135E+04  0.12807597899E+04  0.81255580036E+02 0.  0.
        -13    1    5    5    0    0  0.18249625890E+02  0.54257534755E+01  0.87822962039E+02  0.89863008558E+02  0.00000000000E+00 0.  1.
         14    1    5    5    0    0 -0.31463223319E+02 -0.38193629981E+02  0.11898682515E+04  0.11908967813E+04  0.00000000000E+00 0. -1.
         13    1    3    3    0    0  0.70942911840E+01 -0.11372741623E+01  0.37678050600E+01  0.81128734055E+01  0.00000000000E+00 0. -1.
        -14    1    3    3    0    0 -0.11020824109E+03 -0.66268869058E+02 -0.19763746499E+03  0.23579225386E+03  0.00000000000E+00 0.  1.
          5    1    4    4  501    0  0.12006375522E+03  0.25109939181E+02 -0.53411006458E+02  0.13385074664E+03  0.41800000000E+01 0. -1.
         -5    1    4    4    0  501 -0.37362078864E+01  0.75064080544E+02 -0.30361364614E+02  0.81165634960E+02  0.41800000000E+01 0. -1.
</event>
<event>
11    1  0.6625361E-009  0.1621041E+03  0.7561462E-02  0.1085115E+00
         22   -1    0    0    0    0  0.00000000000E+00  0.00000000000E+00  0.35582097674E+02  0.35582097674E+02  0.00000000000E+00 0.  1.
         22   -1    0    0    0    0 -0.00000000000E+00 -0.00000000000E+00 -0.10880390829E+04  0.10880390829E+04  0.00000000000E+00 0. -1.
         24    2    1    2    0    0 -0.66972631072E+02  0.46235775144E+02 -0.33009232754E+03  0.34942485539E+03  0.80707525323E+02 0.  0.
         25    2    1    2    0    0  0.10932369151E+03 -0.73308102941E+02 -0.42764557485E+03  0.46460107010E+03  0.12509064379E+03 0.  0.
        -24    2    1    2    0    0 -0.42351060441E+02  0.27072327797E+02 -0.29471908281E+03  0.30959525507E+03  0.80395030532E+02 0.  0.
        -11    1    3    3    0    0  0.91958753675E+01  0.28014295629E+02 -0.45223810214E+02  0.53986645512E+02  0.00000000000E+00 0.  1.
         12    1    3    3    0    0 -0.76168506440E+02  0.18221479515E+02 -0.28486851733E+03  0.29543820987E+03  0.00000000000E+00 0. -1.
         11    1    5    5    0    0 -0.39455485169E+02  0.17154240194E+02 -0.29606603497E+03  0.29917570143E+03  0.00000000000E+00 0. -1.
        -12    1    5    5    0    0 -0.28955752716E+01  0.99180876033E+01  0.13469521547E+01  0.10419553636E+02  0.00000000000E+00 0.  1.
          5    1    4    4  501    0  0.10729757201E+03 -0.32668774565E+02 -0.39945466389E+03  0.41492350945E+03  0.41800000000E+01 0.  1.
         -5    1    4    4    0  501  0.20261195062E+01 -0.40639328376E+02 -0.28190910956E+02  0.49677560645E+02  0.41800000000E+01 0.  1.
</event>
<event>
11    1  0.6625361E-009  0.1602754E+03  0.7561462E-02  0.1086819E+00
         22   -1    0    0    0    0  0.00000000000E+00  0.00000000000E+00  0.18361511308E+04  0.18361511308E+04  0.00000000000E+00 0.  1.
         22   -1    0    0    0    0 -0.00000000000E+00 -0.00000000000E+00 -0.41762957340E+03  0.41762957340E+03  0.00000000000E+00 0. -1.
         24    2    1    2    0    0  0.89352923527E+02  0.48183824477E+02 -0.39365743974E+03  0.41445377011E+03  0.80623332906E+02 0.  0.
         25    2    1    2    0    0 -0.58681534486E+02  0.69603889483E+01  0.39603288653E+03  0.41950277563E+03  0.12509421266E+03 0.  0.
        -24    2    1    2    0    0 -0.30671389041E+02 -0.55144213425E+02  0.14161461106E+04  0.14198241585E+04  0.80307010823E+02 0.  0.
        -11    1    3    3    0    0  0.45492938034E+02  0.11863507581E+02 -0.61300263775E+02  0.77253301302E+02  0.00000000000E+00 0.  1.
         12    1    3    3    0    0  0.43859985492E+02  0.36320316895E+02 -0.33235717596E+03  0.33720046880E+03  0.00000000000E+00 0. -1.
         13    1    5    5    0    0 -0.67207317570E+01 -0.58777798478E+01  0.13976569964E+02  0.16584964252E+02  0.00000000000E+00 0. -1.
        -14    1    5    5    0    0 -0.23950657284E+02 -0.49266433577E+02  0.14021695407E+04  0.14032391942E+04  0.00000000000E+00 0.  1.
          5    1    4    4  501    0 -0.51304760360E+02 -0.35912304281E+02  0.35167734301E+03  0.35723423412E+03  0.41800000000E+01 0. -1.
         -5    1    4    4    0  501 -0.73767741264E+01  0.42872693229E+02  0.44355543516E+02  0.62268541510E+02  0.41800000000E+01 0. -1.
</event>
<event>
11    1  0.6625361E-009  0.1485590E+03  0.7561462E-02  0.1098360E+00
         22   -1    0    0    0    0  0.00000000000E+00  0.00000000000E+00  0.27750189262E+04  0.27750189262E+04  0.00000000000E+00 0. -1.
         22   -1    0    0    0    0 -0.00000000000E+00 -0.00000000000E+00 -0.10198239641E+03  0.10198239641E+03  0.00000000000E+00 0. -1.
        -24    2    1    2    0    0  0.46773479519E+02  0.63835846057E+02 -0.60771702644E+02  0.12704433021E+03  0.78640246486E+02 0.  0.
         25    2    1    2    0    0 -0.86394713759E+02 -0.75100892648E+02  0.10345986803E+04  0.10484013456E+04  0.12508701531E+03 0.  0.
         24    2    1    2    0    0  0.39621234240E+02  0.11265046591E+02  0.16992095521E+04  0.17015556468E+04  0.79257642278E+02 0.  0.
        -13    1    5    5    0    0 -0.11734956282E+02 -0.99147373277E+01  0.84140371889E+02  0.85531359143E+02  0.00000000000E+00 0.  1.
         14    1    5    5    0    0  0.51356190522E+02  0.21179783918E+02  0.16150691802E+04  0.16160242877E+04  0.00000000000E+00 0. -1.
         13    1    3    3    0    0  0.29698702655E+02  0.77411444597E+02 -0.64329761748E+02  0.10494218856E+03  0.00000000000E+00 0. -1.
        -14    1    3    3    0    0  0.17074776863E+02 -0.13575598540E+02  0.35580591039E+01  0.22102141644E+02  0.00000000000E+00 0.  1.
          5    1    4    4  501    0 -0.42868082956E+02 -0.10492647935E+03  0.60354967560E+03  0.61411474655E+03  0.41800000000E+01 0. -1.
         -5    1    4    4    0  501 -0.43526630803E+02  0.29825586701E+02  0.43104900472E+03  0.43428659901E+03  0.41800000000E+01 0. -1.
</event>
<event>
11    1  0.6625361E-009  0.1457106E+03  0.7561462E-02  0.1101344E+00
         22   -1    0    0    0    0  0.00000000000E+00  0.00000000000E+00  0.19192230865E+03  0.19192230865E+03  0.00000000000E+00 0. -1.
         22   -1    0    0    0    0 -0.00000000000E+00 -0.00000000000E+00 -0.60469055086E+03  0.60469055086E+03  0.00000000000E+00 0.  1.
         24    2    1    2    0    0  0.24382788547E+02  0.70436198946E+01 -0.44284908480E+03  0.45146073107E+03  0.84008016486E+02 0.  0.
         25    2    1    2    0    0  0.28321065347E+02 -0.62074390161E+02 -0.10011517977E+03  0.17414237916E+03  0.12508879383E+03 0.  0.
        -24    2    1    2    0    0 -0.52703853894E+02  0.55030770267E+02  0.13019602236E+03  0.17100974928E+03  0.80543455465E+02 0.  0.
        -11    1    3    3    0    0  0.36885863950E+02  0.33920371455E+02 -0.35994621795E+03  0.36341771885E+03  0.00000000000E+00 0.  1.
         12    1    3    3    0    0 -0.12503075403E+02 -0.26876751560E+02 -0.82902866852E+02  0.88043012223E+02  0.00000000000E+00 0. -1.
         13    1    5    5    0    0 -0.52803344476E+02  0.73282056093E+02  0.11970086402E+03  0.14995582610E+03  0.00000000000E+00 0. -1.
        -14    1    5    5    0    0  0.99490582399E-01 -0.18251285826E+02  0.10495158336E+02  0.21053923178E+02  0.00000000000E+00 0.  1.
          5    1    4    4  501    0 -0.13107277460E+02 -0.18044318079E+02  0.25826973372E+02  0.34378817474E+02  0.41800000000E+01 0.  1.
         -5    1    4    4    0  501  0.41428342807E+02 -0.44030072083E+02 -0.12594215314E+03  0.13976356168E+03  0.41800000000E+01 0.  1.
</event>
<event>
11    1  0.6625361E-009  0.3179511E+03  0.7561462E-02  0.9928677E-01
         22   -1    0    0    0    0  0.00000000000E+00  0.00000000000E+00  0.40137071932E+03  0.40137071932E+03  0.00000000000E+00 0.  1.
         22   -1    0    0    0    0 -0.00000000000E+00 -0.00000000000E+00 -0.19274764315E+04  0.19274764315E+04  0.00000000000E+00 0.  1.
        -24    2    1    2    0    0 -0.61309536171E+01  0.10622565263E+02 -0.15950903490E+04  0.15971620030E+04  0.80391635399E+02 0.  0.
         25    2    1    2    0    0  0.21102161685E+01  0.28412394455E+03 -0.16047089278E+03  0.34947077437E+03  0.12509214936E+03 0.  0.
         24    2    1    2    0    0  0.40207374486E+01 -0.29474650981E+03  0.22945552954E+03  0.38221437345E+03  0.80909306407E+02 0.  0.
        -13    1    5    5    0    0  0.17793593281E+02 -0.26850965693E+03  0.17738709804E+03  0.32230456152E+03  0.00000000000E+00 0.  1.
         14    1    5    5    0    0 -0.13772855833E+02 -0.26236852880E+02  0.52068431502E+02  0.59909811933E+02  0.00000000000E+00 0. -1.
         13    1    3    3    0    0  0.29348536197E+02 -0.25572009810E+01 -0.28367433722E+03  0.28519993943E+03  0.00000000000E+00 0. -1.
        -14    1    3    3    0    0 -0.35479489814E+02  0.13179766244E+02 -0.13114160117E+04  0.13119620636E+04  0.00000000000E+00 0.  1.
          5    1    4    4  501    0  0.27477554467E+02  0.11049600631E+03 -0.12730065906E+03  0.17084295013E+03  0.41800000000E+01 0.  1.
         -5    1    4    4    0  501 -0.25367338298E+02  0.17362793823E+03 -0.33170233717E+02  0.17862782424E+03  0.41800000000E+01 0.  1.
</event>
<event>
11    1  0.6625361E-009  0.1415510E+03  0.7561462E-02  0.1105839E+00
         22   -1    0    0    0    0  0.00000000000E+00  0.00000000000E+00  0.52402560648E+03  0.52402560648E+03  0.00000000000E+00 0.  1.
         22   -1    0    0    0    0 -0.00000000000E+00 -0.00000000000E+00 -0.49284381317E+03  0.49284381317E+03  0.00000000000E+00 0. -1.
         24    2    1    2    0    0  0.19513725416E+02  0.10308443693E+02 -0.43271873530E+03  0.44040662102E+03  0.78901447844E+02 0.  0.
         25    2    1    2    0    0  0.26515456069E+02  0.40629314989E+02  0.40804375439E+02  0.14024073034E+03  0.12509458319E+03 0.  0.
        -24    2    1    2    0    0 -0.46029181486E+02 -0.50937758682E+02  0.42309615316E+03  0.43622206829E+03  0.81030841285E+02 0.  0.
        -13    1    3    3    0    0 -0.25050903407E+02 -0.15174263634E+02 -0.19677391970E+03  0.19894165353E+03  0.00000000000E+00 0.  1.
         14    1    3    3    0    0  0.44564628824E+02  0.25482707327E+02 -0.23594481560E+03  0.24146496749E+03  0.00000000000E+00 0. -1.
         11    1    5    5    0    0 -0.78122550393E+01 -0.13439311087E+02  0.76234360851E+01  0.17313670582E+02  0.00000000000E+00 0. -1.
        -12    1    5    5    0    0 -0.38216926446E+02 -0.37498447596E+02  0.41547271707E+03  0.41890839771E+03  0.00000000000E+00 0.  1.
          5    1    4    4  501    0  0.74938977674E+02  0.10964258787E+02  0.13318063853E+02  0.77012392317E+02  0.41800000000E+01 0. -1.
         -5    1    4    4    0  501 -0.48423521605E+02  0.29665056202E+02  0.27486311586E+02  0.63228338019E+02  0.41800000000E+01 0. -1.
</event>
<event>
11    1  0.6625361E-009  0.1275685E+03  0.7561462E-02  0.1122293E+00
         22   -1    0    0    0    0  0.00000000000E+00  0.00000000000E+00  0.69377268578E+03  0.69377268578E+03  0.00000000000E+00 0. -1.
         22   -1    0    0    0    0 -0.00000000000E+00 -0.00000000000E+00 -0.11843374543E+04  0.11843374543E+04  0.00000000000E+00 0.  1.
        -24    2    1    2    0    0 -0.24757292704E+02  0.19704553545E+01 -0.11349687986E+04  0.11381421029E+04  0.81218633176E+02 0.  0.
         25    2    1    2    0    0  0.39246078096E+02  0.18764989419E+02  0.53205471322E+02  0.14272293023E+03  0.12508650271E+03 0.  0.
         24    2    1    2    0    0 -0.14488785392E+02 -0.20735444774E+02  0.59119855880E+03  0.59724510690E+03  0.80907961410E+02 0.  0.
        -11    1    5    5    0    0  0.14951387839E+01  0.27723730530E+02  0.11426779217E+03  0.11759238496E+03  0.00000000000E+00 0.  1.
         12    1    5    5    0    0 -0.15983924176E+02 -0.48459175303E+02  0.47693076663E+03  0.47965272194E+03  0.00000000000E+00 0. -1.
         13    1    3    3    0    0  0.25285293569E+02 -0.17391166917E+02 -0.47924587949E+03  0.48022745836E+03  0.00000000000E+00 0. -1.
        -14    1    3    3    0    0 -0.50042586273E+02  0.19361622271E+02 -0.65572291912E+03  0.65791464456E+03  0.00000000000E+00 0.  1.
          5    1    4    4  501    0 -0.35584207465E+02  0.34298218213E+02  0.42735219631E+02  0.65470413092E+02  0.41800000000E+01 0. -1.
         -5    1    4    4    0  501  0.74830285561E+02 -0.15533228793E+02  0.10470251690E+02  0.77252517139E+02  0.41800000000E+01 0. -1.
</event>
<event>
11    1  0.6625361E-009  0.1421055E+03  0.7561462E-02  0.1105230E+00
         22   -1    0    0    0    0  0.00000000000E+00  0.00000000000E+00  0.29804562493E+03  0.29804562493E+03  0.00000000000E+00 0.  1.
         22   -1    0    0    0    0 -0.00000000000E+00 -0.00000000000E+00 -0.10960372903E+04  0.10960372903E+04  0.00000000000E+00 0. -1.
        -24    2    1    2    0    0  0.63589703296E+02 -0.19269011559E+02 -0.10064035757E+04  0.10118381434E+04  0.80952616143E+02 0.  0.
         25    2    1    2    0    0 -0.93684550267E+02  0.22881387820E+02  0.14941138146E+01  0.15795525370E+03  0.12508907597E+03 0.  0.
         24    2    1    2    0    0  0.30094846971E+02 -0.36123762611E+01  0.20691779650E+03  0.22428951816E+03  0.81068269810E+02 0.  0.
        -11    1    5    5    0    0  0.42830434963E+02 -0.48127853860E+01  0.20705856254E+03  0.21149670773E+03  0.00000000000E+00 0.  1.
         12    1    5    5    0    0 -0.12735587992E+02  0.12004091249E+01 -0.14076603140E+00  0.12792810428E+02  0.00000000000E+00 0. -1.
         11    1    3    3    0    0  0.69596591503E+02 -0.34041500867E+02 -0.58188604372E+03  0.58702118974E+03  0.00000000000E+00 0. -1.
        -12    1    3    3    0    0 -0.60068882066E+01  0.14772489308E+02 -0.42451753195E+03  0.42481695362E+03  0.00000000000E+00 0.  1.
          5    1    4    4  501    0 -0.11375001852E+03  0.15304377219E+02  0.33104715199E+02  0.11952692267E+03  0.41800000000E+01 0.  1.
         -5    1    4    4    0  501  0.20065468249E+02  0.75770106013E+01 -0.31610601385E+02  0.38428331028E+02  0.41800000000E+01 0.  1.
</event>
<event>
11    1  0.6625361E-009  0.1597424E+03  0.7561462E-02  0.1087320E+00
         22   -1    0    0    0    0  0.00000000000E+00  0.00000000000E+00  0.29747084448E+03  0.29747084448E+03  0.00000000000E+00 0.  1.
         22   -1    0    0    0    0 -0.00000000000E+00 -0.00000000000E+00 -0.27646465515E+03  0.27646465515E+03  0.00000000000E+00 0. -1.
         24    2    1    2    0    0  0.35106751711E+02 -0.91889260965E+02 -0.16096026880E+03  0.20706149527E+03  0.85382283850E+02 0.  0.
         25    2    1    2    0    0 -0.38958928671E+02  0.95005557202E+02 -0.66109822097E+01  0.16197170365E+03  0.12508906297E+03 0.  0.
        -24    2    1    2    0    0  0.38521769600E+01 -0.31162962376E+01  0.18857744034E+03  0.20490230071E+03  0.79993445129E+02 0.  0.
        -13    1    3    3    0    0 -0.58637384981E+01  0.25980676039E+00  0.82225094060E+01  0.10102504128E+02  0.00000000000E+00 0.  1.
         14    1    3    3    0    0  0.40970490209E+02 -0.92149067725E+02 -0.16918277821E+03  0.19695899114E+03  0.00000000000E+00 0. -1.
         13    1    5    5    0    0  0.31895203921E+02 -0.25989503524E+02  0.73049073104E+02  0.83838686821E+02  0.00000000000E+00 0. -1.
        -14    1    5    5    0    0 -0.28043026961E+02  0.22873207287E+02  0.11552836724E+03  0.12106361389E+03  0.00000000000E+00 0.  1.
          5    1    4    4  501    0  0.23785401736E+02 -0.98777635438E+01 -0.27502465549E+02  0.37910072008E+02  0.41800000000E+01 0. -1.
         -5    1    4    4    0  501 -0.62744330407E+02  0.10488332075E+03  0.20891483339E+02  0.12406163164E+03  0.41800000000E+01 0. -1.
</event>
<event>
11    1  0.6625361E-009  0.1355123E+03  0.7561462E-02  0.1112676E+00
         22   -1    0    0    0    0  0.00000000000E+00  0.00000000000E+00  0.39969334708E+03  0.39969334708E+03  0.00000000000E+00 0.  1.
         22   -1    0    0    0    0 -0.00000000000E+00 -0.00000000000E+00 -0.25571033070E+03  0.25571033070E+03  0.00000000000E+00 0.  1.
         24    2    1    2    0    0 -0.30907785998E+02  0.46313703748E+02 -0.12671301476E+02  0.98717913973E+02  0.80525860864E+02 0.  0.
         25    2    1    2    0    0  0.37936830337E+02 -0.33785071486E+02 -0.17241109794E+03  0.21898335156E+03  0.12508991732E+03 0.  0.
        -24    2    1    2    0    0 -0.70290443389E+01 -0.12528632262E+02  0.32906541580E+03  0.33770241225E+03  0.74515080845E+02 0.  0.
        -13    1    3    3    0    0 -0.14330100932E+01 -0.13847676049E+02 -0.26846058201E+02  0.30241072911E+02  0.00000000000E+00 0.  1.
         14    1    3    3    0    0 -0.29474775905E+02  0.60161379797E+02  0.14174756725E+02  0.68476841062E+02  0.00000000000E+00 0. -1.
         11    1    5    5    0    0 -0.24021858633E+02  0.16002856969E+02  0.25380526414E+03  0.25544129116E+03  0.00000000000E+00 0. -1.
        -12    1    5    5    0    0  0.16992814295E+02 -0.28531489231E+02  0.75260151659E+02  0.82261121091E+02  0.00000000000E+00 0.  1.
          5    1    4    4  501    0  0.18565031067E+02 -0.29017078864E+02 -0.18933593041E+03  0.19248952747E+03  0.41800000000E+01 0.  1.
         -5    1    4    4    0  501  0.19371799270E+02 -0.47679926219E+01  0.16924832466E+02  0.26493824084E+02  0.41800000000E+01 0.  1.
</event>
<event>
11    1  0.6625361E-009  0.1721731E+03  0.7561462E-02  0.1076156E+00
         22   -1    0    0    0    0  0.00000000000E+00  0.00000000000E+00  0.65449594003E+03  0.65449594003E+03  0.00000000000E+00 0. -1.
         22   -1    0    0    0    0 -0.00000000000E+00 -0.00000000000E+00 -0.38418597474E+03  0.38418597474E+03  0.00000000000E+00 0. -1.
         24    2    1    2    0    0 -0.20656567055E+02  0.46952592615E+02 -0.32014390758E+03  0.33585865784E+03  0.87622353159E+02 0.  0.
         25    2    1    2    0    0  0.13031181433E+03 -0.71301134439E+02  0.16117991860E+03  0.25237357690E+03  0.12509370660E+03 0.  0.
        -24    2    1    2    0    0 -0.10965524727E+03  0.24348541824E+02  0.42927395426E+03  0.45044968003E+03  0.77534906226E+02 0.  0.
        -13    1    3    3    0    0 -0.33605801640E+01 -0.75843633859E+01  0.21144755965E+01  0.85607869998E+01  0.00000000000E+00 0.  1.
         14    1    3    3    0    0 -0.17295986891E+02  0.54536956001E+02 -0.32225838318E+03  0.32729787085E+03  0.00000000000E+00 0. -1.
         11    1    5    5    0    0 -0.43008226136E+02  0.21530917755E+02  0.31069330719E+03  0.31439405062E+03  0.00000000000E+00 0. -1.
        -12    1    5    5    0    0 -0.66647021138E+02  0.28176240688E+01  0.11858064707E+03  0.13605562940E+03  0.00000000000E+00 0.  1.
          5    1    4    4  501    0  0.88211138732E+02 -0.10415545206E+03  0.13756526623E+03  0.19383301593E+03  0.41800000000E+01 0.  1.
         -5    1    4    4    0  501  0.42100675598E+02  0.32854317623E+02  0.23614652368E+02  0.58540560970E+02  0.41800000000E+01 0.  1.
</event>
<event>
11    1  0.6625361E-009  0.1598224E+03  0.7561462E-02  0.1087244E+00
         22   -1    0    0    0    0  0.00000000000E+00  0.00000000000E+00  0.23963730143E+03  0.23963730143E+03  0.00000000000E+00 0.  1.
         22   -1    0    0    0    0 -0.00000000000E+00 -0.00000000000E+00 -0.30766187141E+03  0.30766187141E+03  0.00000000000E+00 0.  1.
        -24    2    1    2    0    0  0.34003925582E+02 -0.59096298542E+01 -0.17843802772E+03  0.19876854557E+03  0.80483627463E+02 0.  0.
         25    2    1    2    0    0  0.24304816249E+02 -0.80545384467E+02 -0.34316190749E+02  0.15460973621E+03  0.12509311144E+03 0.  0.
         24    2    1    2    0    0 -0.58308741830E+02  0.86455014321E+02  0.14472964849E+03  0.19392089106E+03  0.76054335589E+02 0.  0.
        -13    1    5    5    0    0 -0.34548305933E+02  0.93615532066E+02  0.13352554413E+03  0.16669290393E+03  0.00000000000E+00 0.  1.
         14    1    5    5    0    0 -0.23760435898E+02 -0.71605177452E+01  0.11204104365E+02  0.27227987128E+02  0.00000000000E+00 0. -1.
         13    1    3    3    0    0  0.51743639766E+02 -0.26785635517E+02 -0.10066112418E+03  0.11630793802E+03  0.00000000000E+00 0. -1.
        -14    1    3    3    0    0 -0.17739714184E+02  0.20876005662E+02 -0.77776903548E+02  0.82460607549E+02  0.00000000000E+00 0.  1.
          5    1    4    4  501    0  0.49880881062E+02  0.13371126116E+02 -0.15954182639E+01  0.51835384330E+02  0.41800000000E+01 0.  1.
         -5    1    4    4    0  501 -0.25576064814E+02 -0.93916510583E+02 -0.32720772485E+02  0.10277435188E+03  0.41800000000E+01 0.  1.
</event>
<event>
11    1  0.6625361E-009  0.1389389E+03  0.7561462E-02  0.1108749E+00
         22   -1    0    0    0    0  0.00000000000E+00  0.00000000000E+00  0.43597749473E+03  0.43597749473E+03  0.00000000000E+00 0.  1.
         22   -1    0    0    0    0 -0.00000000000E+00 -0.00000000000E+00 -0.13178513015E+03  0.13178513015E+03  0.00000000000E+00 0.  1.
         24    2    1    2    0    0  0.31086492282E+01 -0.23960638066E+02 -0.77885971797E+02  0.11544492679E+03  0.81716159008E+02 0.  0.
         25    2    1    2    0    0 -0.49574250009E+02 -0.22394351649E+02  0.19212489716E+03  0.23562336729E+03  0.12508909567E+03 0.  0.
        -24    2    1    2    0    0  0.46465600781E+02  0.46354989715E+02  0.18995343921E+03  0.21669433079E+03  0.81032627991E+02 0.  0.
        -11    1    3    3    0    0 -0.32150986764E+02 -0.31634334068E+02 -0.60299961377E+02  0.75302738224E+02  0.00000000000E+00 0.  1.
         12    1    3    3    0    0  0.35259635993E+02  0.76736960025E+01 -0.17586010420E+02  0.40142188570E+02  0.00000000000E+00 0. -1.
         13    1    5    5    0    0 -0.56178759238E+01  0.26996044885E+01 -0.63875201328E+01  0.89246180723E+01  0.00000000000E+00 0. -1.
        -14    1    5    5    0    0  0.52083476705E+02  0.43655385226E+02  0.19634095935E+03  0.20776971271E+03  0.00000000000E+00 0.  1.
          5    1    4    4  501    0  0.28535024073E+02 -0.33426032737E+02  0.12289913746E+03  0.13058796901E+03  0.41800000000E+01 0.  1.
         -5    1    4    4    0  501 -0.78109274082E+02  0.11031681088E+02  0.69225759705E+02  0.10503539828E+03  0.41800000000E+01 0.  1.
</event>
<event>
11    1  0.6625361E-009  0.1379153E+03  0.7561462E-02  0.1109909E+00
         22   -1    0    0    0    0  0.00000000000E+00  0.00000000000E+00  0.78570955241E+03  0.78570955241E+03  0.00000000000E+00 0. -1.
         22   -1    0    0    0    0 -0.00000000000E+00 -0.00000000000E+00 -0.22570899323E+03  0.22570899323E+03  0.00000000000E+00 0.  1.
         24    2    1    2    0    0  0.17806334053E+02  0.12731206541E+02 -0.15606655174E+03  0.17720047567E+03  0.81019077109E+02 0.  0.
         25    2    1    2    0    0 -0.40370700708E+02  0.41091610920E+02  0.29872733194E+02  0.14091715821E+03  0.12508777448E+03 0.  0.
        -24    2    1    2    0    0  0.22564366655E+02 -0.53822817461E+02  0.68619437773E+03  0.69330091176E+03  0.79983647656E+02 0.  0.
        -11    1    3    3    0    0  0.32202437884E+02  0.25444262032E+02 -0.15216443917E+03  0.15760210666E+03  0.00000000000E+00 0.  1.
         12    1    3    3    0    0 -0.14396103831E+02 -0.12713055492E+02 -0.39021125660E+01  0.19598369012E+02  0.00000000000E+00 0. -1.
         13    1    5    5    0    0  0.26600407235E+01 -0.33244412527E+02  0.62336056910E+03  0.62425208522E+03  0.00000000000E+00 0. -1.
        -14    1    5    5    0    0  0.19904325932E+02 -0.20578404934E+02  0.62833808628E+02  0.69048826544E+02  0.00000000000E+00 0.  1.
          5    1    4    4  501    0  0.32746988053E+02 -0.21118916719E+02  0.20878250670E+02  0.44404364886E+02  0.41800000000E+01 0. -1.
         -5    1    4    4    0  501 -0.73117688760E+02  0.62210527639E+02  0.89944825245E+01  0.96512793321E+02  0.41800000000E+01 0. -1.
</event>
<event>
11    1  0.6625361E-009  0.1805296E+03  0.7561462E-02  0.1069215E+00
         22   -1    0    0    0    0  0.00000000000E+00  0.00000000000E+00  0.99693822651E+02  0.99693822651E+02  0.00000000000E+00 0. -1.
         22   -1    0    0    0    0 -0.00000000000E+00 -0.00000000000E+00 -0.42363020772E+04  0.42363020772E+04  0.00000000000E+00 0.  1.
         24    2    1    2    0    0 -0.93459283516E+02  0.93465262081E+02 -0.38592181760E+04  0.38622961733E+04  0.79349902981E+02 0.  0.
         25    2    1    2    0    0  0.55112383769E+02 -0.92778695717E+02 -0.33131218555E+03  0.37021691660E+03  0.12509012680E+03 0.  0.
        -24    2    1    2    0    0  0.38346899747E+02 -0.68656636468E+00  0.53922107024E+02  0.10348280996E+03  0.79562191010E+02 0.  0.
        -13    1    3    3    0    0 -0.25883495704E+02  0.46438615434E+02 -0.25133740475E+04  0.25139362767E+04  0.00000000000E+00 0.  1.
         14    1    3    3    0    0 -0.67575787812E+02  0.47026646647E+02 -0.13458441285E+04  0.13483598966E+04  0.00000000000E+00 0. -1.
         11    1    5    5    0    0  0.47791354586E+02 -0.79162170935E+01  0.68982141123E+02  0.84292442485E+02  0.00000000000E+00 0. -1.
        -12    1    5    5    0    0 -0.94444548382E+01  0.72296507288E+01 -0.15060034099E+02  0.19190367477E+02  0.00000000000E+00 0.  1.
          5    1    4    4  501    0 -0.13789204355E+02 -0.13327781854E+02 -0.20440368973E+03  0.20534388888E+03  0.41800000000E+01 0. -1.
         -5    1    4    4    0  501  0.68901588124E+02 -0.79450913863E+02 -0.12690849582E+03  0.16487302772E+03  0.41800000000E+01 0. -1.
</event>
<event>
11    1  0.6625361E-009  0.1335773E+03  0.7561462E-02  0.1114950E+00
         22   -1    0    0    0    0  0.00000000000E+00  0.00000000000E+00  0.37574088494E+03  0.37574088494E+03  0.00000000000E+00 0.  1.
         22   -1    0    0    0    0 -0.00000000000E+00 -0.00000000000E+00 -0.54243162043E+03  0.54243162043E+03  0.00000000000E+00 0. -1.
        -24    2    1    2    0    0  0.63500220509E+01 -0.44924895219E+02 -0.48218032825E+03  0.49091232678E+03  0.80240106193E+02 0.  0.
         25    2    1    2    0    0  0.25772105974E+02  0.36124006649E+01  0.37184294668E+02  0.13307192121E+03  0.12509281978E+03 0.  0.
         24    2    1    2    0    0 -0.32122128025E+02  0.41312494554E+02  0.27830529810E+03  0.29418825739E+03  0.79714104905E+02 0.  0.
        -11    1    5    5    0    0 -0.35394099839E+02  0.11485548825E+02  0.25060082932E+03  0.25334844738E+03  0.00000000000E+00 0.  1.
         12    1    5    5    0    0  0.32719718138E+01  0.29826945729E+02  0.27704468779E+02  0.40839810007E+02  0.00000000000E+00 0. -1.
         11    1    3    3    0    0 -0.12058526974E+01 -0.57698960549E+02 -0.46337932293E+03  0.46695933554E+03  0.00000000000E+00 0. -1.
        -12    1    3    3    0    0  0.75558747482E+01  0.12774065330E+02 -0.18801005323E+02  0.23952991242E+02  0.00000000000E+00 0.  1.
          5    1    4    4  501    0  0.15237415636E+02  0.60608911163E+02 -0.25293648656E+01  0.62685636586E+02  0.41800000000E+01 0.  1.
         -5    1    4    4    0  501  0.10534690338E+02 -0.56996510498E+02  0.39713659534E+02  0.70386284623E+02  0.41800000000E+01 0.  1.
</event>
<event>
11    1  0.6625361E-009  0.2144963E+03  0.7561462E-02  0.1044721E+00
         22   -1    0    0    0    0  0.00000000000E+00  0.00000000000E+00  0.42926232143E+03  0.42926232143E+03  0.00000000000E+00 0.  1.
         22   -1    0    0    0    0 -0.00000000000E+00 -0.00000000000E+00 -0.94506254756E+03  0.94506254756E+03  0.00000000000E+00 0.  1.
         24    2    1    2    0    0  0.67913976965E+02  0.14249085694E+03 -0.59232078261E+03  0.61793460833E+03  0.77995628600E+02 0.  0.
         25    2    1    2    0    0 -0.10955615722E+03 -0.22516224609E+03 -0.26979508772E+03  0.38876466318E+03  0.12509190754E+03 0.  0.
        -24    2    1    2    0    0  0.41642180258E+02  0.82671389147E+02  0.34631564420E+03  0.36762559748E+03  0.81519474638E+02 0.  0.
        -11    1    3    3    0    0  0.71112874226E+02  0.10366484464E+03 -0.52780133669E+03  0.54256584108E+03  0.00000000000E+00 0.  1.
         12    1    3    3    0    0 -0.31988972611E+01  0.38826012301E+02 -0.64519445918E+02  0.75368767248E+02  0.00000000000E+00 0. -1.
         11    1    5    5    0    0  0.44527746284E+02  0.27750911874E+02  0.79858935745E+02  0.95552513924E+02  0.00000000000E+00 0. -1.
        -12    1    5    5    0    0 -0.28855660264E+01  0.54920477273E+02  0.26645670845E+03  0.27207308355E+03  0.00000000000E+00 0.  1.
          5    1    4    4  501    0 -0.42835630539E+02 -0.12944623386E+03 -0.22618153823E+03  0.26413401776E+03  0.41800000000E+01 0.  1.
         -5    1    4    4    0  501 -0.66720526684E+02 -0.95716012234E+02 -0.43613549494E+02  0.12463064542E+03  0.41800000000E+01 0.  1.
</event>
<event>
11    1  0.6625361E-009  0.1394386E+03  0.7561462E-02  0.1108187E+00
         22   -1    0    0    0    0  0.00000000000E+00  0.00000000000E+00  0.96262566295E+03  0.96262566295E+03  0.00000000000E+00 0. -1.
         22   -1    0    0    0    0 -0.00000000000E+00 -0.00000000000E+00 -0.27200879604E+04  0.27200879604E+04  0.00000000000E+00 0.  1.
         24    2    1    2    0    0  0.48574915201E+02  0.37167948369E+02 -0.25862278140E+04  0.25882271372E+04  0.81267637485E+02 0.  0.
         25    2    1    2    0    0 -0.45120218924E+02 -0.75640823554E+02 -0.85880867157E+02  0.17544001254E+03  0.12508519622E+03 0.  0.
        -24    2    1    2    0    0 -0.34546962772E+01  0.38472875185E+02  0.91464638373E+03  0.91904647362E+03  0.81094490330E+02 0.  0.
        -11    1    3    3    0    0 -0.58390586903E+01  0.33465644679E+02 -0.16899719783E+04  0.16903133826E+04  0.00000000000E+00 0.  1.
         12    1    3    3    0    0  0.54413973891E+02  0.37023036901E+01 -0.89625583568E+03  0.89791375454E+03  0.00000000000E+00 0. -1.
         13    1    5    5    0    0  0.15888747760E+01  0.62102317957E+02  0.52721071940E+03  0.53085814025E+03  0.00000000000E+00 0. -1.
        -14    1    5    5    0    0 -0.50435710532E+01 -0.23629442772E+02  0.38743566433E+03  0.38818833337E+03  0.00000000000E+00 0.  1.
          5    1    4    4  501    0 -0.12302068953E+02 -0.38567404849E+02 -0.11209962574E+03  0.11925847604E+03  0.41800000000E+01 0.  1.
         -5    1    4    4    0  501 -0.32818149971E+02 -0.37073418705E+02  0.26218758580E+02  0.56181536500E+02  0.41800000000E+01 0.  1.
</event>
<event>
11    1  0.6625361E-009  0.1403770E+03  0.7561462E-02  0.1107138E+00
         22   -1    0    0    0    0  0.00000000000E+00  0.00000000000E+00  0.14653281596E+04  0.14653281596E+04  0.00000000000E+00 0.  1.
         22   -1    0    0    0    0 -0.00000000000E+00 -0.00000000000E+00 -0.13160148763E+03  0.13160148763E+03  0.00000000000E+00 0.  1.
        -24    2    1    2    0    0  0.36153639349E+02 -0.19551572725E+02 -0.80931017953E+02  0.12111490580E+03  0.80185042905E+02 0.  0.
         25    2    1    2    0    0  0.29792446432E+02  0.23294983500E+02  0.12138833416E+03  0.17837002813E+03  0.12510193102E+03 0.  0.
         24    2    1    2    0    0 -0.65946085781E+02 -0.37434107742E+01  0.12932693557E+04  0.12974447133E+04  0.80338397742E+02 0.  0.
        -13    1    5    5    0    0 -0.38989334253E+02 -0.33517403871E+02  0.10139167834E+04  0.10152195960E+04  0.00000000000E+00 0.  1.
         14    1    5    5    0    0 -0.26956751528E+02  0.29773993097E+02  0.27935257235E+03  0.28222511723E+03  0.00000000000E+00 0. -1.
         13    1    3    3    0    0  0.77098561626E+01 -0.16746893901E+02  0.13242629547E+02  0.22699506045E+02  0.00000000000E+00 0. -1.
        -14    1    3    3    0    0  0.28443783186E+02 -0.28046788249E+01 -0.94173647500E+02  0.98415399754E+02  0.00000000000E+00 0.  1.
          5    1    4    4  501    0  0.18252644196E+02  0.74593948315E+02  0.60799978404E+02  0.98038390028E+02  0.41800000000E+01 0.  1.
         -5    1    4    4    0  501  0.11539802236E+02 -0.51298964815E+02  0.60588355757E+02  0.80331638102E+02  0.41800000000E+01 0.  1.
</event>
<event>
11    1  0.6625361E-009  0.5095923E+03  0.7561462E-02  0.9372339E-01
         22   -1    0    0    0    0  0.00000000000E+00  0.00000000000E+00  0.97936263184E+03  0.97936263184E+03  0.00000000000E+00 0. -1.
         22   -1    0    0    0    0 -0.00000000000E+00 -0.00000000000E+00 -0.10557941014E+04  0.10557941014E+04  0.00000000000E+00 0.  1.
         24    2    1    2    0    0 -0.67271482019E+02  0.46001038904E+02 -0.71901937134E+03  0.72785882737E+03  0.78409619021E+02 0.  0.
         25    2    1    2    0    0 -0.14023788781E+03  0.42256469276E+03 -0.23328256606E+02  0.46305439316E+03  0.12509028229E+03 0.  0.
        -24    2    1    2    0    0  0.20750936983E+03 -0.46856573167E+03  0.66591615840E+03  0.84424351269E+03  0.81785055177E+02 0.  0.
        -13    1    3    3    0    0 -0.18416931880E+02  0.70837446284E+01 -0.49223284308E+03  0.49262819106E+03  0.00000000000E+00 0.  1.
         14    1    3    3    0    0 -0.48854550139E+02  0.38917294275E+02 -0.22678652826E+03  0.23523063632E+03  0.00000000000E+00 0. -1.
         11    1    5    5    0    0  0.77187658056E+02 -0.25474151713E+03  0.30286837128E+03  0.40321263054E+03  0.00000000000E+00 0. -1.
        -12    1    5    5    0    0  0.13032171177E+03 -0.21382421454E+03  0.36304778711E+03  0.44103088215E+03  0.00000000000E+00 0.  1.
          5    1    4    4  501    0 -0.60668767598E+02  0.27835498681E+03  0.37601872684E+02  0.28739097285E+03  0.41800000000E+01 0.  1.
         -5    1    4    4    0  501 -0.79569120210E+02  0.14420970595E+03 -0.60930129290E+02  0.17566342032E+03  0.41800000000E+01 0.  1.
</event>
<event>
11    1  0.6625361E-009  0.1263462E+03  0.7561462E-02  0.1123842E+00
         22   -1    0    0    0    0  0.00000000000E+00  0.00000000000E+00  0.19776259313E+04  0.19776259313E+04  0.00000000000E+00 0.  1.
         22   -1    0    0    0    0 -0.00000000000E+00 -0.00000000000E+00 -0.36851688687E+02  0.36851688687E+02  0.00000000000E+00 0.  1.
        -24    2    1    2    0    0  0.24072309868E+02 -0.10045065347E+02  0.38457485547E+02  0.90255922117E+02  0.77374245342E+02 0.  0.
         25    2    1    2    0    0 -0.13767785695E+02 -0.71036113198E+01  0.39707289132E+03  0.41659731908E+03  0.12508569870E+03 0.  0.
         24    2    1    2    0    0 -0.10304524173E+02  0.17148676667E+02  0.15052438658E+04  0.15076243788E+04  0.82291626886E+02 0.  0.
        -11    1    5    5    0    0  0.28596270004E+02  0.18346234169E+01  0.10684937871E+04  0.10688779563E+04  0.00000000000E+00 0.  1.
         12    1    5    5    0    0 -0.38900794177E+02  0.15314053250E+02  0.43675007866E+03  0.43874642246E+03  0.00000000000E+00 0. -1.
         11    1    3    3    0    0  0.68385952069E+01  0.40331193255E+01  0.59262590652E+02  0.59792031966E+02  0.00000000000E+00 0. -1.
        -12    1    3    3    0    0  0.17233714662E+02 -0.14078184672E+02 -0.20805105104E+02  0.30463890150E+02  0.00000000000E+00 0.  1.
          5    1    4    4  501    0 -0.26950642150E+01  0.23299280806E+02  0.37811304986E+03  0.37886286534E+03  0.41800000000E+01 0.  1.
         -5    1    4    4    0  501 -0.11072721480E+02 -0.30402892126E+02  0.18959841464E+02  0.37734453738E+02  0.41800000000E+01 0.  1.
</event>
<event>
11    1  0.6625361E-009  0.1798891E+03  0.7561462E-02  0.1069733E+00
         22   -1    0    0    0    0  0.00000000000E+00  0.00000000000E+00  0.79615734649E+03  0.79615734649E+03  0.00000000000E+00 0. -1.
         22   -1    0    0    0    0 -0.00000000000E+00 -0.00000000000E+00 -0.15938189284E+04  0.15938189284E+04  0.00000000000E+00 0.  1.
        -24    2    1    2    0    0 -0.12929299974E+03 -0.69936939450E+01 -0.15646039206E+04  0.15731325695E+04  0.99975303042E+02 0.  0.
         25    2    1    2    0    0  0.10930546704E+03  0.42172815206E+02  0.34280242212E+03  0.38326008383E+03  0.12509420363E+03 0.  0.
         24    2    1    2    0    0  0.19987532705E+02 -0.35179121261E+02  0.42413991659E+03  0.43358362157E+03  0.80392885292E+02 0.  0.
        -11    1    5    5    0    0 -0.23969005901E+02 -0.24633785366E+02  0.29004808837E+03  0.29207743869E+03  0.00000000000E+00 0.  1.
         12    1    5    5    0    0  0.43956538606E+02 -0.10545335894E+02  0.13409182823E+03  0.14150618288E+03  0.00000000000E+00 0. -1.
         11    1    3    3    0    0 -0.12712251320E+01 -0.20948756105E+02 -0.54836781557E+03  0.54876928444E+03  0.00000000000E+00 0. -1.
        -12    1    3    3    0    0 -0.12802177461E+03  0.13955062160E+02 -0.10162361050E+04  0.10243632850E+04  0.00000000000E+00 0.  1.
          5    1    4    4  501    0  0.10978403049E+02  0.26775002990E+02  0.23370588647E+03  0.23552779006E+03  0.41800000000E+01 0. -1.
         -5    1    4    4    0  501  0.98327063987E+02  0.15397812216E+02  0.10909653565E+03  0.14773229377E+03  0.41800000000E+01 0. -1.
</event>
<event>
11    1  0.6625361E-009  0.1592662E+03  0.7561462E-02  0.1087770E+00
         22   -1    0    0    0    0  0.00000000000E+00  0.00000000000E+00  0.14317119471E+04  0.14317119471E+04  0.00000000000E+00 0. -1.
         22   -1    0    0    0    0 -0.00000000000E+00 -0.00000000000E+00 -0.10112784837E+03  0.10112784837E+03  0.00000000000E+00 0. -1.
        -24    2    1    2    0    0 -0.38548271387E+02 -0.23803392837E+01 -0.61635169044E+02  0.10812283476E+03  0.80000113073E+02 0.  0.
         25    2    1    2    0    0  0.29697668973E+02 -0.96867919922E+02  0.55197075808E+03  0.57496467704E+03  0.12508923459E+03 0.  0.
         24    2    1    2    0    0  0.88506024144E+01  0.99248259206E+02  0.84024850971E+03  0.84975228370E+03  0.78312422078E+02 0.  0.
        -11    1    5    5    0    0 -0.13287235651E+02  0.19755223659E+02  0.51938528438E+02  0.57135192565E+02  0.00000000000E+00 0.  1.
         12    1    5    5    0    0  0.22137838066E+02  0.79493035547E+02  0.78830998127E+03  0.79261709113E+03  0.00000000000E+00 0. -1.
         13    1    3    3    0    0 -0.63036882641E+02  0.50628567049E+01 -0.43745665148E+02  0.76895801644E+02  0.00000000000E+00 0. -1.
        -14    1    3    3    0    0  0.24488611254E+02 -0.74431959885E+01 -0.17889503896E+02  0.31227033118E+02  0.00000000000E+00 0.  1.
          5    1    4    4  501    0  0.50393066984E+02 -0.81649373294E+02  0.19824862350E+03  0.22028633748E+03  0.41800000000E+01 0.  1.
         -5    1    4    4    0  501 -0.20695398011E+02 -0.15218546628E+02  0.35372213458E+03  0.35467833956E+03  0.41800000000E+01 0.  1.
</event>
<event>
11    1  0.6625361E-009  0.1368818E+03  0.7561462E-02  0.1111091E+00
         22   -1    0    0    0    0  0.00000000000E+00  0.00000000000E+00  0.88688006802E+03  0.88688006802E+03  0.00000000000E+00 0.  1.
         22   -1    0    0    0    0 -0.00000000000E+00 -0.00000000000E+00 -0.36398909956E+03  0.36398909956E+03  0.00000000000E+00 0. -1.
         24    2    1    2    0    0 -0.64732411230E+02 -0.16475783158E+02 -0.20418707100E+03  0.22952462277E+03  0.80792672924E+02 0.  0.
         25    2    1    2    0    0  0.33068673948E+02 -0.33064480086E+02 -0.11297067658E+03  0.17491888622E+03  0.12508975157E+03 0.  0.
        -24    2    1    2    0    0  0.31663737282E+02  0.49540263244E+02  0.84004871605E+03  0.84642565860E+03  0.85426695262E+02 0.  0.
        -11    1    3    3    0    0  0.51467987230E+00  0.67971710935E+01  0.54569954138E+01  0.87318514184E+01  0.00000000000E+00 0.  1.
         12    1    3    3    0    0 -0.65247091102E+02 -0.23272954252E+02 -0.20964406642E+03  0.22079277135E+03  0.00000000000E+00 0. -1.
         11    1    5    5    0    0  0.13460053275E+02 -0.23503043733E+02  0.28745502541E+03  0.28872817274E+03  0.00000000000E+00 0. -1.
        -12    1    5    5    0    0  0.18203684007E+02  0.73043306977E+02  0.55259369064E+03  0.55769748586E+03  0.00000000000E+00 0.  1.
          5    1    4    4  501    0 -0.29578293375E+02 -0.56013030369E+02 -0.36024719267E+02  0.72990326814E+02  0.41800000000E+01 0.  1.
         -5    1    4    4    0  501  0.62646967323E+02  0.22948550282E+02 -0.76945957314E+02  0.10192855940E+03  0.41800000000E+01 0.  1.
</event>
<event>
11    1  0.6625361E-009  0.3158447E+03  0.7561462E-02  0.9936998E-01
         22   -1    0    0    0    0  0.00000000000E+00  0.00000000000E+00  0.31784023585E+04  0.31784023585E+04  0.00000000000E+00 0. -1.
         22   -1    0    0    0    0 -0.00000000000E+00 -0.00000000000E+00 -0.38672887077E+03  0.38672887077E+03  0.00000000000E+00 0.  1.
        -24    2    1    2    0    0  0.14295694691E+02 -0.13899963595E+03 -0.33064601436E+03  0.36829522325E+03  0.82397323810E+02 0.  0.
         25    2    1    2    0    0 -0.26980872718E+03 -0.30576126843E+02  0.81917963137E+03  0.87202890671E+03  0.12508995524E+03 0.  0.
         24    2    1    2    0    0  0.25551303249E+03  0.16957576279E+03  0.23031398707E+04  0.23248070993E+04  0.78942610489E+02 0.  0.
        -11    1    5    5    0    0  0.25146511167E+02 -0.62226872493E+01  0.14453385212E+03  0.14683699557E+03  0.00000000000E+00 0.  1.
         12    1    5    5    0    0  0.23036652132E+03  0.17579845004E+03  0.21586060186E+04  0.21779701037E+04  0.00000000000E+00 0. -1.
         13    1    3    3    0    0 -0.17515716390E+02 -0.35952755854E+02 -0.33451572688E+02  0.52138361017E+02  0.00000000000E+00 0. -1.
        -14    1    3    3    0    0  0.31811411082E+02 -0.10304688010E+03 -0.29719444168E+03  0.31615686223E+03  0.00000000000E+00 0.  1.
          5    1    4    4  501    0 -0.11986604594E+03 -0.31279398126E+02  0.20297028144E+03  0.23782488781E+03  0.41800000000E+01 0. -1.
         -5    1    4    4    0  501 -0.14994268124E+03  0.70327128249E+00  0.61620934993E+03  0.63420401890E+03  0.41800000000E+01 0. -1.
</event>
<event>
11    1  0.6625361E-009  0.1499974E+03  0.7561462E-02  0.1096881E+00
         22   -1    0    0    0    0  0.00000000000E+00  0.00000000000E+00  0.19911939464E+04  0.19911939464E+04  0.00000000000E+00 0.  1.
         22   -1    0    0    0    0 -0.00000000000E+00 -0.00000000000E+00 -0.94781202626E+03  0.94781202626E+03  0.00000000000E+00 0.  1.
         24    2    1    2    0    0 -0.49481711900E+02  0.64158735151E+02 -0.77172809036E+03  0.78011928016E+03  0.80355850506E+02 0.  0.
         25    2    1    2    0    0  0.11757844930E+03 -0.34180820748E+02 -0.12558852537E+03  0.21543553929E+03  0.12508786368E+03 0.  0.
        -24    2    1    2    0    0 -0.68096737397E+02 -0.29977914403E+02  0.19406985359E+04  0.19434511532E+04  0.71803459360E+02 0.  0.
        -13    1    3    3    0    0 -0.28882432646E+02 -0.91206103777E+01 -0.37039267678E+03  0.37162900245E+03  0.00000000000E+00 0.  1.
         14    1    3    3    0    0 -0.20599279255E+02  0.73279345529E+02 -0.40133541358E+03  0.40849027771E+03  0.00000000000E+00 0. -1.
         13    1    5    5    0    0  0.41199683727E+01 -0.12995048177E+02  0.71917700472E+02  0.73198367862E+02  0.00000000000E+00 0. -1.
        -14    1    5    5    0    0 -0.72216705770E+02 -0.16982866226E+02  0.18687808354E+04  0.18702527854E+04  0.00000000000E+00 0.  1.
          5    1    4    4  501    0  0.76903390945E+00 -0.24003102249E+02  0.17785145326E+02  0.30174892295E+02  0.41800000000E+01 0.  1.
         -5    1    4    4    0  501  0.11680941539E+03 -0.10177718499E+02 -0.14337367069E+03  0.18526064700E+03  0.41800000000E+01 0.  1.
</event>
<event>
11    1  0.6625361E-009  0.1358871E+03  0.7561462E-02  0.1112240E+00
         22   -1    0    0    0    0  0.00000000000E+00  0.00000000000E+00  0.13290631717E+04  0.13290631717E+04  0.00000000000E+00 0. -1.
         22   -1    0    0    0    0 -0.00000000000E+00 -0.00000000000E+00 -0.18089125268E+03  0.18089125268E+03  0.00000000000E+00 0. -1.
         24    2    1    2    0    0  0.11764215517E+02 -0.48574690126E+01 -0.15891870610E+03  0.17819524442E+03  0.79601496298E+02 0.  0.
         25    2    1    2    0    0  0.18278778778E+02 -0.41682233231E+02  0.45301064064E+03  0.47216312050E+03  0.12509136461E+03 0.  0.
        -24    2    1    2    0    0 -0.30042994294E+02  0.46539702244E+02  0.85407998443E+03  0.85959605941E+03  0.79901440356E+02 0.  0.
        -13    1    3    3    0    0 -0.57825120124E+01  0.30448594290E+02 -0.29068361814E+02  0.42491457941E+02  0.00000000000E+00 0.  1.
         14    1    3    3    0    0  0.17546727529E+02 -0.35306063303E+02 -0.12985034429E+03  0.13570378648E+03  0.00000000000E+00 0. -1.
         13    1    5    5    0    0  0.52114609290E+01  0.51783931936E+02  0.67500411702E+03  0.67700760183E+03  0.00000000000E+00 0. -1.
        -14    1    5    5    0    0 -0.35254455223E+02 -0.52442296921E+01  0.17907586740E+03  0.18258845759E+03  0.00000000000E+00 0.  1.
          5    1    4    4  501    0  0.62627414850E+02 -0.33669127415E+02  0.37722931600E+03  0.38389481956E+03  0.41800000000E+01 0. -1.
         -5    1    4    4    0  501 -0.44348636073E+02 -0.80131058168E+01  0.75781324640E+02  0.88268300938E+02  0.41800000000E+01 0. -1.
</event>
<event>
11    1  0.6625361E-009  0.1369190E+03  0.7561462E-02  0.1111048E+00
         22   -1    0    0    0    0  0.00000000000E+00  0.00000000000E+00  0.10261783426E+04  0.10261783426E+04  0.00000000000E+00 0. -1.
         22   -1    0    0    0    0 -0.00000000000E+00 -0.00000000000E+00 -0.18200280162E+03  0.18200280162E+03  0.00000000000E+00 0.  1.
        -24    2    1    2    0    0  0.12064315108E+02 -0.44054730769E+02 -0.13607006319E+03  0.15925191294E+03  0.68990888357E+02 0.  0.
         25    2    1    2    0    0 -0.24324174113E+02  0.94465970148E+02  0.16825074297E+03  0.23123989251E+03  0.12509232756E+03 0.  0.
         24    2    1    2    0    0  0.12259859005E+02 -0.50411239380E+02  0.81199486123E+03  0.81768933880E+03  0.81170209620E+02 0.  0.
        -13    1    5    5    0    0 -0.18054976908E+02  0.14013440374E+02  0.13061545225E+03  0.13259998141E+03  0.00000000000E+00 0.  1.
         14    1    5    5    0    0  0.30314835913E+02 -0.64424679754E+02  0.68137940897E+03  0.68508935739E+03  0.00000000000E+00 0. -1.
         11    1    3    3    0    0  0.18944414257E+01  0.17960272036E+02 -0.17995390121E+02  0.25494986675E+02  0.00000000000E+00 0. -1.
        -12    1    3    3    0    0  0.10169873682E+02 -0.62015002805E+02 -0.11807467307E+03  0.13375692626E+03  0.00000000000E+00 0.  1.
          5    1    4    4  501    0  0.41359388962E+02  0.81255337802E+02  0.90764462382E+02  0.12871941970E+03  0.41800000000E+01 0. -1.
         -5    1    4    4    0  501 -0.65683563074E+02  0.13210632346E+02  0.77486280592E+02  0.10252047281E+03  0.41800000000E+01 0. -1.
</event>
<event>
11    1  0.6625361E-009  0.1317689E+03  0.7561462E-02  0.1117114E+00
         22   -1    0    0    0    0  0.00000000000E+00  0.00000000000E+00  0.98827779856E+03  0.98827779856E+03  0.00000000000E+00 0. -1.
         22   -1    0    0    0    0 -0.00000000000E+00 -0.00000000000E+00 -0.86943488019E+02  0.86943488019E+02  0.00000000000E+00 0.  1.
        -24    2    1    2    0    0 -0.34511439585E+02 -0.14992317338E+02 -0.30830374384E+02  0.93773793519E+02  0.80169840495E+02 0.  0.
         25    2    1    2    0    0  0.63092554783E+02  0.28665958496E+02  0.21022469608E+03  0.25425462627E+03  0.12509430241E+03 0.  0.
         24    2    1    2    0    0 -0.28581115199E+02 -0.13673641158E+02  0.72193998885E+03  0.72719286679E+03  0.81291262739E+02 0.  0.
        -11    1    5    5    0    0  0.83495083532E+01 -0.55933969681E+00  0.62848528319E+01  0.10465492141E+02  0.00000000000E+00 0.  1.
         12    1    5    5    0    0 -0.36930623552E+02 -0.13114301461E+02  0.71565513602E+03  0.71672737464E+03  0.00000000000E+00 0. -1.
         11    1    3    3    0    0  0.25311236201E+02 -0.11728501704E+02 -0.15577032344E+02  0.31950905573E+02  0.00000000000E+00 0. -1.
        -12    1    3    3    0    0 -0.59822675786E+02 -0.32638156339E+01 -0.15253342040E+02  0.61822887947E+02  0.00000000000E+00 0.  1.
          5    1    4    4  501    0 -0.32336380276E+02 -0.78155728874E+01  0.92149688123E+02  0.98059992301E+02  0.41800000000E+01 0.  1.
         -5    1    4    4    0  501  0.95428935059E+02  0.36481531383E+02  0.11807500795E+03  0.15619463397E+03  0.41800000000E+01 0.  1.
</event>
<event>
11    1  0.6625361E-009  0.1477658E+03  0.7561462E-02  0.1099184E+00
         22   -1    0    0    0    0  0.00000000000E+00  0.00000000000E+00  0.24168854059E+03  0.24168854059E+03  0.00000000000E+00 0. -1.
         22   -1    0    0    0    0 -0.00000000000E+00 -0.00000000000E+00 -0.27475812863E+03  0.27475812863E+03  0.00000000000E+00 0. -1.
        -24    2    1    2    0    0 -0.59597233744E+02  0.20401327038E+02 -0.15144345824E+03  0.18263738341E+03  0.80332112890E+02 0.  0.
         25    2    1    2    0    0 -0.23651855206E+02  0.15289417696E+02 -0.40182764373E+02  0.13436846071E+03  0.12508817743E+03 0.  0.
         24    2    1    2    0    0  0.83249088950E+02 -0.35690744734E+02  0.15855663458E+03  0.19944082510E+03  0.80200974295E+02 0.  0.
        -13    1    5    5    0    0  0.61555025077E+02 -0.16321044552E+02  0.35324117735E+02  0.72823010795E+02  0.00000000000E+00 0.  1.
         14    1    5    5    0    0  0.21694063873E+02 -0.19369700182E+02  0.12323251684E+03  0.12661781431E+03  0.00000000000E+00 0. -1.
         13    1    3    3    0    0 -0.48360096289E+02  0.50682978070E+01 -0.15573463185E+03  0.16314920200E+03  0.00000000000E+00 0. -1.
        -14    1    3    3    0    0 -0.11237137454E+02  0.15333029231E+02  0.42911736161E+01  0.19488181408E+02  0.00000000000E+00 0.  1.
          5    1    4    4  501    0 -0.22651275562E+01 -0.67169445571E+01 -0.81955402053E+02  0.82367520740E+02  0.41800000000E+01 0. -1.
         -5    1    4    4    0  501 -0.21386727650E+02  0.22006362253E+02  0.41772637681E+02  0.52000939972E+02  0.41800000000E+01 0. -1.
</event>
<event>
11    1  0.6625361E-009  0.1538980E+03  0.7561462E-02  0.1092961E+00
         22   -1    0    0    0    0  0.00000000000E+00  0.00000000000E+00  0.52289715463E+03  0.52289715463E+03  0.00000000000E+00 0.  1.
         22   -1    0    0    0    0 -0.00000000000E+00 -0.00000000000E+00 -0.53432982718E+03  0.53432982718E+03  0.00000000000E+00 0.  1.
        -24    2    1    2    0    0 -0.93451799663E+02 -0.19274835086E+02 -0.47467985086E+03  0.49527049327E+03  0.10424558775E+03 0.  0.
         25    2    1    2    0    0  0.33520184170E+02 -0.43210516347E+02  0.74462541668E+02  0.15550917588E+03  0.12509069591E+03 0.  0.
         24    2    1    2    0    0  0.59931615493E+02  0.62485351433E+02  0.38878463665E+03  0.40644731266E+03  0.80930257602E+02 0.  0.
        -11    1    5    5    0    0  0.12494313324E+02  0.16559479216E+02  0.26793672039E+03  0.26873855390E+03  0.00000000000E+00 0.  1.
         12    1    5    5    0    0  0.47437302169E+02  0.45925872217E+02  0.12084791625E+03  0.13770875876E+03  0.00000000000E+00 0. -1.
         13    1    3    3    0    0 -0.10176807873E+03  0.17346749151E+02 -0.32822333578E+03  0.34407587783E+03  0.00000000000E+00 0. -1.
        -14    1    3    3    0    0  0.83162790638E+01 -0.36621584238E+02 -0.14645651508E+03  0.15119461544E+03  0.00000000000E+00 0.  1.
          5    1    4    4  501    0 -0.33244898275E+02  0.14781810352E+02  0.52981946002E+02  0.64407174916E+02  0.41800000000E+01 0.  1.
         -5    1    4    4    0  501  0.66765082445E+02 -0.57992326699E+02  0.21480595667E+02  0.91102000966E+02  0.41800000000E+01 0.  1.
</event>
<event>
11    1  0.6625361E-009  0.2506925E+03  0.7561462E-02  0.1023531E+00
         22   -1    0    0    0    0  0.00000000000E+00  0.00000000000E+00  0.83600270009E+03  0.83600270009E+03  0.00000000000E+00 0. -1.
         22   -1    0    0    0    0 -0.00000000000E+00 -0.00000000000E+00 -0.45854531466E+03  0.45854531466E+03  0.00000000000E+00 0. -1.
         24    2    1    2    0    0  0.26596033172E+02  0.13045661115E+03 -0.24937307277E+03  0.29422484754E+03  0.81578521139E+02 0.  0.
         25    2    1    2    0    0 -0.16803814068E+03  0.45469843167E+02 -0.98992086108E+02  0.23611721831E+03  0.12509030461E+03 0.  0.
        -24    2    1    2    0    0  0.14144210751E+03 -0.17592645432E+03  0.72582254431E+03  0.76420594890E+03  0.78970750276E+02 0.  0.
        -11    1    3    3    0    0 -0.10958409797E+02  0.53351896921E+02 -0.38847533417E+02  0.66900242922E+02  0.00000000000E+00 0.  1.
         12    1    3    3    0    0  0.37554442970E+02  0.77104714231E+02 -0.21052553935E+03  0.22732460462E+03  0.00000000000E+00 0. -1.
         11    1    5    5    0    0  0.23215678992E+02 -0.61684552020E+02  0.31274173087E+03  0.31961123563E+03  0.00000000000E+00 0. -1.
        -12    1    5    5    0    0  0.11822642852E+03 -0.11424190230E+03  0.41308081343E+03  0.44459471327E+03  0.00000000000E+00 0.  1.
          5    1    4    4  501    0 -0.11801043183E+03 -0.24132271828E+02 -0.25639416732E+02  0.12322207860E+03  0.41800000000E+01 0.  1.
         -5    1    4    4    0  501 -0.50027708856E+02  0.69602114995E+02 -0.73352669376E+02  0.11289513971E+03  0.41800000000E+01 0.  1.
</event>
<event>
11    1  0.6625361E-009  0.1392750E+03  0.7561462E-02  0.1108371E+00
         22   -1    0    0    0    0  0.00000000000E+00  0.00000000000E+00  0.62558346988E+03  0.62558346988E+03  0.00000000000E+00 0. -1.
         22   -1    0    0    0    0 -0.00000000000E+00 -0.00000000000E+00 -0.44804435959E+03  0.44804435959E+03  0.00000000000E+00 0. -1.
         24    2    1    2    0    0 -0.31896310520E+02 -0.68386523205E+00 -0.41453047850E+03  0.42343765955E+03  0.80287555849E+02 0.  0.
         25    2    1    2    0    0  0.75680926401E+02  0.34692177383E+02  0.22673011540E+03  0.27199986631E+03  0.12508490019E+03 0.  0.
        -24    2    1    2    0    0 -0.43784615881E+02 -0.34008312151E+02  0.36533947340E+03  0.37819030361E+03  0.80506627264E+02 0.  0.
        -11    1    3    3    0    0  0.18350775743E+02 -0.19946522447E+02 -0.76698323285E+02  0.81346465951E+02  0.00000000000E+00 0.  1.
         12    1    3    3    0    0 -0.50247086263E+02  0.19262657215E+02 -0.33783215522E+03  0.34209119360E+03  0.00000000000E+00 0. -1.
         13    1    5    5    0    0 -0.13626719577E+02 -0.45060485730E+02  0.31485218595E+03  0.31835205961E+03  0.00000000000E+00 0. -1.
        -14    1    5    5    0    0 -0.30157896304E+02  0.11052173580E+02  0.50487287450E+02  0.59838243994E+02  0.00000000000E+00 0.  1.
          5    1    4    4  501    0  0.47982681011E+02 -0.90264415905E+01  0.11150535775E+02  0.50255558626E+02  0.41800000000E+01 0.  1.
         -5    1    4    4    0  501  0.27698245390E+02  0.43718618973E+02  0.21557957962E+03  0.22174430769E+03  0.41800000000E+01 0.  1.
</event>
<event>
11    1  0.6625361E-009  0.1306166E+03  0.7561462E-02  0.1118514E+00
         22   -1    0    0    0    0  0.00000000000E+00  0.00000000000E+00  0.18591013976E+03  0.18591013976E+03  0.00000000000E+00 0.  1.
         22   -1    0    0    0    0 -0.00000000000E+00 -0.00000000000E+00 -0.59673281981E+03  0.59673281981E+03  0.00000000000E+00 0.  1.
         24    2    1    2    0    0 -0.15736357939E+02  0.15717161954E+02 -0.49386667844E+03  0.50097128261E+03  0.81075691719E+02 0.  0.
         25    2    1    2    0    0 -0.22855984374E+02 -0.36300214555E+01 -0.37122696768E+02  0.13251813901E+03  0.12508952584E+03 0.  0.
        -24    2    1    2    0    0  0.38592342313E+02 -0.12087140499E+02  0.12016669517E+03  0.14915353794E+03  0.78557465605E+02 0.  0.
        -13    1    3    3    0    0  0.25222080436E+02  0.19316922453E+02 -0.34719694184E+03  0.34864740535E+03  0.00000000000E+00 0.  1.
         14    1    3    3    0    0 -0.40958438375E+02 -0.35997604993E+01 -0.14666973660E+03  0.15232387726E+03  0.00000000000E+00 0. -1.
         13    1    5    5    0    0  0.22496014172E+02 -0.12533921321E+02 -0.20939242558E+01  0.25837073288E+02  0.00000000000E+00 0. -1.
        -14    1    5    5    0    0  0.16096328141E+02  0.44678082198E+00  0.12226061942E+03  0.12331646465E+03  0.00000000000E+00 0.  1.
          5    1    4    4  501    0 -0.45067741097E+02  0.50757769599E+02 -0.15288275955E+02  0.69704061890E+02  0.41800000000E+01 0.  1.
         -5    1    4    4    0  501  0.22211756723E+02 -0.54387791055E+02 -0.21834420813E+02  0.62814077123E+02  0.41800000000E+01 0.  1.
</event>
<event>
11    1  0.6625361E-009  0.1646140E+03  0.7561462E-02  0.1082816E+00
         22   -1    0    0    0    0  0.00000000000E+00  0.00000000000E+00  0.12876787599E+03  0.12876787599E+03  0.00000000000E+00 0.  1.
         22   -1    0    0    0    0 -0.00000000000E+00 -0.00000000000E+00 -0.75280551803E+03  0.75280551803E+03  0.00000000000E+00 0. -1.
        -24    2    1    2    0    0 -0.62869759527E+02 -0.54758633011E+02 -0.50809374163E+03  0.52035815050E+03  0.75247856786E+02 0.  0.
         25    2    1    2    0    0  0.75817971262E+02  0.14495175228E+03 -0.12311793213E+03  0.23992376359E+03  0.12508401924E+03 0.  0.
         24    2    1    2    0    0 -0.12948211735E+02 -0.90193119270E+02  0.71740317233E+01  0.12129147993E+03  0.79735195626E+02 0.  0.
        -13    1    5    5    0    0  0.21756715267E+02 -0.78787456522E+02  0.16949289115E+02  0.83475124235E+02  0.00000000000E+00 0.  1.
         14    1    5    5    0    0 -0.34704927002E+02 -0.11405662747E+02 -0.97752573915E+01  0.37816355695E+02  0.00000000000E+00 0. -1.
         11    1    3    3    0    0 -0.79092043612E+02 -0.37847454203E+02 -0.36679451140E+03  0.37712888346E+03  0.00000000000E+00 0. -1.
        -12    1    3    3    0    0  0.16222284085E+02 -0.16911178808E+02 -0.14129923024E+03  0.14322926703E+03  0.00000000000E+00 0.  1.
          5    1    4    4  501    0  0.75499788131E+02  0.24957918080E+02 -0.78552066064E+02  0.11185264935E+03  0.41800000000E+01 0.  1.
         -5    1    4    4    0  501  0.31818313155E+00  0.11999383420E+03 -0.44565866066E+02  0.12807111425E+03  0.41800000000E+01 0.  1.
</event>
<event>
11    1  0.6625361E-009  0.1407994E+03  0.7561462E-02  0.1106669E+00
         22   -1    0    0    0    0  0.00000000000E+00  0.00000000000E+00  0.89760907995E+02  0.89760907995E+02  0.00000000000E+00 0. -1.
         22   -1    0    0    0    0 -0.00000000000E+00 -0.00000000000E+00 -0.89204716424E+03  0.89204716424E+03  0.00000000000E+00 0. -1.
         24    2    1    2    0    0 -0.62038930190E+02  0.23212276146E+02 -0.49374381725E+03  0.50472413943E+03  0.81091684047E+02 0.  0.
         25    2    1    2    0    0  0.59788484444E+02 -0.13173831673E+02 -0.35633338511E+03  0.38258218246E+03  0.12508969693E+03 0.  0.
        -24    2    1    2    0    0  0.22504457461E+01 -0.10038444473E+02  0.47790946121E+02  0.94501750347E+02  0.80875035789E+02 0.  0.
        -11    1    3    3    0    0 -0.12638955094E+02 -0.29662208213E+02 -0.16273300176E+03  0.16589641239E+03  0.00000000000E+00 0.  1.
         12    1    3    3    0    0 -0.49399975097E+02  0.52874484359E+02 -0.33101081549E+03  0.33882772703E+03  0.00000000000E+00 0. -1.
         13    1    5    5    0    0  0.93984666219E+01  0.24216424750E+02  0.53095546671E+02  0.59109250365E+02  0.00000000000E+00 0. -1.
        -14    1    5    5    0    0 -0.71480208758E+01 -0.34254869223E+02 -0.53046005498E+01  0.35392499981E+02  0.00000000000E+00 0.  1.
          5    1    4    4  501    0 -0.32048330411E+02  0.20349919601E+02 -0.66643092585E+02  0.76811385219E+02  0.41800000000E+01 0.  1.
         -5    1    4    4    0  501  0.91836814855E+02 -0.33523751274E+02 -0.28969029252E+03  0.30577079724E+03  0.41800000000E+01 0.  1.
</event>
<event>
11    1  0.6625361E-009  0.1324356E+03  0.7561462E-02  0.1116312E+00
         22   -1    0    0    0    0  0.00000000000E+00  0.00000000000E+00  0.21643755207E+04  0.21643755207E+04  0.00000000000E+00 0.  1.
         22   -1    0    0    0    0 -0.00000000000E+00 -0.00000000000E+00 -0.14407866454E+04  0.14407866454E+04  0.00000000000E+00 0.  1.
         24    2    1    2    0    0  0.33574694267E+02 -0.23443195369E+01 -0.13005630246E+04  0.13034947914E+04  0.80633332713E+02 0.  0.
         25    2    1    2    0    0 -0.75571770527E+02  0.12681065493E+02 -0.98731271204E+02  0.17682780872E+03  0.12509319766E+03 0.  0.
        -24    2    1    2    0    0  0.41997076260E+02 -0.10336745956E+02  0.21228831710E+04  0.21248395661E+04  0.80247249163E+02 0.  0.
        -11    1    3    3    0    0  0.46028410871E+02  0.26102190214E+02 -0.98115029700E+03  0.98257612644E+03  0.00000000000E+00 0.  1.
         12    1    3    3    0    0 -0.12453716604E+02 -0.28446509751E+02 -0.31941272756E+03  0.32091866493E+03  0.00000000000E+00 0. -1.
         13    1    5    5    0    0  0.15759948920E+01 -0.22266240219E+02  0.16502379622E+03  0.16652664211E+03  0.00000000000E+00 0. -1.
        -14    1    5    5    0    0  0.40421081367E+02  0.11929494263E+02  0.19578593748E+04  0.19583129240E+04  0.00000000000E+00 0.  1.
          5    1    4    4  501    0  0.16263526308E+02 -0.26686216081E+02  0.59155930851E+01  0.32079947915E+02  0.41800000000E+01 0. -1.
         -5    1    4    4    0  501 -0.91835296834E+02  0.39367281574E+02 -0.10464686429E+03  0.14474786081E+03  0.41800000000E+01 0. -1.
</event>
<event>
11    1  0.6625361E-009  0.1353441E+03  0.7561462E-02  0.1112872E+00
         22   -1    0    0    0    0  0.00000000000E+00  0.00000000000E+00  0.18910364478E+04  0.18910364478E+04  0.00000000000E+00 0. -1.
         22   -1    0    0    0    0 -0.00000000000E+00 -0.00000000000E+00 -0.45646330495E+03  0.45646330495E+03  0.00000000000E+00 0. -1.
        -24    2    1    2    0    0  0.51681794586E+02  0.91989367683E+01 -0.43675496016E+03  0.44731094712E+03  0.81095991596E+02 0.  0.
         25    2    1    2    0    0 -0.23125593645E+01 -0.14689222101E+02  0.29182557829E+03  0.31785234132E+03  0.12508725581E+03 0.  0.
         24    2    1    2    0    0 -0.49369235222E+02  0.54902853325E+01  0.15795025247E+04  0.15823364643E+04  0.80579129077E+02 0.  0.
        -11    1    5    5    0    0  0.96513047870E+01  0.84604205960E+01  0.94518327007E+03  0.94527040598E+03  0.00000000000E+00 0.  1.
         12    1    5    5    0    0 -0.59020540009E+02 -0.29701352636E+01  0.63431925467E+03  0.63706605834E+03  0.00000000000E+00 0. -1.
         11    1    3    3    0    0  0.66446532926E+02  0.71556808988E+01 -0.41822042940E+03  0.42352647270E+03  0.00000000000E+00 0. -1.
        -12    1    3    3    0    0 -0.14764738340E+02  0.20432558694E+01 -0.18534530764E+02  0.23784474420E+02  0.00000000000E+00 0.  1.
          5    1    4    4  501    0  0.24228114669E+02  0.13146693373E+01  0.28471952287E+03  0.28578210055E+03  0.41800000000E+01 0. -1.
         -5    1    4    4    0  501 -0.26540674034E+02 -0.16003891438E+02  0.71060554211E+01  0.32070240769E+02  0.41800000000E+01 0. -1.
</event>
<event>
11    1  0.6625361E-009  0.1577126E+03  0.7561462E-02  0.1089249E+00
         22   -1    0    0    0    0  0.00000000000E+00  0.00000000000E+00  0.83377695325E+03  0.83377695325E+03  0.00000000000E+00 0. -1.
         22   -1    0    0    0    0 -0.00000000000E+00 -0.00000000000E+00 -0.19607265710E+03  0.19607265710E+03  0.00000000000E+00 0.  1.
         24    2    1    2    0    0 -0.37677347648E+02 -0.77596221572E+02 -0.52964465608E+02  0.12991659490E+03  0.81439123807E+02 0.  0.
         25    2    1    2    0    0  0.70450753353E+01  0.12009464832E+03 -0.27219101819E+02  0.17567673336E+03  0.12509627292E+03 0.  0.
        -24    2    1    2    0    0  0.30632272313E+02 -0.42498426749E+02  0.71788786357E+03  0.72425628208E+03  0.80247897776E+02 0.  0.
        -13    1    3    3    0    0  0.20282417458E+02 -0.47906580564E+02 -0.33779236323E+02  0.62027846374E+02  0.00000000000E+00 0.  1.
         14    1    3    3    0    0 -0.57959765106E+02 -0.29689641008E+02 -0.19185229285E+02  0.67888748531E+02  0.00000000000E+00 0. -1.
         11    1    5    5    0    0  0.27813438925E+02 -0.65536850257E+02  0.48205079363E+03  0.48727983107E+03  0.00000000000E+00 0. -1.
        -12    1    5    5    0    0  0.28188333882E+01  0.23038423508E+02  0.23583706994E+03  0.23697645101E+03  0.00000000000E+00 0.  1.
          5    1    4    4  501    0  0.37896411610E+02  0.10551745240E+03  0.23283069712E+02  0.11458466088E+03  0.41800000000E+01 0.  1.
         -5    1    4    4    0  501 -0.30851336275E+02  0.14577195923E+02 -0.50502171530E+02  0.61092072482E+02  0.41800000000E+01 0.  1.
</event>
<event>
11    1  0.6625361E-009  0.1956073E+03  0.7561462E-02  0.1057674E+00
         22   -1    0    0    0    0  0.00000000000E+00  0.00000000000E+00  0.23882491068E+03  0.23882491068E+03  0.00000000000E+00 0.  1.
         22   -1    0    0    0    0 -0.00000000000E+00 -0.00000000000E+00 -0.11251779891E+04  0.11251779891E+04  0.00000000000E+00 0. -1.
        -24    2    1    2    0    0  0.63382168359E+02 -0.12568953853E+02 -0.96882907337E+03  0.97567630207E+03  0.95599137722E+02 0.  0.
         25    2    1    2    0    0 -0.10692673349E+03 -0.12685677765E+03  0.13215079190E+02  0.20820225230E+03  0.12509025212E+03 0.  0.
         24    2    1    2    0    0  0.43544565129E+02  0.13942573150E+03  0.69260915814E+02  0.18012434537E+03  0.79448357934E+02 0.  0.
        -11    1    5    5    0    0  0.22561610386E+02  0.14307443845E+03  0.57904890793E+02  0.15598813281E+03  0.00000000000E+00 0.  1.
         12    1    5    5    0    0  0.20982954743E+02 -0.36487069507E+01  0.11356025022E+02  0.24136212554E+02  0.00000000000E+00 0. -1.
         13    1    3    3    0    0  0.50904464405E+02 -0.60664255785E+01 -0.95346778318E+03  0.95484495054E+03  0.00000000000E+00 0. -1.
        -14    1    3    3    0    0  0.12477703954E+02 -0.65025282741E+01 -0.15361290199E+02  0.20831351528E+02  0.00000000000E+00 0.  1.
          5    1    4    4  501    0 -0.71670143299E+02 -0.13978367708E+03 -0.19340705578E+02  0.15832757533E+03  0.41800000000E+01 0. -1.
         -5    1    4    4    0  501 -0.35256590188E+02  0.12926899434E+02  0.32555784768E+02  0.49874676967E+02  0.41800000000E+01 0. -1.
</event>
<event>
11    1  0.6625361E-009  0.1350414E+03  0.7561462E-02  0.1113225E+00
         22   -1    0    0    0    0  0.00000000000E+00  0.00000000000E+00  0.51902421094E+03  0.51902421094E+03  0.00000000000E+00 0. -1.
         22   -1    0    0    0    0 -0.00000000000E+00 -0.00000000000E+00 -0.60022080601E+03  0.60022080601E+03  0.00000000000E+00 0. -1.
         24    2    1    2    0    0 -0.52030703042E+02  0.15080834023E+02 -0.56429311145E+03  0.57271674737E+03  0.81505407653E+02 0.  0.
         25    2    1    2    0    0  0.55209724689E+01 -0.49084771285E+02  0.16192491020E+03  0.21049641187E+03  0.12509703018E+03 0.  0.
        -24    2    1    2    0    0  0.46509730573E+02  0.34003937262E+02  0.32117160619E+03  0.33603185771E+03  0.80291879951E+02 0.  0.
        -13    1    3    3    0    0  0.14524722103E+02  0.24532614248E+02 -0.11836071679E+03  0.12174594857E+03  0.00000000000E+00 0.  1.
         14    1    3    3    0    0 -0.66555425145E+02 -0.94517802246E+01 -0.44593239466E+03  0.45097079880E+03  0.00000000000E+00 0. -1.
         11    1    5    5    0    0  0.55769427818E+02  0.71070798336E+00  0.25865552461E+03  0.26460048109E+03  0.00000000000E+00 0. -1.
        -12    1    5    5    0    0 -0.92596972449E+01  0.33293229278E+02  0.62516081580E+02  0.71431376614E+02  0.00000000000E+00 0.  1.
          5    1    4    4  501    0  0.40063711572E+02  0.28141849790E+02  0.69658751198E+02  0.85245989425E+02  0.41800000000E+01 0.  1.
         -5    1    4    4    0  501 -0.34542739103E+02 -0.77226621075E+02  0.92266158999E+02  0.12525042245E+03  0.41800000000E+01 0.  1.
</event>
